
     Program PWSCF v.6.1 (svn rev. 13369) starts on 13Dec2017 at  8: 5:57 

     This program is part of the open-source Quantum ESPRESSO suite
     for quantum simulation of materials; please cite
         "P. Giannozzi et al., J. Phys.:Condens. Matter 21 395502 (2009);
          URL http://www.quantum-espresso.org", 
     in publications or presentations arising from this work. More details at
     http://www.quantum-espresso.org/quote

     Parallel version (MPI), running on     8 processors
     R & G space division:  proc/nbgrp/npool/nimage =       8
     Waiting for input...
     Reading input from standard input

     Current dimensions of program PWSCF are:
     Max number of different atomic species (ntypx) = 10
     Max number of k-points (npk) =  40000
     Max angular momentum in pseudopotentials (lmaxx) =  3
               file C.pbe-n-kjpaw_psl.0.1.UPF: wavefunction(s)  2P renormalized
               file N.pbe-n-kjpaw_psl.0.1.UPF: wavefunction(s)  2P renormalized
               file H.pbe-kjpaw_psl.0.1.UPF: wavefunction(s)  1S renormalized
               file O.pbe-n-kjpaw_psl.0.1.UPF: wavefunction(s)  2P renormalized

     -------------------------------------
     Parameters for Dispersion Correction:
     -------------------------------------
       atom      VdW radius       C_6     

        C          2.744         60.710
        N          2.640         42.670
        H          1.892          4.857
        O          2.536         24.284

     Subspace diagonalization in iterative solution of the eigenvalue problem:
     a serial algorithm will be used

 
     Parallelization info
     --------------------
     sticks:   dense  smooth     PW     G-vecs:    dense   smooth      PW
     Min         854     854    223                98718    98718   13363
     Max         856     856    224                98721    98721   13366
     Sum        6841    6841   1791               789757   789757  106923
 


     bravais-lattice index     =            0
     lattice parameter (alat)  =      12.2093  a.u.
     unit-cell volume          =    5846.6364 (a.u.)^3
     number of atoms/cell      =          100
     number of atomic types    =            4
     number of electrons       =       280.00
     number of Kohn-Sham states=          168
     kinetic-energy cutoff     =     100.0000  Ry
     charge density cutoff     =     400.0000  Ry
     convergence threshold     =      1.0E-08
     mixing beta               =       0.5000
     number of iterations used =            8  plain     mixing
     Exchange-correlation      =  SLA  PW   PBX  PBC ( 1  4  3  4 0 0)

     celldm(1)=  12.209332  celldm(2)=   0.000000  celldm(3)=   0.000000
     celldm(4)=   0.000000  celldm(5)=   0.000000  celldm(6)=   0.000000

     crystal axes: (cart. coord. in units of alat)
               a(1) = (   1.000000   0.000000   0.000000 )  
               a(2) = (   0.000000   1.441502   0.000000 )  
               a(3) = (   0.000000   0.000000   2.228513 )  

     reciprocal axes: (cart. coord. in units 2 pi/alat)
               b(1) = (  1.000000  0.000000  0.000000 )  
               b(2) = (  0.000000  0.693721  0.000000 )  
               b(3) = (  0.000000  0.000000  0.448730 )  


     PseudoPot. # 1 for  C read from file:
     /scratch/ahofstet/pseudo/C.pbe-n-kjpaw_psl.0.1.UPF
     MD5 check sum: 430fe95172b1e11ef3f8ed03bac87931
     Pseudo is Projector augmented-wave + core cor, Zval =  4.0
     Generated using "atomic" code by A. Dal Corso  v.5.0.99 svn rev. 10869
     Shape of augmentation charge: BESSEL
     Using radial grid of 1073 points,  4 beta functions with: 
                l(1) =   0
                l(2) =   0
                l(3) =   1
                l(4) =   1
     Q(r) pseudized with 0 coefficients 


     PseudoPot. # 2 for  N read from file:
     /scratch/ahofstet/pseudo/N.pbe-n-kjpaw_psl.0.1.UPF
     MD5 check sum: f73187c8b701007e77325f868c9291d7
     Pseudo is Projector augmented-wave + core cor, Zval =  5.0
     Generated using "atomic" code by A. Dal Corso  v.5.0.99 svn rev. 10869
     Shape of augmentation charge: PSQ
     Using radial grid of 1085 points,  4 beta functions with: 
                l(1) =   0
                l(2) =   0
                l(3) =   1
                l(4) =   1
     Q(r) pseudized with 0 coefficients 


     PseudoPot. # 3 for  H read from file:
     /scratch/ahofstet/pseudo/H.pbe-kjpaw_psl.0.1.UPF
     MD5 check sum: 94e484f906d9e9773b2f6e52662335b2
     Pseudo is Projector augmented-wave, Zval =  1.0
     Generated using "atomic" code by A. Dal Corso  v.5.0.99 svn rev. 10869
     Shape of augmentation charge: PSQ
     Using radial grid of  929 points,  2 beta functions with: 
                l(1) =   0
                l(2) =   0
     Q(r) pseudized with 0 coefficients 


     PseudoPot. # 4 for  O read from file:
     /scratch/ahofstet/pseudo/O.pbe-n-kjpaw_psl.0.1.UPF
     MD5 check sum: 3f94a2996a3169367d6eb21d9b593f20
     Pseudo is Projector augmented-wave + core cor, Zval =  6.0
     Generated using "atomic" code by A. Dal Corso  v.5.0.99 svn rev. 10869
     Shape of augmentation charge: BESSEL
     Using radial grid of 1095 points,  4 beta functions with: 
                l(1) =   0
                l(2) =   0
                l(3) =   1
                l(4) =   1
     Q(r) pseudized with 0 coefficients 


     atomic species   valence    mass     pseudopotential
        C              4.00    12.01070      C( 1.00)
        N              5.00    14.00670      N( 1.00)
        H              1.00     1.00794      H( 1.00)
        O              6.00    15.99940      O( 1.00)

      2 Sym. Ops. (no inversion) found ( 1 have fractional translation)



   Cartesian axes

     site n.     atom                  positions (alat units)
         1           O   tau(   1) = (   0.2212933   0.8590999   0.6103779  )
         2           O   tau(   2) = (   0.2785222   0.5825841   1.7244594  )
         3           O   tau(   3) = (   0.7785222   0.1381668   0.5040536  )
         4           O   tau(   4) = (   0.7212933   1.3031531   1.6181351  )
         5           O   tau(   5) = (   0.4022510   0.8099647   0.3185625  )
         6           O   tau(   6) = (   0.0974275   0.6315455   1.4327228  )
         7           O   tau(   7) = (   0.5974275   0.0892055   0.7957903  )
         8           O   tau(   8) = (   0.9022510   1.3522883   1.9099505  )
         9           O   tau(   9) = (   0.4335111   0.8589159   1.2655670  )
        10           O   tau(  10) = (   0.0665472   0.5826149   0.1514165  )
        11           O   tau(  11) = (   0.5665472   0.1381361   2.0770966  )
        12           O   tau(  12) = (   0.9335111   1.3033370   0.9629461  )
        13           H   tau(  13) = (   0.3245457   0.7830219   1.3408725  )
        14           H   tau(  14) = (   0.1754715   0.6585726   0.2267279  )
        15           H   tau(  15) = (   0.6754715   0.0621784   2.0017851  )
        16           H   tau(  16) = (   0.8245457   1.3792310   0.8876405  )
        17           C   tau(  17) = (   0.2615545   0.9069703   0.8296494  )
        18           C   tau(  18) = (   0.2384609   0.5345726   1.9437259  )
        19           C   tau(  19) = (   0.7384609   0.1861784   0.2847872  )
        20           C   tau(  20) = (   0.7615545   1.2552826   1.3988637  )
        21           H   tau(  21) = (   0.1316577   1.0026015   0.8801062  )
        22           H   tau(  22) = (   0.3684275   0.4389410   1.9940156  )
        23           H   tau(  23) = (   0.8684275   0.2818100   0.2344975  )
        24           H   tau(  24) = (   0.6316577   1.1596515   1.3484068  )
        25           C   tau(  25) = (   0.4726301   1.0203771   0.8342369  )
        26           C   tau(  26) = (   0.0274226   0.4211030   1.9484639  )
        27           C   tau(  27) = (   0.5274226   0.2996480   0.2800492  )
        28           C   tau(  28) = (   0.9726301   1.1418758   1.3942762  )
        29           H   tau(  29) = (   0.4635927   1.1847383   0.8728424  )
        30           H   tau(  30) = (   0.0365369   0.2567412   1.9870370  )
        31           H   tau(  31) = (   0.5365369   0.4640098   0.2414760  )
        32           H   tau(  32) = (   0.9635927   0.9775147   1.3556706  )
        33           C   tau(  33) = (   0.5714901   0.9563286   0.6268674  )
        34           C   tau(  34) = (   0.9284079   0.4851374   1.7411598  )
        35           C   tau(  35) = (   0.4284079   0.2356136   0.4873532  )
        36           C   tau(  36) = (   0.0714901   1.2059244   1.6016457  )
        37           H   tau(  37) = (   0.6611928   1.0697838   0.5380575  )
        38           H   tau(  38) = (   0.8386489   0.3716602   1.6524384  )
        39           H   tau(  39) = (   0.3386489   0.3490907   0.5760747  )
        40           H   tau(  40) = (   0.1611928   1.0924691   1.6904556  )
        41           C   tau(  41) = (   0.3964643   0.8689146   0.4985335  )
        42           C   tau(  42) = (   0.1033087   0.5726252   1.6126724  )
        43           C   tau(  43) = (   0.6033087   0.1481258   0.6158407  )
        44           C   tau(  44) = (   0.8964643   1.2933383   1.7299796  )
        45           C   tau(  45) = (   0.2890820   0.7046199   0.9521938  )
        46           C   tau(  46) = (   0.2109986   0.7368244   2.0664742  )
        47           C   tau(  47) = (   0.7109986   1.4254285   0.1620388  )
        48           C   tau(  48) = (   0.7890820   0.0161311   1.2763192  )
        49           H   tau(  49) = (   0.3163073   0.5775624   0.8418258  )
        50           H   tau(  50) = (   0.1837896   0.8639739   1.9562079  )
        51           H   tau(  51) = (   0.6837896   1.2982790   0.2723051  )
        52           H   tau(  52) = (   0.8163073   0.1431885   1.3866872  )
        53           H   tau(  53) = (   0.1542850   0.6636624   1.0463759  )
        54           H   tau(  54) = (   0.3458363   0.7776748   2.1606440  )
        55           H   tau(  55) = (   0.8458363   1.3845781   0.0678690  )
        56           H   tau(  56) = (   0.6542850   0.0570885   1.1821372  )
        57           C   tau(  57) = (   0.4838349   0.7340205   1.0873532  )
        58           C   tau(  58) = (   0.0162477   0.7074263   2.2016663  )
        59           C   tau(  59) = (   0.5162477   0.0133246   0.0268468  )
        60           C   tau(  60) = (   0.9838349   1.4282325   1.1411598  )
        61           C   tau(  61) = (   0.6215780   0.8741416   0.9537304  )
        62           C   tau(  62) = (   0.8784993   0.5672777   2.0680778  )
        63           C   tau(  63) = (   0.3784993   0.1534733   0.1604353  )
        64           C   tau(  64) = (   0.1215780   1.2881114   1.2747826  )
        65           H   tau(  65) = (   0.7419408   0.9506866   1.0454814  )
        66           H   tau(  66) = (   0.7582101   0.4906685   2.1598811  )
        67           H   tau(  67) = (   0.2582101   0.2300825   0.0686319  )
        68           H   tau(  68) = (   0.2419408   1.2115663   1.1830317  )
        69           C   tau(  69) = (   0.6976365   0.7944364   0.7451850  )
        70           C   tau(  70) = (   0.8023134   0.6470291   1.8595537  )
        71           C   tau(  71) = (   0.3023134   0.0737218   0.3689593  )
        72           C   tau(  72) = (   0.1976365   1.3678165   1.4833280  )
        73           C   tau(  73) = (   0.5831258   0.5312062   1.1553114  )
        74           C   tau(  74) = (   0.9169308   0.9102788   0.0409811  )
        75           C   tau(  75) = (   0.4169308   1.2519742   2.1875319  )
        76           C   tau(  76) = (   0.0831258   0.1895447   1.0732016  )
        77           H   tau(  77) = (   0.4736381   0.4457952   1.2535883  )
        78           H   tau(  78) = (   0.0263887   0.9957783   0.1392104  )
        79           H   tau(  79) = (   0.5263887   1.1664747   2.0893027  )
        80           H   tau(  80) = (   0.9736381   0.2749558   0.9749248  )
        81           H   tau(  81) = (   0.7242539   0.5616460   1.2452574  )
        82           H   tau(  82) = (   0.7757915   0.8798887   0.1309266  )
        83           H   tau(  83) = (   0.2757915   1.2823642   2.0975864  )
        84           H   tau(  84) = (   0.2242539   0.1591049   0.9832556  )
        85           H   tau(  85) = (   0.6213018   0.4331791   1.0216926  )
        86           H   tau(  86) = (   0.8787626   1.0082021   2.1357957  )
        87           H   tau(  87) = (   0.3787626   1.1540509   0.0927173  )
        88           H   tau(  88) = (   0.1213018   0.2875719   1.2068205  )
        89           C   tau(  89) = (   0.8195993   0.6414203   0.6802125  )
        90           C   tau(  90) = (   0.6803644   0.8000344   1.7946647  )
        91           C   tau(  91) = (   0.1803644   1.3622185   0.4338484  )
        92           C   tau(  92) = (   0.3195993   0.0793307   1.5483005  )
        93           H   tau(  93) = (   0.8951321   0.5374356   0.7894421  )
        94           H   tau(  94) = (   0.6048899   0.9040186   1.9039628  )
        95           H   tau(  95) = (   0.1048899   1.2582343   0.3245503  )
        96           H   tau(  96) = (   0.3951321   0.1833154   1.4390709  )
        97           H   tau(  97) = (   0.8507439   0.6169381   0.5158545  )
        98           H   tau(  98) = (   0.6491524   0.8246053   1.6303250  )
        99           H   tau(  99) = (   0.1491524   1.3376476   0.5981881  )
       100           H   tau( 100) = (   0.3507439   0.1038129   1.7126586  )

     number of k points=     8
                       cart. coord. in units 2pi/alat
        k(    1) = (   0.0000000   0.0000000   0.0000000), wk =   0.1666667
        k(    2) = (   0.0000000   0.0000000  -0.2243649), wk =   0.1666667
        k(    3) = (   0.0000000  -0.3468604   0.0000000), wk =   0.1666667
        k(    4) = (   0.0000000  -0.3468604  -0.2243649), wk =   0.1666667
        k(    5) = (   0.3333333   0.0000000   0.0000000), wk =   0.3333333
        k(    6) = (   0.3333333   0.0000000  -0.2243649), wk =   0.3333333
        k(    7) = (   0.3333333  -0.3468604   0.0000000), wk =   0.3333333
        k(    8) = (   0.3333333  -0.3468604  -0.2243649), wk =   0.3333333

     Dense  grid:   789757 G-vectors     FFT dimensions: (  80, 120, 180)

     Estimated max dynamical RAM per process >     708.54MB

     Estimated total allocated dynamical RAM >    5668.31MB

     Check: negative/imaginary core charge=   -0.000002    0.000000

     Initial potential from superposition of free atoms

     starting charge  279.99786, renormalised to  280.00000
     Starting wfc are  256 randomized atomic wfcs
     Checking if some PAW data can be deallocated... 

     total cpu time spent up to now is       35.2 secs

     per-process dynamical memory:   519.2 Mb

     Self-consistent Calculation

     iteration #  1     ecut=   100.00 Ry     beta=0.50
     Davidson diagonalization with overlap
     ethr =  1.00E-02,  avg # of iterations =  3.2

     total cpu time spent up to now is      130.4 secs

     total energy              =   -1292.51522112 Ry
     Harris-Foulkes estimate   =   -1297.85245557 Ry
     estimated scf accuracy    <      10.21930515 Ry

     iteration #  2     ecut=   100.00 Ry     beta=0.50
     Davidson diagonalization with overlap
     ethr =  3.65E-03,  avg # of iterations =  2.0

     total cpu time spent up to now is      180.7 secs

     total energy              =   -1293.06428335 Ry
     Harris-Foulkes estimate   =   -1293.65276087 Ry
     estimated scf accuracy    <       1.24861697 Ry

     iteration #  3     ecut=   100.00 Ry     beta=0.50
     Davidson diagonalization with overlap
     ethr =  4.46E-04,  avg # of iterations =  5.0

     total cpu time spent up to now is      292.5 secs

     total energy              =   -1294.21455469 Ry
     Harris-Foulkes estimate   =   -1294.81798419 Ry
     estimated scf accuracy    <       1.71669069 Ry

     iteration #  4     ecut=   100.00 Ry     beta=0.50
     Davidson diagonalization with overlap
     ethr =  4.46E-04,  avg # of iterations =  1.1

     total cpu time spent up to now is      339.9 secs

     total energy              =   -1293.88056617 Ry
     Harris-Foulkes estimate   =   -1294.28936049 Ry
     estimated scf accuracy    <       0.61313667 Ry

     iteration #  5     ecut=   100.00 Ry     beta=0.50
     Davidson diagonalization with overlap
     ethr =  2.19E-04,  avg # of iterations =  4.4

     total cpu time spent up to now is      443.2 secs

     total energy              =   -1294.31503638 Ry
     Harris-Foulkes estimate   =   -1294.54704331 Ry
     estimated scf accuracy    <       0.78501239 Ry

     iteration #  6     ecut=   100.00 Ry     beta=0.50
     Davidson diagonalization with overlap
     ethr =  2.19E-04,  avg # of iterations =  1.0

     total cpu time spent up to now is      490.3 secs

     total energy              =   -1294.15014319 Ry
     Harris-Foulkes estimate   =   -1294.33447873 Ry
     estimated scf accuracy    <       0.36987327 Ry

     iteration #  7     ecut=   100.00 Ry     beta=0.50
     Davidson diagonalization with overlap
     ethr =  1.32E-04,  avg # of iterations =  5.8

     total cpu time spent up to now is      576.6 secs

     total energy              =   -1294.29456711 Ry
     Harris-Foulkes estimate   =   -1294.30383893 Ry
     estimated scf accuracy    <       0.02466828 Ry

     iteration #  8     ecut=   100.00 Ry     beta=0.50
     Davidson diagonalization with overlap
     c_bands:  2 eigenvalues not converged
     ethr =  8.81E-06,  avg # of iterations =  6.4

     total cpu time spent up to now is      638.3 secs

     total energy              =   -1294.29257522 Ry
     Harris-Foulkes estimate   =   -1294.29652731 Ry
     estimated scf accuracy    <       0.00752116 Ry

     iteration #  9     ecut=   100.00 Ry     beta=0.50
     Davidson diagonalization with overlap
     ethr =  2.69E-06,  avg # of iterations =  7.2

     total cpu time spent up to now is      740.3 secs

     total energy              =   -1294.29737765 Ry
     Harris-Foulkes estimate   =   -1294.29808057 Ry
     estimated scf accuracy    <       0.00216924 Ry

     iteration # 10     ecut=   100.00 Ry     beta=0.50
     Davidson diagonalization with overlap
     ethr =  7.75E-07,  avg # of iterations =  1.0

     total cpu time spent up to now is      787.3 secs

     total energy              =   -1294.29680377 Ry
     Harris-Foulkes estimate   =   -1294.29744429 Ry
     estimated scf accuracy    <       0.00090125 Ry

     iteration # 11     ecut=   100.00 Ry     beta=0.50
     Davidson diagonalization with overlap
     ethr =  3.22E-07,  avg # of iterations =  4.0

     total cpu time spent up to now is      879.1 secs

     total energy              =   -1294.29737329 Ry
     Harris-Foulkes estimate   =   -1294.29777268 Ry
     estimated scf accuracy    <       0.00111547 Ry

     iteration # 12     ecut=   100.00 Ry     beta=0.50
     Davidson diagonalization with overlap
     ethr =  3.22E-07,  avg # of iterations =  1.0

     total cpu time spent up to now is      926.2 secs

     total energy              =   -1294.29721054 Ry
     Harris-Foulkes estimate   =   -1294.29740773 Ry
     estimated scf accuracy    <       0.00041278 Ry

     iteration # 13     ecut=   100.00 Ry     beta=0.50
     Davidson diagonalization with overlap
     ethr =  1.47E-07,  avg # of iterations =  4.0

     total cpu time spent up to now is     1009.3 secs

     total energy              =   -1294.29743951 Ry
     Harris-Foulkes estimate   =   -1294.29745113 Ry
     estimated scf accuracy    <       0.00006562 Ry

     iteration # 14     ecut=   100.00 Ry     beta=0.50
     Davidson diagonalization with overlap
     ethr =  2.34E-08,  avg # of iterations =  1.0

     total cpu time spent up to now is     1056.4 secs

     total energy              =   -1294.29742029 Ry
     Harris-Foulkes estimate   =   -1294.29744084 Ry
     estimated scf accuracy    <       0.00004366 Ry

     iteration # 15     ecut=   100.00 Ry     beta=0.50
     Davidson diagonalization with overlap
     ethr =  1.56E-08,  avg # of iterations =  3.2

     total cpu time spent up to now is     1121.7 secs

     total energy              =   -1294.29743186 Ry
     Harris-Foulkes estimate   =   -1294.29743164 Ry
     estimated scf accuracy    <       0.00000031 Ry

     iteration # 16     ecut=   100.00 Ry     beta=0.50
     Davidson diagonalization with overlap
     ethr =  1.11E-10,  avg # of iterations =  4.0

     total cpu time spent up to now is     1230.3 secs

     total energy              =   -1294.29743250 Ry
     Harris-Foulkes estimate   =   -1294.29743302 Ry
     estimated scf accuracy    <       0.00000292 Ry

     iteration # 17     ecut=   100.00 Ry     beta=0.50
     Davidson diagonalization with overlap
     ethr =  1.11E-10,  avg # of iterations =  1.2

     total cpu time spent up to now is     1277.6 secs

     total energy              =   -1294.29743175 Ry
     Harris-Foulkes estimate   =   -1294.29743252 Ry
     estimated scf accuracy    <       0.00000200 Ry

     iteration # 18     ecut=   100.00 Ry     beta=0.50
     Davidson diagonalization with overlap
     ethr =  1.11E-10,  avg # of iterations =  4.0

     total cpu time spent up to now is     1370.3 secs

     total energy              =   -1294.29743210 Ry
     Harris-Foulkes estimate   =   -1294.29743213 Ry
     estimated scf accuracy    <       0.00000008 Ry

     iteration # 19     ecut=   100.00 Ry     beta=0.50
     Davidson diagonalization with overlap
     ethr =  2.70E-11,  avg # of iterations =  2.0

     total cpu time spent up to now is     1419.3 secs

     total energy              =   -1294.29743210 Ry
     Harris-Foulkes estimate   =   -1294.29743210 Ry
     estimated scf accuracy    <       0.00000002 Ry

     iteration # 20     ecut=   100.00 Ry     beta=0.50
     Davidson diagonalization with overlap
     ethr =  7.19E-12,  avg # of iterations =  4.0

     total cpu time spent up to now is     1498.6 secs

     End of self-consistent calculation

          k = 0.0000 0.0000 0.0000 ( 98725 PWs)   bands (ev):

   -21.3704 -21.3676 -21.3659 -21.3636 -19.3079 -19.2993 -19.2824 -19.2777
   -18.6469 -18.6326 -18.6212 -18.6126 -15.4688 -15.4675 -15.4670 -15.4504
   -13.1263 -13.1065 -13.1021 -13.0956 -12.0970 -12.0564 -12.0436 -12.0211
   -11.4655 -11.4165 -11.4153 -11.4021 -10.7443 -10.7354 -10.7039 -10.6236
    -9.8640  -9.8514  -9.8188  -9.8115  -8.6044  -8.5758  -8.5598  -8.5121
    -8.2013  -8.1330  -8.0877  -7.9112  -7.1013  -6.9890  -6.9418  -6.9118
    -6.7649  -6.5462  -6.4367  -6.2369  -6.2179  -6.1147  -6.0759  -6.0023
    -5.6996  -5.6983  -5.5981  -5.4787  -5.1767  -5.1384  -5.1378  -5.1014
    -5.0771  -5.0255  -4.9557  -4.8920  -4.8882  -4.7550  -4.6682  -4.6341
    -4.3593  -4.3299  -4.2411  -4.1867  -4.1682  -4.1497  -4.0416  -3.9980
    -3.8702  -3.7871  -3.7765  -3.7036  -3.6857  -3.6242  -3.5925  -3.4970
    -3.1794  -3.1231  -3.0835  -2.9806  -2.7947  -2.7450  -2.6381  -2.6138
    -2.3902  -2.2816  -2.2686  -2.1778  -2.0387  -2.0313  -1.9543  -1.9447
    -1.8812  -1.8778  -1.7176  -1.7169  -1.7120  -1.7088  -1.6145  -1.5496
    -1.4997  -1.4437  -1.3970  -1.3690  -1.3684  -1.2449  -1.1822  -1.1122
    -1.0558  -1.0446  -0.9946  -0.8681  -0.7951  -0.6271  -0.5866  -0.5749
    -0.3020  -0.2992   0.0853   0.1025   0.1265   0.2033   0.2226   0.2704
     0.5030   0.5064   0.5177   0.5203   4.9288   4.9422   4.9485   5.0028
     5.3924   5.4530   5.7026   5.8125   6.4829   6.7382   6.8521   6.9501
     7.2347   7.3649   7.4008   7.4075   7.5399   7.6267   7.7245   8.0817
     8.1014   8.1090   8.2721   8.4359   8.6430   8.7040   8.7139   8.7799

          k = 0.0000 0.0000-0.2244 ( 98638 PWs)   bands (ev):

   -21.3690 -21.3690 -21.3648 -21.3647 -19.2954 -19.2954 -19.2887 -19.2886
   -18.6349 -18.6329 -18.6233 -18.6214 -15.4703 -15.4691 -15.4579 -15.4566
   -13.1174 -13.1164 -13.0987 -13.0976 -12.0830 -12.0829 -12.0263 -12.0261
   -11.4494 -11.4493 -11.4011 -11.4010 -10.7424 -10.7411 -10.6619 -10.6606
    -9.8595  -9.8592  -9.8146  -9.8143  -8.5821  -8.5817  -8.5372  -8.5368
    -8.1602  -8.1595  -8.0284  -8.0277  -7.0253  -7.0244  -6.9335  -6.9327
    -6.6634  -6.6623  -6.3333  -6.3323  -6.1837  -6.1831  -6.0341  -6.0337
    -5.6678  -5.6675  -5.5552  -5.5548  -5.1756  -5.1748  -5.1325  -5.1322
    -4.9937  -4.9929  -4.9198  -4.9194  -4.8610  -4.8602  -4.6463  -4.6460
    -4.2713  -4.2707  -4.2534  -4.2529  -4.1379  -4.1378  -4.1012  -4.1010
    -3.8287  -3.8277  -3.7336  -3.7333  -3.6429  -3.6425  -3.5549  -3.5545
    -3.1408  -3.1406  -3.0436  -3.0432  -2.7212  -2.7206  -2.6544  -2.6533
    -2.3373  -2.3372  -2.2284  -2.2283  -2.0414  -2.0405  -1.9279  -1.9273
    -1.8320  -1.8317  -1.8135  -1.8128  -1.6435  -1.6429  -1.6020  -1.6010
    -1.4510  -1.4505  -1.3650  -1.3645  -1.2940  -1.2932  -1.1624  -1.1616
    -1.1323  -1.1321  -0.9331  -0.9331  -0.7567  -0.7562  -0.5642  -0.5639
    -0.0911  -0.0911  -0.0699  -0.0699   0.1732   0.1737   0.2582   0.2583
     0.4912   0.4921   0.5318   0.5323   4.9309   4.9316   4.9782   4.9790
     5.4175   5.4179   5.7537   5.7541   6.5907   6.5907   7.0026   7.0031
     7.1847   7.1849   7.4204   7.4207   7.6280   7.6282   7.8701   7.8703
     8.1121   8.1126   8.3050   8.3051   8.6749   8.6750   8.7276   8.7278

          k = 0.0000-0.3469 0.0000 ( 98844 PWs)   bands (ev):

   -21.3682 -21.3681 -21.3656 -21.3656 -19.3036 -19.3036 -19.2800 -19.2800
   -18.6414 -18.6405 -18.6161 -18.6152 -15.4713 -15.4699 -15.4573 -15.4559
   -13.1200 -13.1190 -13.0959 -13.0949 -12.0778 -12.0776 -12.0286 -12.0284
   -11.4355 -11.4355 -11.4131 -11.4130 -10.7421 -10.7411 -10.6735 -10.6725
    -9.8517  -9.8506  -9.8159  -9.8149  -8.5834  -8.5830  -8.5456  -8.5452
    -8.1746  -8.1744  -7.9915  -7.9913  -7.0403  -7.0396  -6.9561  -6.9553
    -6.6277  -6.6269  -6.3732  -6.3724  -6.1468  -6.1462  -6.0481  -6.0477
    -5.6338  -5.6334  -5.5746  -5.5741  -5.1720  -5.1718  -5.1150  -5.1144
    -5.0090  -5.0083  -4.8982  -4.8978  -4.7961  -4.7959  -4.7259  -4.7258
    -4.3890  -4.3886  -4.2683  -4.2679  -4.1007  -4.1003  -4.0128  -4.0126
    -3.8599  -3.8599  -3.7594  -3.7581  -3.6203  -3.6200  -3.5178  -3.5169
    -3.2077  -3.2075  -3.0189  -3.0188  -2.7621  -2.7618  -2.6325  -2.6323
    -2.3004  -2.2999  -2.2129  -2.2125  -2.0086  -2.0081  -1.9291  -1.9287
    -1.8567  -1.8561  -1.7893  -1.7885  -1.6585  -1.6580  -1.5965  -1.5960
    -1.5065  -1.5064  -1.4125  -1.4117  -1.2318  -1.2304  -1.1505  -1.1503
    -1.0821  -1.0819  -0.9619  -0.9617  -0.6747  -0.6737  -0.5889  -0.5882
    -0.2975  -0.2973   0.1084   0.1085   0.1680   0.1683   0.2483   0.2485
     0.4814   0.4827   0.5082   0.5094   4.8954   4.8963   4.9341   4.9352
     5.5355   5.5368   5.6181   5.6194   6.7691   6.7694   6.9531   6.9537
     7.0761   7.0762   7.5168   7.5171   7.6967   7.6971   7.8187   7.8191
     8.2000   8.2001   8.4988   8.4994   8.5723   8.5724   8.7340   8.7341

          k = 0.0000-0.3469-0.2244 ( 98768 PWs)   bands (ev):

   -21.3672 -21.3670 -21.3667 -21.3666 -19.2931 -19.2923 -19.2918 -19.2910
   -18.6346 -18.6326 -18.6236 -18.6216 -15.4700 -15.4683 -15.4590 -15.4572
   -13.1180 -13.1168 -13.0979 -13.0967 -12.0773 -12.0772 -12.0294 -12.0293
   -11.4290 -11.4289 -11.4200 -11.4200 -10.7320 -10.7306 -10.6836 -10.6821
    -9.8530  -9.8519  -9.8153  -9.8142  -8.5668  -8.5656  -8.5559  -8.5547
    -8.1257  -8.1250  -8.0629  -8.0623  -7.0009  -7.0001  -6.9753  -6.9744
    -6.5961  -6.5951  -6.4158  -6.4148  -6.1357  -6.1350  -6.0599  -6.0591
    -5.6133  -5.6124  -5.5892  -5.5886  -5.1721  -5.1719  -5.1398  -5.1385
    -4.9899  -4.9892  -4.8919  -4.8914  -4.7675  -4.7671  -4.7505  -4.7496
    -4.3363  -4.3355  -4.2868  -4.2864  -4.0866  -4.0864  -4.0860  -4.0859
    -3.8277  -3.8270  -3.8014  -3.8002  -3.6118  -3.6112  -3.5120  -3.5111
    -3.2013  -3.2009  -3.0361  -3.0358  -2.7224  -2.7214  -2.6415  -2.6406
    -2.2892  -2.2886  -2.2369  -2.2364  -1.9813  -1.9803  -1.9598  -1.9590
    -1.8230  -1.8220  -1.7971  -1.7958  -1.6335  -1.6321  -1.6235  -1.6223
    -1.4499  -1.4494  -1.4396  -1.4390  -1.2275  -1.2262  -1.1847  -1.1840
    -1.0822  -1.0819  -1.0184  -1.0181  -0.6720  -0.6710  -0.6144  -0.6137
    -0.1022  -0.1012  -0.0611  -0.0598   0.2133   0.2141   0.2398   0.2409
     0.4837   0.4856   0.5049   0.5066   4.8918   4.8927   4.9372   4.9382
     5.5346   5.5358   5.6188   5.6202   6.7416   6.7421   6.9960   6.9961
     7.1269   7.1276   7.3711   7.3717   7.7077   7.7085   7.8851   7.8855
     8.3432   8.3434   8.3950   8.3955   8.6110   8.6113   8.6732   8.6736

          k = 0.3333 0.0000 0.0000 ( 98739 PWs)   bands (ev):

   -21.3690 -21.3676 -21.3647 -21.3636 -19.3050 -19.3007 -19.2809 -19.2786
   -18.6433 -18.6361 -18.6199 -18.6156 -15.4751 -15.4730 -15.4642 -15.4573
   -13.1527 -13.1411 -13.1309 -13.1264 -12.0908 -12.0622 -12.0548 -12.0392
   -11.3638 -11.3420 -11.3159 -11.3047 -10.7691 -10.7393 -10.7036 -10.6539
    -9.8813  -9.8737  -9.8151  -9.8100  -8.7237  -8.7020  -8.6547  -8.6278
    -8.1886  -8.1562  -8.0167  -7.9348  -7.0038  -6.9228  -6.9020  -6.8880
    -6.5895  -6.4548  -6.3938  -6.2420  -6.0987  -6.0703  -6.0516  -5.9720
    -5.6733  -5.6654  -5.5570  -5.4645  -5.1748  -5.1540  -5.1259  -5.0873
    -5.0816  -5.0216  -4.9412  -4.9157  -4.8839  -4.7959  -4.6422  -4.6291
    -4.3641  -4.3352  -4.2234  -4.1898  -4.1769  -4.1245  -4.0563  -4.0256
    -3.8887  -3.8199  -3.8148  -3.7604  -3.7398  -3.6648  -3.5961  -3.5951
    -3.2486  -3.1840  -3.1117  -3.1033  -2.7880  -2.7629  -2.7247  -2.6654
    -2.3589  -2.3150  -2.2492  -2.1975  -2.1076  -2.0477  -2.0135  -1.9751
    -1.9666  -1.8826  -1.8706  -1.7682  -1.7589  -1.6816  -1.6476  -1.5415
    -1.4799  -1.4211  -1.3944  -1.3639  -1.3425  -1.2679  -1.2330  -1.2131
    -1.0385  -1.0374  -0.9635  -0.8665  -0.7319  -0.6537  -0.5841  -0.5528
    -0.3061  -0.3057   0.0969   0.1006   0.3195   0.3969   0.4197   0.4211
     0.4998   0.5084   0.5225   0.5430   4.8154   4.8299   4.9395   4.9400
     5.4060   5.4318   5.7723   5.8234   6.7909   6.8869   6.8931   7.1146
     7.2276   7.3918   7.6044   7.6085   7.6577   7.6964   7.8034   7.9582
     7.9876   8.1273   8.1871   8.2602   8.3619   8.4052   8.5450   8.6500

          k = 0.3333 0.0000-0.2244 ( 98704 PWs)   bands (ev):

   -21.3680 -21.3680 -21.3644 -21.3644 -19.2936 -19.2935 -19.2895 -19.2894
   -18.6324 -18.6305 -18.6265 -18.6246 -15.4725 -15.4716 -15.4632 -15.4624
   -13.1429 -13.1421 -13.1333 -13.1325 -12.0808 -12.0807 -12.0428 -12.0427
   -11.3524 -11.3524 -11.3118 -11.3118 -10.7444 -10.7433 -10.6911 -10.6900
    -9.8668  -9.8666  -9.8217  -9.8215  -8.6972  -8.6971  -8.6500  -8.6499
    -8.1223  -8.1217  -8.0524  -8.0518  -6.9458  -6.9449  -6.8919  -6.8910
    -6.5191  -6.5181  -6.3058  -6.3048  -6.1156  -6.1150  -5.9937  -5.9931
    -5.6433  -5.6428  -5.5518  -5.5513  -5.1929  -5.1923  -5.1060  -5.1056
    -5.0162  -5.0158  -4.9332  -4.9330  -4.8192  -4.8190  -4.6884  -4.6882
    -4.2743  -4.2742  -4.2211  -4.2210  -4.1554  -4.1551  -4.0491  -4.0490
    -3.8740  -3.8736  -3.7882  -3.7880  -3.6818  -3.6814  -3.6170  -3.6167
    -3.2097  -3.2096  -3.1153  -3.1151  -2.7587  -2.7581  -2.7004  -2.6997
    -2.3421  -2.3420  -2.2187  -2.2186  -2.0745  -2.0739  -2.0095  -2.0094
    -1.9097  -1.9094  -1.8474  -1.8471  -1.6781  -1.6776  -1.5976  -1.5969
    -1.4487  -1.4480  -1.3480  -1.3476  -1.2985  -1.2985  -1.2697  -1.2696
    -1.0741  -1.0740  -0.9304  -0.9303  -0.7138  -0.7134  -0.5665  -0.5662
    -0.1138  -0.1136  -0.0505  -0.0504   0.3766   0.3768   0.4203   0.4206
     0.4995   0.5006   0.5348   0.5354   4.8290   4.8290   4.9324   4.9324
     5.4149   5.4151   5.8009   5.8010   6.7927   6.7928   7.0807   7.0810
     7.2817   7.2818   7.6217   7.6218   7.6850   7.6857   7.8407   7.8413
     8.0507   8.0511   8.2207   8.2212   8.3864   8.3865   8.6099   8.6102

          k = 0.3333-0.3469 0.0000 ( 98738 PWs)   bands (ev):

   -21.3675 -21.3675 -21.3650 -21.3650 -19.3028 -19.3028 -19.2798 -19.2798
   -18.6402 -18.6397 -18.6177 -18.6172 -15.4740 -15.4732 -15.4619 -15.4611
   -13.1483 -13.1478 -13.1280 -13.1275 -12.0740 -12.0738 -12.0485 -12.0483
   -11.3450 -11.3450 -11.3201 -11.3201 -10.7495 -10.7490 -10.6788 -10.6783
    -9.8671  -9.8667  -9.8261  -9.8257  -8.7073  -8.7072  -8.6472  -8.6471
    -8.1794  -8.1793  -7.9817  -7.9816  -6.9633  -6.9626  -6.9033  -6.9024
    -6.5313  -6.5306  -6.2967  -6.2959  -6.0787  -6.0779  -6.0131  -6.0124
    -5.6292  -5.6288  -5.5477  -5.5471  -5.1806  -5.1806  -5.1282  -5.1280
    -5.0044  -5.0043  -4.9131  -4.9127  -4.7713  -4.7712  -4.7215  -4.7214
    -4.3795  -4.3792  -4.2017  -4.2016  -4.1137  -4.1135  -4.0426  -4.0425
    -3.8838  -3.8835  -3.7993  -3.7988  -3.6880  -3.6879  -3.6128  -3.6126
    -3.1948  -3.1944  -3.1154  -3.1150  -2.7878  -2.7872  -2.6994  -2.6990
    -2.3036  -2.3032  -2.2366  -2.2362  -2.0763  -2.0761  -1.9884  -1.9881
    -1.8878  -1.8870  -1.8493  -1.8484  -1.7235  -1.7233  -1.5795  -1.5791
    -1.4331  -1.4331  -1.3944  -1.3941  -1.3394  -1.3385  -1.1818  -1.1816
    -1.0701  -1.0700  -0.9406  -0.9404  -0.6655  -0.6646  -0.5968  -0.5961
    -0.2935  -0.2933   0.1051   0.1051   0.3572   0.3572   0.4155   0.4159
     0.5059   0.5071   0.5517   0.5526   4.8085   4.8090   4.8698   4.8703
     5.5828   5.5838   5.6286   5.6295   6.8961   6.8963   7.0995   7.0998
     7.2772   7.2773   7.5348   7.5350   7.7399   7.7405   7.9291   7.9291
     8.0204   8.0208   8.2714   8.2714   8.4009   8.4015   8.5968   8.5969

          k = 0.3333-0.3469-0.2244 ( 98724 PWs)   bands (ev):

   -21.3665 -21.3664 -21.3661 -21.3660 -19.2922 -19.2916 -19.2914 -19.2908
   -18.6323 -18.6303 -18.6268 -18.6248 -15.4712 -15.4694 -15.4657 -15.4639
   -13.1432 -13.1422 -13.1334 -13.1324 -12.0734 -12.0732 -12.0492 -12.0490
   -11.3358 -11.3356 -11.3301 -11.3300 -10.7279 -10.7265 -10.7030 -10.7016
    -9.8551  -9.8541  -9.8367  -9.8357  -8.6770  -8.6759  -8.6715  -8.6704
    -8.1112  -8.1106  -8.0776  -8.0770  -6.9323  -6.9314  -6.9094  -6.9083
    -6.4768  -6.4758  -6.3410  -6.3400  -6.0809  -6.0800  -6.0457  -6.0448
    -5.6013  -5.6005  -5.5433  -5.5427  -5.1637  -5.1630  -5.1553  -5.1550
    -4.9800  -4.9796  -4.9437  -4.9433  -4.7756  -4.7749  -4.7625  -4.7619
    -4.2710  -4.2704  -4.2325  -4.2321  -4.0885  -4.0880  -4.0764  -4.0760
    -3.8617  -3.8612  -3.8523  -3.8512  -3.6784  -3.6776  -3.6230  -3.6221
    -3.1951  -3.1945  -3.1217  -3.1211  -2.7762  -2.7753  -2.7007  -2.6999
    -2.2819  -2.2811  -2.2514  -2.2507  -2.0419  -2.0413  -2.0215  -2.0208
    -1.8795  -1.8785  -1.8574  -1.8563  -1.6483  -1.6472  -1.6465  -1.6453
    -1.4373  -1.4367  -1.3811  -1.3805  -1.3177  -1.3169  -1.2365  -1.2357
    -1.0390  -1.0387  -1.0080  -1.0077  -0.6621  -0.6611  -0.6136  -0.6128
    -0.0935  -0.0923  -0.0537  -0.0525   0.3781   0.3783   0.4068   0.4072
     0.5128   0.5141   0.5484   0.5495   4.8270   4.8285   4.8488   4.8502
     5.5899   5.5911   5.6192   5.6204   6.9222   6.9229   7.0532   7.0537
     7.3527   7.3531   7.5155   7.5161   7.7383   7.7389   7.8017   7.8022
     8.1734   8.1741   8.1816   8.1820   8.5102   8.5110   8.5258   8.5261

     highest occupied, lowest unoccupied level (ev):     0.5526    4.8085

!    total energy              =   -1294.29743211 Ry
     Harris-Foulkes estimate   =   -1294.29743211 Ry
     estimated scf accuracy    <          1.9E-09 Ry

     total all-electron energy =     -4911.023990 Ry

     The total energy is the sum of the following terms:

     one-electron contribution =    -728.30643954 Ry
     hartree contribution      =     473.46328351 Ry
     xc contribution           =    -289.21939722 Ry
     ewald contribution        =    -369.49858623 Ry
     Dispersion Correction     =      -0.47478306 Ry
     one-center paw contrib.   =    -380.26150958 Ry

     convergence has been achieved in  20 iterations

     Forces acting on atoms (cartesian axes, Ry/au):

     atom    1 type  4   force =     0.00247374   -0.00178801   -0.00103919
     atom    2 type  4   force =    -0.00242968    0.00180152   -0.00104388
     atom    3 type  4   force =    -0.00242968   -0.00180152    0.00104388
     atom    4 type  4   force =     0.00247374    0.00178801    0.00103919
     atom    5 type  4   force =    -0.00068118    0.00028148   -0.00150331
     atom    6 type  4   force =     0.00069345   -0.00015522   -0.00189484
     atom    7 type  4   force =     0.00069345    0.00015522    0.00189484
     atom    8 type  4   force =    -0.00068118   -0.00028148    0.00150331
     atom    9 type  4   force =    -0.00013844   -0.00039330   -0.00056348
     atom   10 type  4   force =     0.00008810    0.00035443   -0.00061019
     atom   11 type  4   force =     0.00008810   -0.00035443    0.00061019
     atom   12 type  4   force =    -0.00013844    0.00039330    0.00056348
     atom   13 type  3   force =    -0.00105647    0.00009753   -0.00057500
     atom   14 type  3   force =     0.00107350   -0.00009099   -0.00056415
     atom   15 type  3   force =     0.00107350    0.00009099    0.00056415
     atom   16 type  3   force =    -0.00105647   -0.00009753    0.00057500
     atom   17 type  1   force =     0.00170347   -0.00011550   -0.00096185
     atom   18 type  1   force =    -0.00171122    0.00010650   -0.00076008
     atom   19 type  1   force =    -0.00171122   -0.00010650    0.00076008
     atom   20 type  1   force =     0.00170347    0.00011550    0.00096185
     atom   21 type  3   force =    -0.00216289    0.00133153    0.00082614
     atom   22 type  3   force =     0.00214818   -0.00132322    0.00081230
     atom   23 type  3   force =     0.00214818    0.00132322   -0.00081230
     atom   24 type  3   force =    -0.00216289   -0.00133153   -0.00082614
     atom   25 type  1   force =     0.00082260    0.00300208    0.00149462
     atom   26 type  1   force =    -0.00085803   -0.00291802    0.00138296
     atom   27 type  1   force =    -0.00085803    0.00291802   -0.00138296
     atom   28 type  1   force =     0.00082260   -0.00300208   -0.00149462
     atom   29 type  3   force =     0.00062233    0.00020210    0.00085156
     atom   30 type  3   force =    -0.00062485   -0.00023071    0.00086271
     atom   31 type  3   force =    -0.00062485    0.00023071   -0.00086271
     atom   32 type  3   force =     0.00062233   -0.00020210   -0.00085156
     atom   33 type  1   force =    -0.00601394    0.00233565   -0.00661566
     atom   34 type  1   force =     0.00599898   -0.00228415   -0.00666872
     atom   35 type  1   force =     0.00599898    0.00228415    0.00666872
     atom   36 type  1   force =    -0.00601394   -0.00233565    0.00661566
     atom   37 type  3   force =     0.00212369    0.00079602    0.00015953
     atom   38 type  3   force =    -0.00212762   -0.00079501    0.00014768
     atom   39 type  3   force =    -0.00212762    0.00079501   -0.00014768
     atom   40 type  3   force =     0.00212369   -0.00079602   -0.00015953
     atom   41 type  1   force =     0.00412432    0.00261382    0.00176990
     atom   42 type  1   force =    -0.00412131   -0.00275459    0.00232763
     atom   43 type  1   force =    -0.00412131    0.00275459   -0.00232763
     atom   44 type  1   force =     0.00412432   -0.00261382   -0.00176990
     atom   45 type  1   force =     0.00164857   -0.00214163   -0.00064673
     atom   46 type  1   force =    -0.00166876    0.00215280   -0.00073706
     atom   47 type  1   force =    -0.00166876   -0.00215280    0.00073706
     atom   48 type  1   force =     0.00164857    0.00214163    0.00064673
     atom   49 type  3   force =    -0.00065097    0.00028449    0.00188256
     atom   50 type  3   force =     0.00066456   -0.00027722    0.00188133
     atom   51 type  3   force =     0.00066456    0.00027722   -0.00188133
     atom   52 type  3   force =    -0.00065097   -0.00028449   -0.00188256
     atom   53 type  3   force =    -0.00118927   -0.00008028    0.00052500
     atom   54 type  3   force =     0.00118229    0.00007183    0.00053601
     atom   55 type  3   force =     0.00118229   -0.00007183   -0.00053601
     atom   56 type  3   force =    -0.00118927    0.00008028   -0.00052500
     atom   57 type  1   force =     0.00194240   -0.00052499    0.00158022
     atom   58 type  1   force =    -0.00193687    0.00051582    0.00149723
     atom   59 type  1   force =    -0.00193687   -0.00051582   -0.00149723
     atom   60 type  1   force =     0.00194240    0.00052499   -0.00158022
     atom   61 type  1   force =    -0.00261986   -0.00135125    0.00127828
     atom   62 type  1   force =     0.00259561    0.00138457    0.00110423
     atom   63 type  1   force =     0.00259561   -0.00138457   -0.00110423
     atom   64 type  1   force =    -0.00261986    0.00135125   -0.00127828
     atom   65 type  3   force =     0.00325467    0.00103823    0.00108616
     atom   66 type  3   force =    -0.00324431   -0.00100810    0.00102780
     atom   67 type  3   force =    -0.00324431    0.00100810   -0.00102780
     atom   68 type  3   force =     0.00325467   -0.00103823   -0.00108616
     atom   69 type  1   force =     0.00230063   -0.00926592    0.00035839
     atom   70 type  1   force =    -0.00189231    0.00866976    0.00065884
     atom   71 type  1   force =    -0.00189231   -0.00866976   -0.00065884
     atom   72 type  1   force =     0.00230063    0.00926592   -0.00035839
     atom   73 type  1   force =    -0.00070014    0.00095137   -0.00185825
     atom   74 type  1   force =     0.00070170   -0.00095470   -0.00185811
     atom   75 type  1   force =     0.00070170    0.00095470    0.00185811
     atom   76 type  1   force =    -0.00070014   -0.00095137    0.00185825
     atom   77 type  3   force =    -0.00001270   -0.00043710    0.00007817
     atom   78 type  3   force =     0.00002593    0.00042436    0.00008455
     atom   79 type  3   force =     0.00002593   -0.00042436   -0.00008455
     atom   80 type  3   force =    -0.00001270    0.00043710   -0.00007817
     atom   81 type  3   force =     0.00078251    0.00046708    0.00003567
     atom   82 type  3   force =    -0.00078536   -0.00047318    0.00003963
     atom   83 type  3   force =    -0.00078536    0.00047318   -0.00003963
     atom   84 type  3   force =     0.00078251   -0.00046708   -0.00003567
     atom   85 type  3   force =     0.00008062    0.00032360    0.00031719
     atom   86 type  3   force =    -0.00008641   -0.00031705    0.00034186
     atom   87 type  3   force =    -0.00008641    0.00031705   -0.00034186
     atom   88 type  3   force =     0.00008062   -0.00032360   -0.00031719
     atom   89 type  1   force =    -0.00724412    0.00218301   -0.00048571
     atom   90 type  1   force =     0.00682116   -0.00161522   -0.00058259
     atom   91 type  1   force =     0.00682116    0.00161522    0.00058259
     atom   92 type  1   force =    -0.00724412   -0.00218301    0.00048571
     atom   93 type  3   force =     0.00101366    0.00099796    0.00106742
     atom   94 type  3   force =    -0.00095370   -0.00108384    0.00096342
     atom   95 type  3   force =    -0.00095370    0.00108384   -0.00096342
     atom   96 type  3   force =     0.00101366   -0.00099796   -0.00106742
     atom   97 type  3   force =    -0.00005779    0.00071340    0.00027076
     atom   98 type  3   force =     0.00008155   -0.00076398    0.00032399
     atom   99 type  3   force =     0.00008155    0.00076398   -0.00032399
     atom  100 type  3   force =    -0.00005779   -0.00071340   -0.00027076

     Total force =     0.037403     Total SCF correction =     0.000091


     Computing stress (Cartesian axis) and pressure

          total   stress  (Ry/bohr**3)                   (kbar)     P=   -3.02
  -0.00001952   0.00000000   0.00000000         -2.87      0.00      0.00
   0.00000000  -0.00002643  -0.00000008          0.00     -3.89     -0.01
   0.00000000  -0.00000008  -0.00001570          0.00     -0.01     -2.31


     Writing output data file scf.save
 
     init_run     :     32.97s CPU     34.52s WALL (       1 calls)
     electrons    :   1401.53s CPU   1463.53s WALL (       1 calls)
     forces       :     14.96s CPU     15.16s WALL (       1 calls)
     stress       :    100.84s CPU    101.14s WALL (       1 calls)

     Called by init_run:
     wfcinit      :     26.77s CPU     28.18s WALL (       1 calls)
     potinit      :      2.26s CPU      2.29s WALL (       1 calls)

     Called by electrons:
     c_bands      :   1250.96s CPU   1304.45s WALL (      20 calls)
     sum_band     :    133.48s CPU    140.53s WALL (      20 calls)
     v_of_rho     :      2.58s CPU      2.72s WALL (      21 calls)
     newd         :      4.77s CPU      6.06s WALL (      21 calls)
     PAW_pot      :      8.68s CPU      8.68s WALL (      21 calls)
     mix_rho      :      0.69s CPU      0.73s WALL (      20 calls)

     Called by c_bands:
     init_us_2    :     10.28s CPU     10.30s WALL (     344 calls)
     cegterg      :   1212.88s CPU   1266.24s WALL (     160 calls)

     Called by sum_band:
     sum_band:bec :      0.10s CPU      0.10s WALL (     160 calls)
     addusdens    :      5.22s CPU      6.50s WALL (      20 calls)

     Called by *egterg:
     h_psi        :    720.32s CPU    760.75s WALL (     693 calls)
     s_psi        :    120.87s CPU    120.87s WALL (     693 calls)
     g_psi        :      5.50s CPU      5.49s WALL (     525 calls)
     cdiaghg      :     61.57s CPU     61.59s WALL (     685 calls)

     Called by h_psi:
     h_psi:pot    :    714.42s CPU    754.77s WALL (     693 calls)
     h_psi:calbec :    119.64s CPU    120.07s WALL (     693 calls)
     vloc_psi     :    474.01s CPU    513.92s WALL (     693 calls)
     add_vuspsi   :    120.77s CPU    120.78s WALL (     693 calls)

     General routines
     calbec       :    170.18s CPU    170.74s WALL (     893 calls)
     fft          :      2.42s CPU      2.66s WALL (     297 calls)
     fftw         :    505.23s CPU    546.91s WALL (  189938 calls)
 
     Parallel routines
     fft_scatter  :    102.57s CPU    135.06s WALL (  190235 calls)
 
     PWSCF        : 25m59.91s CPU    27m44.56s WALL

 
   This run was terminated on:   8:33:41  13Dec2017            

=------------------------------------------------------------------------------=
   JOB DONE.
=------------------------------------------------------------------------------=
