
     Program PWSCF v.6.1 (svn rev. 13369) starts on  4Nov2017 at  4:41:30 

     This program is part of the open-source Quantum ESPRESSO suite
     for quantum simulation of materials; please cite
         "P. Giannozzi et al., J. Phys.:Condens. Matter 21 395502 (2009);
          URL http://www.quantum-espresso.org", 
     in publications or presentations arising from this work. More details at
     http://www.quantum-espresso.org/quote

     Parallel version (MPI), running on     8 processors
     R & G space division:  proc/nbgrp/npool/nimage =       8
     Waiting for input...
     Reading input from standard input

     Current dimensions of program PWSCF are:
     Max number of different atomic species (ntypx) = 10
     Max number of k-points (npk) =  40000
     Max angular momentum in pseudopotentials (lmaxx) =  3
               file C.pbe-n-kjpaw_psl.0.1.UPF: wavefunction(s)  2P renormalized
               file N.pbe-n-kjpaw_psl.0.1.UPF: wavefunction(s)  2P renormalized
               file H.pbe-kjpaw_psl.0.1.UPF: wavefunction(s)  1S renormalized
               file O.pbe-n-kjpaw_psl.0.1.UPF: wavefunction(s)  2P renormalized

     -------------------------------------
     Parameters for Dispersion Correction:
     -------------------------------------
       atom      VdW radius       C_6     

        C          2.744         60.710
        N          2.640         42.670
        H          1.892          4.857
        O          2.536         24.284

     Subspace diagonalization in iterative solution of the eigenvalue problem:
     a serial algorithm will be used

 
     Parallelization info
     --------------------
     sticks:   dense  smooth     PW     G-vecs:    dense   smooth      PW
     Min         775     775    207                61399    61399    8475
     Max         776     776    208                61404    61404    8476
     Sum        6207    6207   1661               491221   491221   67803
 


     bravais-lattice index     =            0
     lattice parameter (alat)  =      17.9543  a.u.
     unit-cell volume          =    3635.7274 (a.u.)^3
     number of atoms/cell      =           68
     number of atomic types    =            4
     number of electrons       =       160.00
     number of Kohn-Sham states=           96
     kinetic-energy cutoff     =     100.0000  Ry
     charge density cutoff     =     400.0000  Ry
     convergence threshold     =      1.0E-08
     mixing beta               =       0.5000
     number of iterations used =            8  plain     mixing
     Exchange-correlation      =  SLA  PW   PBX  PBC ( 1  4  3  4 0 0)

     celldm(1)=  17.954288  celldm(2)=   0.000000  celldm(3)=   0.000000
     celldm(4)=   0.000000  celldm(5)=   0.000000  celldm(6)=   0.000000

     crystal axes: (cart. coord. in units of alat)
               a(1) = (   1.000000   0.000000   0.000000 )  
               a(2) = (   0.000000   0.604726   0.000000 )  
               a(3) = (  -0.249392   0.000000   1.038791 )  

     reciprocal axes: (cart. coord. in units 2 pi/alat)
               b(1) = (  1.000000  0.000000  0.240079 )  
               b(2) = (  0.000000  1.653642  0.000000 )  
               b(3) = (  0.000000  0.000000  0.962657 )  


     PseudoPot. # 1 for  C read from file:
     /scratch/ahofstet/pseudo/C.pbe-n-kjpaw_psl.0.1.UPF
     MD5 check sum: 430fe95172b1e11ef3f8ed03bac87931
     Pseudo is Projector augmented-wave + core cor, Zval =  4.0
     Generated using "atomic" code by A. Dal Corso  v.5.0.99 svn rev. 10869
     Shape of augmentation charge: BESSEL
     Using radial grid of 1073 points,  4 beta functions with: 
                l(1) =   0
                l(2) =   0
                l(3) =   1
                l(4) =   1
     Q(r) pseudized with 0 coefficients 


     PseudoPot. # 2 for  N read from file:
     /scratch/ahofstet/pseudo/N.pbe-n-kjpaw_psl.0.1.UPF
     MD5 check sum: f73187c8b701007e77325f868c9291d7
     Pseudo is Projector augmented-wave + core cor, Zval =  5.0
     Generated using "atomic" code by A. Dal Corso  v.5.0.99 svn rev. 10869
     Shape of augmentation charge: PSQ
     Using radial grid of 1085 points,  4 beta functions with: 
                l(1) =   0
                l(2) =   0
                l(3) =   1
                l(4) =   1
     Q(r) pseudized with 0 coefficients 


     PseudoPot. # 3 for  H read from file:
     /scratch/ahofstet/pseudo/H.pbe-kjpaw_psl.0.1.UPF
     MD5 check sum: 94e484f906d9e9773b2f6e52662335b2
     Pseudo is Projector augmented-wave, Zval =  1.0
     Generated using "atomic" code by A. Dal Corso  v.5.0.99 svn rev. 10869
     Shape of augmentation charge: PSQ
     Using radial grid of  929 points,  2 beta functions with: 
                l(1) =   0
                l(2) =   0
     Q(r) pseudized with 0 coefficients 


     PseudoPot. # 4 for  O read from file:
     /scratch/ahofstet/pseudo/O.pbe-n-kjpaw_psl.0.1.UPF
     MD5 check sum: 3f94a2996a3169367d6eb21d9b593f20
     Pseudo is Projector augmented-wave + core cor, Zval =  6.0
     Generated using "atomic" code by A. Dal Corso  v.5.0.99 svn rev. 10869
     Shape of augmentation charge: BESSEL
     Using radial grid of 1095 points,  4 beta functions with: 
                l(1) =   0
                l(2) =   0
                l(3) =   1
                l(4) =   1
     Q(r) pseudized with 0 coefficients 


     atomic species   valence    mass     pseudopotential
        C              4.00    12.01070      C( 1.00)
        N              5.00    14.00670      N( 1.00)
        H              1.00     1.00794      H( 1.00)
        O              6.00    15.99940      O( 1.00)

     No symmetry found
          (note:  1 additional sym.ops. were found but ignored
           their fractional translations are incommensurate with FFT grid)


   Cartesian axes

     site n.     atom                  positions (alat units)
         1           C   tau(   1) = (   0.0918257   0.4527862   0.8053919  )
         2           C   tau(   2) = (   0.2165236   0.1519372   0.2859915  )
         3           C   tau(   3) = (   0.5918275   0.1504234   0.8053891  )
         4           C   tau(   4) = (   0.7165218   0.4543018   0.2859950  )
         5           H   tau(   5) = (   0.0666940   0.4150679   0.9110252  )
         6           H   tau(   6) = (   0.1913894   0.1896582   0.3916313  )
         7           H   tau(   7) = (   0.5666933   0.1127056   0.9110258  )
         8           H   tau(   8) = (   0.6913896   0.4920208   0.3916299  )
         9           C   tau(   9) = (   0.0908670   0.3482892   0.6855091  )
        10           C   tau(  10) = (   0.2155638   0.2564368   0.1661143  )
        11           C   tau(  11) = (   0.5908691   0.0459263   0.6855104  )
        12           C   tau(  12) = (   0.7155623   0.5587985   0.1661143  )
        13           H   tau(  13) = (   0.1852258   0.2810214   0.6801100  )
        14           H   tau(  14) = (   0.3099216   0.3237039   0.1607144  )
        15           H   tau(  15) = (   0.6852249   0.5833853   0.6801105  )
        16           H   tau(  16) = (   0.8099220   0.0213416   0.1607142  )
        17           H   tau(  17) = (  -0.0006316   0.2771231   0.6990709  )
        18           H   tau(  18) = (   0.1240645   0.3276025   0.1796745  )
        19           H   tau(  19) = (   0.4993680   0.5794862   0.6990701  )
        20           H   tau(  20) = (   0.6240642   0.0252398   0.1796749  )
        21           N   tau(  21) = (   0.0796533   0.4348883   0.5561826  )
        22           N   tau(  22) = (   0.2043482   0.1698384   0.0367849  )
        23           N   tau(  23) = (   0.5796499   0.1325224   0.5561774  )
        24           N   tau(  24) = (   0.7043473   0.4722028   0.0367829  )
        25           H   tau(  25) = (   0.0240049   0.3766663   0.4833059  )
        26           H   tau(  26) = (  -0.1006893   0.2280585   1.0027021  )
        27           H   tau(  27) = (   0.5240081   0.0743060   0.4833084  )
        28           H   tau(  28) = (   0.3993111   0.5304204   1.0027036  )
        29           C   tau(  29) = (  -0.0055677   0.5608185   0.5930480  )
        30           C   tau(  30) = (   0.1191283   0.0439060   0.0736517  )
        31           C   tau(  31) = (   0.4944333   0.2584581   0.5930473  )
        32           C   tau(  32) = (   0.6191281   0.3462697   0.0736537  )
        33           H   tau(  33) = (  -0.1195383   0.5430377   0.5772891  )
        34           H   tau(  34) = (   0.0051581   0.0616883   0.0578931  )
        35           H   tau(  35) = (   0.3804618   0.2406747   0.5772888  )
        36           H   tau(  36) = (   0.5051575   0.3640509   0.0578929  )
        37           H   tau(  37) = (   0.0255950   0.0450105   0.5249155  )
        38           H   tau(  38) = (   0.1502913   0.5597154   0.0055197  )
        39           H   tau(  39) = (   0.5255954   0.3473732   0.5249155  )
        40           H   tau(  40) = (   0.6502912   0.2573520   0.0055194  )
        41           C   tau(  41) = (   0.0247828   0.5874241   0.7476505  )
        42           C   tau(  42) = (   0.1494803   0.0173028   0.2282558  )
        43           C   tau(  43) = (   0.5247809   0.2850625   0.7476530  )
        44           C   tau(  44) = (   0.6494800   0.3196658   0.2282535  )
        45           H   tau(  45) = (  -0.0486288   0.0445271   0.8104682  )
        46           H   tau(  46) = (   0.0760669   0.5601982   0.2910722  )
        47           H   tau(  47) = (   0.4513721   0.3468898   0.8104668  )
        48           H   tau(  48) = (   0.5760660   0.2578349   0.2910730  )
        49           C   tau(  49) = (   0.1778388   0.5853413   0.7913606  )
        50           C   tau(  50) = (   0.3025309   0.0193843   0.2719709  )
        51           C   tau(  51) = (   0.6778371   0.2829802   0.7913679  )
        52           C   tau(  52) = (   0.8025333   0.3217469   0.2719674  )
        53           H   tau(  53) = (   0.2557349   0.5881979   0.7065471  )
        54           H   tau(  54) = (   0.3804335   0.0165277   0.1871487  )
        55           H   tau(  55) = (   0.7557377   0.2858350   0.7065443  )
        56           H   tau(  56) = (   0.8804316   0.3188907   0.1871502  )
        57           N   tau(  57) = (   0.2253687   0.0511860   0.9184954  )
        58           N   tau(  58) = (   0.3500645   0.5535436   0.3990972  )
        59           N   tau(  59) = (   0.7253677   0.3535424   0.9184920  )
        60           N   tau(  60) = (   0.8500615   0.2511801   0.3991002  )
        61           H   tau(  61) = (   0.1397891   0.0828324   0.9782871  )
        62           H   tau(  62) = (   0.2644838   0.5218929   0.4588923  )
        63           H   tau(  63) = (   0.6397875   0.3851964   0.9782885  )
        64           H   tau(  64) = (   0.7644856   0.2195308   0.4588910  )
        65           H   tau(  65) = (   0.2740719   0.1428355   0.8898440  )
        66           H   tau(  66) = (   0.3987689   0.4618875   0.3704481  )
        67           H   tau(  67) = (   0.7740734   0.4452026   0.8898435  )
        68           H   tau(  68) = (   0.8987692   0.1595243   0.3704474  )

     number of k points=     8
                       cart. coord. in units 2pi/alat
        k(    1) = (   0.0000000   0.0000000   0.0000000), wk =   0.1666667
        k(    2) = (   0.0000000   0.0000000  -0.4813287), wk =   0.1666667
        k(    3) = (   0.0000000   0.5512140   0.0000000), wk =   0.3333333
        k(    4) = (   0.0000000   0.5512140  -0.4813287), wk =   0.3333333
        k(    5) = (  -0.5000000   0.0000000  -0.1200394), wk =   0.1666667
        k(    6) = (  -0.5000000   0.0000000  -0.6013681), wk =   0.1666667
        k(    7) = (  -0.5000000   0.5512140  -0.1200394), wk =   0.3333333
        k(    8) = (  -0.5000000   0.5512140  -0.6013681), wk =   0.3333333

     Dense  grid:   491221 G-vectors     FFT dimensions: ( 120,  72, 125)

     Estimated max dynamical RAM per process >     268.54MB

     Estimated total allocated dynamical RAM >    2148.33MB

     Check: negative/imaginary core charge=   -0.000002    0.000000

     Initial potential from superposition of free atoms

     starting charge  159.99873, renormalised to  160.00000
     Starting wfc are  152 randomized atomic wfcs
     Checking if some PAW data can be deallocated... 

     total cpu time spent up to now is       16.1 secs

     per-process dynamical memory:   206.1 Mb

     Self-consistent Calculation

     iteration #  1     ecut=   100.00 Ry     beta=0.50
     Davidson diagonalization with overlap
     ethr =  1.00E-02,  avg # of iterations =  4.0

     total cpu time spent up to now is       48.2 secs

     total energy              =    -640.66632886 Ry
     Harris-Foulkes estimate   =    -644.28780875 Ry
     estimated scf accuracy    <       6.98806664 Ry

     iteration #  2     ecut=   100.00 Ry     beta=0.50
     Davidson diagonalization with overlap
     ethr =  4.37E-03,  avg # of iterations =  3.0

     total cpu time spent up to now is       66.4 secs

     total energy              =    -641.40652223 Ry
     Harris-Foulkes estimate   =    -641.63274033 Ry
     estimated scf accuracy    <       0.59022075 Ry

     iteration #  3     ecut=   100.00 Ry     beta=0.50
     Davidson diagonalization with overlap
     ethr =  3.69E-04,  avg # of iterations =  5.0

     total cpu time spent up to now is      101.6 secs

     total energy              =    -641.86232473 Ry
     Harris-Foulkes estimate   =    -642.07974256 Ry
     estimated scf accuracy    <       0.55998390 Ry

     iteration #  4     ecut=   100.00 Ry     beta=0.50
     Davidson diagonalization with overlap
     ethr =  3.50E-04,  avg # of iterations =  4.1

     total cpu time spent up to now is      118.6 secs

     total energy              =    -641.78291409 Ry
     Harris-Foulkes estimate   =    -641.89015606 Ry
     estimated scf accuracy    <       0.16530816 Ry

     iteration #  5     ecut=   100.00 Ry     beta=0.50
     Davidson diagonalization with overlap
     ethr =  1.03E-04,  avg # of iterations =  4.5

     total cpu time spent up to now is      153.2 secs

     total energy              =    -641.85367316 Ry
     Harris-Foulkes estimate   =    -642.03798702 Ry
     estimated scf accuracy    <       0.40528071 Ry

     iteration #  6     ecut=   100.00 Ry     beta=0.50
     Davidson diagonalization with overlap
     ethr =  1.03E-04,  avg # of iterations =  3.6

     total cpu time spent up to now is      171.9 secs

     total energy              =    -641.86329714 Ry
     Harris-Foulkes estimate   =    -641.89085982 Ry
     estimated scf accuracy    <       0.04749625 Ry

     iteration #  7     ecut=   100.00 Ry     beta=0.50
     Davidson diagonalization with overlap
     ethr =  2.97E-05,  avg # of iterations =  5.0

     total cpu time spent up to now is      205.8 secs

     total energy              =    -641.90930034 Ry
     Harris-Foulkes estimate   =    -641.91990130 Ry
     estimated scf accuracy    <       0.03178009 Ry

     iteration #  8     ecut=   100.00 Ry     beta=0.50
     Davidson diagonalization with overlap
     ethr =  1.99E-05,  avg # of iterations =  2.9

     total cpu time spent up to now is      222.2 secs

     total energy              =    -641.90351689 Ry
     Harris-Foulkes estimate   =    -641.91023725 Ry
     estimated scf accuracy    <       0.01228238 Ry

     iteration #  9     ecut=   100.00 Ry     beta=0.50
     Davidson diagonalization with overlap
     ethr =  7.68E-06,  avg # of iterations =  7.2

     total cpu time spent up to now is      253.5 secs

     total energy              =    -641.90995546 Ry
     Harris-Foulkes estimate   =    -641.91105039 Ry
     estimated scf accuracy    <       0.00314470 Ry

     iteration # 10     ecut=   100.00 Ry     beta=0.50
     Davidson diagonalization with overlap
     ethr =  1.97E-06,  avg # of iterations =  1.1

     total cpu time spent up to now is      268.9 secs

     total energy              =    -641.90943007 Ry
     Harris-Foulkes estimate   =    -641.91006729 Ry
     estimated scf accuracy    <       0.00117968 Ry

     iteration # 11     ecut=   100.00 Ry     beta=0.50
     Davidson diagonalization with overlap
     ethr =  7.37E-07,  avg # of iterations =  4.2

     total cpu time spent up to now is      295.6 secs

     total energy              =    -641.91014487 Ry
     Harris-Foulkes estimate   =    -641.91019637 Ry
     estimated scf accuracy    <       0.00029600 Ry

     iteration # 12     ecut=   100.00 Ry     beta=0.50
     Davidson diagonalization with overlap
     ethr =  1.85E-07,  avg # of iterations =  1.0

     total cpu time spent up to now is      311.0 secs

     total energy              =    -641.91006089 Ry
     Harris-Foulkes estimate   =    -641.91014990 Ry
     estimated scf accuracy    <       0.00019640 Ry

     iteration # 13     ecut=   100.00 Ry     beta=0.50
     Davidson diagonalization with overlap
     ethr =  1.23E-07,  avg # of iterations =  4.2

     total cpu time spent up to now is      332.2 secs

     total energy              =    -641.91010436 Ry
     Harris-Foulkes estimate   =    -641.91010451 Ry
     estimated scf accuracy    <       0.00000139 Ry

     iteration # 14     ecut=   100.00 Ry     beta=0.50
     Davidson diagonalization with overlap
     ethr =  8.71E-10,  avg # of iterations =  5.0

     total cpu time spent up to now is      368.0 secs

     total energy              =    -641.91010874 Ry
     Harris-Foulkes estimate   =    -641.91010866 Ry
     estimated scf accuracy    <       0.00000018 Ry

     iteration # 15     ecut=   100.00 Ry     beta=0.50
     Davidson diagonalization with overlap
     ethr =  1.10E-10,  avg # of iterations =  4.0

     total cpu time spent up to now is      395.0 secs

     total energy              =    -641.91010844 Ry
     Harris-Foulkes estimate   =    -641.91010885 Ry
     estimated scf accuracy    <       0.00000078 Ry

     iteration # 16     ecut=   100.00 Ry     beta=0.50
     Davidson diagonalization with overlap
     ethr =  1.10E-10,  avg # of iterations =  4.0

     total cpu time spent up to now is      425.5 secs

     total energy              =    -641.91010862 Ry
     Harris-Foulkes estimate   =    -641.91010863 Ry
     estimated scf accuracy    <       0.00000003 Ry

     iteration # 17     ecut=   100.00 Ry     beta=0.50
     Davidson diagonalization with overlap
     ethr =  2.16E-11,  avg # of iterations =  1.1

     total cpu time spent up to now is      440.9 secs

     total energy              =    -641.91010863 Ry
     Harris-Foulkes estimate   =    -641.91010862 Ry
     estimated scf accuracy    <       0.00000002 Ry

     iteration # 18     ecut=   100.00 Ry     beta=0.50
     Davidson diagonalization with overlap
     ethr =  1.39E-11,  avg # of iterations =  1.0

     total cpu time spent up to now is      456.3 secs

     total energy              =    -641.91010862 Ry
     Harris-Foulkes estimate   =    -641.91010863 Ry
     estimated scf accuracy    <       0.00000003 Ry

     iteration # 19     ecut=   100.00 Ry     beta=0.50
     Davidson diagonalization with overlap
     ethr =  1.39E-11,  avg # of iterations =  1.0

     total cpu time spent up to now is      471.6 secs

     total energy              =    -641.91010862 Ry
     Harris-Foulkes estimate   =    -641.91010862 Ry
     estimated scf accuracy    <       0.00000002 Ry

     iteration # 20     ecut=   100.00 Ry     beta=0.50
     Davidson diagonalization with overlap
     ethr =  1.14E-11,  avg # of iterations =  1.4

     total cpu time spent up to now is      487.2 secs

     total energy              =    -641.91010862 Ry
     Harris-Foulkes estimate   =    -641.91010862 Ry
     estimated scf accuracy    <       0.00000001 Ry

     iteration # 21     ecut=   100.00 Ry     beta=0.50
     Davidson diagonalization with overlap
     ethr =  6.28E-12,  avg # of iterations =  4.0

     total cpu time spent up to now is      505.9 secs

     End of self-consistent calculation

          k = 0.0000 0.0000 0.0000 ( 61443 PWs)   bands (ev):

   -17.1544 -17.0582 -17.0320 -17.0054 -15.9871 -15.8700 -15.8461 -15.7215
   -13.9088 -13.8979 -13.8304 -13.7507 -11.6832 -11.6184 -11.5629 -11.5557
    -9.6152  -9.5638  -9.5014  -9.4013  -8.0676  -8.0505  -7.9320  -7.8206
    -7.8058  -7.7095  -7.5658  -7.5550  -7.0012  -6.9224  -6.7340  -6.5778
    -5.7387  -5.6362  -5.5918  -5.3743  -5.2555  -5.1380  -5.0930  -4.9414
    -4.5924  -4.5223  -4.5169  -4.4335  -4.2929  -4.2832  -4.0964  -4.0254
    -3.7768  -3.7128  -3.4515  -3.4355  -3.2598  -3.1716  -3.0923  -2.9513
    -2.8275  -2.6403  -2.6243  -2.5862  -2.4882  -2.3894  -2.3749  -2.2473
    -1.8008  -1.7740  -1.6907  -1.5721  -0.6592  -0.4954  -0.4556  -0.4478
     0.5619   0.6010   0.6983   0.7813   0.9823   1.0628   1.2609   1.3274
     6.0181   6.0583   6.4617   6.7200   6.8789   7.0898   7.2673   7.4513
     7.5624   7.5667   7.8280   7.9321   7.9764   8.2336   8.3785   8.3967

          k = 0.0000 0.0000-0.4813 ( 61416 PWs)   bands (ev):

   -17.0866 -17.0865 -17.0453 -17.0452 -15.8580 -15.8580 -15.8503 -15.8503
   -13.8699 -13.8697 -13.8220 -13.8218 -11.6513 -11.6513 -11.5594 -11.5594
    -9.5321  -9.5320  -9.5117  -9.5116  -7.9982  -7.9981  -7.9530  -7.9530
    -7.6758  -7.6757  -7.6335  -7.6334  -6.8421  -6.8421  -6.8070  -6.8069
    -5.6712  -5.6711  -5.5003  -5.5002  -5.0879  -5.0878  -5.0238  -5.0238
    -4.6197  -4.6197  -4.5015  -4.5015  -4.2925  -4.2925  -4.0607  -4.0607
    -3.5989  -3.5988  -3.5936  -3.5936  -3.1689  -3.1688  -3.0327  -3.0326
    -2.6794  -2.6793  -2.5969  -2.5969  -2.4249  -2.4249  -2.3741  -2.3740
    -1.7921  -1.7921  -1.6486  -1.6486  -0.5625  -0.5625  -0.4687  -0.4687
     0.5627   0.5628   0.7419   0.7419   1.0369   1.0370   1.3054   1.3054
     6.2017   6.2017   6.2538   6.2539   7.2207   7.2208   7.2919   7.2919
     7.5992   7.5993   7.8283   7.8284   8.2880   8.2880   8.3560   8.3560

          k = 0.0000 0.5512 0.0000 ( 61416 PWs)   bands (ev):

   -17.1119 -17.0625 -17.0109 -16.9972 -15.9685 -15.9166 -15.8144 -15.7580
   -13.9188 -13.9133 -13.8163 -13.7764 -11.7439 -11.6979 -11.6829 -11.6728
    -9.5432  -9.5231  -9.4161  -9.4090  -8.0465  -8.0413  -7.8686  -7.7858
    -7.6971  -7.6147  -7.5823  -7.5127  -6.8506  -6.8199  -6.6310  -6.6102
    -5.7535  -5.6421  -5.6076  -5.5127  -5.2019  -5.0723  -4.8890  -4.8166
    -4.7835  -4.7747  -4.5574  -4.5449  -4.1893  -4.1536  -4.1068  -4.0897
    -3.7498  -3.7279  -3.4862  -3.4596  -3.1628  -3.1468  -3.1026  -2.9690
    -2.7873  -2.7153  -2.6970  -2.6478  -2.5339  -2.5129  -2.4339  -2.3205
    -1.7805  -1.7036  -1.6888  -1.5837  -0.5809  -0.5292  -0.3872  -0.3655
     0.5869   0.6344   0.6474   0.7162   1.0216   1.0863   1.1326   1.2845
     6.2301   6.2650   6.5581   6.6612   6.7472   7.0428   7.1180   7.1682
     7.2253   7.3550   7.5058   7.5133   7.7400   7.9245   7.9872   8.1884

          k = 0.0000 0.5512-0.4813 ( 61370 PWs)   bands (ev):

   -17.0587 -17.0586 -17.0376 -17.0375 -15.8653 -15.8653 -15.8612 -15.8612
   -13.8676 -13.8674 -13.8431 -13.8428 -11.7195 -11.7195 -11.6784 -11.6784
    -9.4732  -9.4731  -9.4705  -9.4704  -7.9866  -7.9866  -7.9476  -7.9475
    -7.5865  -7.5864  -7.5692  -7.5691  -6.7651  -6.7651  -6.7077  -6.7077
    -5.6451  -5.6451  -5.5758  -5.5758  -4.9952  -4.9952  -4.9479  -4.9479
    -4.7176  -4.7176  -4.7140  -4.7140  -4.1291  -4.1290  -4.1058  -4.1057
    -3.6092  -3.6092  -3.5875  -3.5875  -3.1074  -3.1073  -3.0788  -3.0787
    -2.7843  -2.7843  -2.7208  -2.7207  -2.4208  -2.4208  -2.4075  -2.4075
    -1.7208  -1.7208  -1.6619  -1.6619  -0.4803  -0.4802  -0.4578  -0.4577
     0.5974   0.5975   0.6862   0.6862   1.0611   1.0611   1.2221   1.2221
     6.3600   6.3601   6.3911   6.3912   6.9936   6.9936   7.1176   7.1176
     7.3750   7.3751   7.4563   7.4563   7.8671   7.8672   7.9944   7.9944

          k =-0.5000 0.0000-0.1200 ( 61344 PWs)   bands (ev):

   -17.1086 -17.1086 -17.0195 -17.0194 -15.9178 -15.9176 -15.7944 -15.7943
   -13.8631 -13.8631 -13.8284 -13.8284 -11.6249 -11.6248 -11.5871 -11.5871
    -9.5935  -9.5934  -9.4496  -9.4495  -8.0404  -8.0403  -7.8701  -7.8700
    -7.7559  -7.7559  -7.5689  -7.5689  -6.9657  -6.9657  -6.6760  -6.6760
    -5.6337  -5.6337  -5.6086  -5.6086  -5.0957  -5.0956  -5.0430  -5.0430
    -4.5346  -4.5346  -4.5132  -4.5132  -4.2044  -4.2043  -4.1700  -4.1699
    -3.6884  -3.6884  -3.4661  -3.4661  -3.2365  -3.2364  -3.0257  -3.0256
    -2.6573  -2.6571  -2.6338  -2.6337  -2.4032  -2.4031  -2.3391  -2.3389
    -1.7463  -1.7462  -1.6995  -1.6994  -0.5642  -0.5642  -0.4453  -0.4452
     0.6408   0.6408   0.6487   0.6487   1.1513   1.1513   1.1932   1.1932
     5.9673   5.9674   6.6437   6.6438   6.9112   6.9113   7.3593   7.3594
     7.4988   7.4989   7.8784   7.8784   8.2173   8.2174   8.3774   8.3774

          k =-0.5000 0.0000-0.6014 ( 61472 PWs)   bands (ev):

   -17.0947 -17.0946 -17.0352 -17.0351 -15.9236 -15.9234 -15.7844 -15.7842
   -13.9026 -13.9026 -13.7916 -13.7915 -11.6213 -11.6213 -11.5912 -11.5911
    -9.5476  -9.5476  -9.4946  -9.4945  -8.0026  -8.0024  -7.9320  -7.9318
    -7.6974  -7.6974  -7.6185  -7.6185  -6.9115  -6.9114  -6.7490  -6.7490
    -5.5798  -5.5797  -5.5030  -5.5029  -5.2410  -5.2407  -5.0192  -5.0190
    -4.5767  -4.5766  -4.5468  -4.5467  -4.1843  -4.1842  -4.1477  -4.1476
    -3.6018  -3.6014  -3.5430  -3.5426  -3.1221  -3.1221  -3.0885  -3.0885
    -2.7039  -2.7039  -2.5989  -2.5989  -2.4373  -2.4373  -2.3182  -2.3181
    -1.7513  -1.7511  -1.6871  -1.6869  -0.5867  -0.5866  -0.4438  -0.4437
     0.6076   0.6077   0.6529   0.6530   1.1699   1.1699   1.2016   1.2017
     6.1250   6.1251   6.3230   6.3231   7.1533   7.1535   7.3395   7.3396
     7.5923   7.5924   7.8163   7.8163   8.1929   8.1929   8.2350   8.2352

          k =-0.5000 0.5512-0.1200 ( 61370 PWs)   bands (ev):

   -17.0835 -17.0834 -17.0097 -17.0096 -15.9237 -15.9236 -15.8052 -15.8051
   -13.8922 -13.8921 -13.8186 -13.8184 -11.7457 -11.7457 -11.6528 -11.6528
    -9.5213  -9.5212  -9.4247  -9.4246  -8.0425  -8.0424  -7.8278  -7.8277
    -7.6375  -7.6375  -7.5513  -7.5512  -6.8397  -6.8397  -6.6383  -6.6383
    -5.7841  -5.7841  -5.4986  -5.4986  -5.0184  -5.0184  -4.9514  -4.9513
    -4.7352  -4.7351  -4.6286  -4.6286  -4.2383  -4.2383  -4.0094  -4.0094
    -3.6905  -3.6905  -3.4953  -3.4952  -3.1639  -3.1638  -2.9919  -2.9918
    -2.7859  -2.7858  -2.6296  -2.6295  -2.5327  -2.5325  -2.4079  -2.4077
    -1.7423  -1.7422  -1.6430  -1.6430  -0.5461  -0.5461  -0.3747  -0.3746
     0.5708   0.5708   0.7582   0.7582   0.9808   0.9808   1.2468   1.2469
     6.1273   6.1274   6.6239   6.6240   6.7467   6.7467   7.1034   7.1034
     7.2569   7.2570   7.6583   7.6584   7.7948   7.7949   8.1640   8.1640

          k =-0.5000 0.5512-0.6014 ( 61368 PWs)   bands (ev):

   -17.0720 -17.0720 -17.0225 -17.0224 -15.9227 -15.9226 -15.8037 -15.8036
   -13.9117 -13.9116 -13.8005 -13.8004 -11.7452 -11.7452 -11.6512 -11.6512
    -9.5298  -9.5298  -9.4115  -9.4115  -8.0100  -8.0099  -7.9300  -7.9299
    -7.6236  -7.6236  -7.5353  -7.5352  -6.8115  -6.8114  -6.6245  -6.6245
    -5.7739  -5.7738  -5.4387  -5.4387  -5.1474  -5.1472  -4.8564  -4.8562
    -4.7226  -4.7226  -4.6563  -4.6563  -4.2887  -4.2886  -4.0039  -4.0039
    -3.6165  -3.6163  -3.5660  -3.5659  -3.1411  -3.1409  -3.0127  -3.0126
    -2.8755  -2.8755  -2.6595  -2.6595  -2.4613  -2.4612  -2.3393  -2.3393
    -1.7373  -1.7371  -1.6400  -1.6398  -0.5235  -0.5234  -0.4209  -0.4208
     0.5579   0.5579   0.7558   0.7558   1.0015   1.0015   1.2408   1.2409
     6.1489   6.1490   6.5398   6.5399   6.7981   6.7982   7.0013   7.0014
     7.4706   7.4706   7.6194   7.6195   7.8329   7.8329   8.2229   8.2230

     highest occupied, lowest unoccupied level (ev):     1.3274    5.9673

!    total energy              =    -641.91010862 Ry
     Harris-Foulkes estimate   =    -641.91010862 Ry
     estimated scf accuracy    <          2.3E-09 Ry

     total all-electron energy =     -2447.582373 Ry

     The total energy is the sum of the following terms:

     one-electron contribution =    -313.55315219 Ry
     hartree contribution      =     215.46965058 Ry
     xc contribution           =    -155.56262809 Ry
     ewald contribution        =    -188.77475111 Ry
     Dispersion Correction     =      -0.30725347 Ry
     one-center paw contrib.   =    -199.18197434 Ry

     convergence has been achieved in  21 iterations

     Forces acting on atoms (cartesian axes, Ry/au):

     atom    1 type  1   force =    -0.00531787    0.00679704    0.00176208
     atom    2 type  1   force =    -0.00536416   -0.00671354    0.00191750
     atom    3 type  1   force =    -0.00534993    0.00679636    0.00184714
     atom    4 type  1   force =    -0.00532859   -0.00677659    0.00180140
     atom    5 type  3   force =     0.00055421    0.00093043    0.00014973
     atom    6 type  3   force =     0.00056943   -0.00095505    0.00007234
     atom    7 type  3   force =     0.00056117    0.00093626    0.00011203
     atom    8 type  3   force =     0.00055635   -0.00093643    0.00013028
     atom    9 type  1   force =    -0.00115954   -0.00158480   -0.00174036
     atom   10 type  1   force =    -0.00116829    0.00157335   -0.00178387
     atom   11 type  1   force =    -0.00121227   -0.00157574   -0.00179539
     atom   12 type  1   force =    -0.00114148    0.00161036   -0.00177835
     atom   13 type  3   force =     0.00185157    0.00097441    0.00019160
     atom   14 type  3   force =     0.00186179   -0.00096727    0.00019146
     atom   15 type  3   force =     0.00187876    0.00095679    0.00018970
     atom   16 type  3   force =     0.00183998   -0.00098272    0.00019430
     atom   17 type  3   force =     0.00135063    0.00151699   -0.00101816
     atom   18 type  3   force =     0.00135353   -0.00151911   -0.00101076
     atom   19 type  3   force =     0.00136713    0.00152453   -0.00101145
     atom   20 type  3   force =     0.00135103   -0.00151902   -0.00101417
     atom   21 type  2   force =    -0.00451090   -0.00050379    0.00250585
     atom   22 type  2   force =    -0.00447776    0.00046836    0.00255880
     atom   23 type  2   force =    -0.00441365   -0.00039657    0.00266639
     atom   24 type  2   force =    -0.00445032    0.00042257    0.00262538
     atom   25 type  3   force =    -0.00012718    0.00124487    0.00013552
     atom   26 type  3   force =    -0.00015811   -0.00121587    0.00009941
     atom   27 type  3   force =    -0.00021265    0.00116437    0.00003892
     atom   28 type  3   force =    -0.00018954   -0.00118340    0.00006198
     atom   29 type  1   force =     0.00158715   -0.00188417    0.00061802
     atom   30 type  1   force =     0.00159877    0.00190758    0.00062336
     atom   31 type  1   force =     0.00156785   -0.00193291    0.00063145
     atom   32 type  1   force =     0.00159296    0.00189188    0.00056392
     atom   33 type  3   force =    -0.00090219   -0.00109411    0.00017306
     atom   34 type  3   force =    -0.00090379    0.00108954    0.00017549
     atom   35 type  3   force =    -0.00089065   -0.00108354    0.00017383
     atom   36 type  3   force =    -0.00089926    0.00109074    0.00017767
     atom   37 type  3   force =    -0.00041431   -0.00021210    0.00197332
     atom   38 type  3   force =    -0.00041135    0.00020230    0.00196693
     atom   39 type  3   force =    -0.00040635   -0.00019190    0.00196001
     atom   40 type  3   force =    -0.00041814    0.00021946    0.00198222
     atom   41 type  1   force =     0.00198225   -0.00318978   -0.00466477
     atom   42 type  1   force =     0.00192063    0.00314973   -0.00468504
     atom   43 type  1   force =     0.00203400   -0.00323074   -0.00472873
     atom   44 type  1   force =     0.00193313    0.00314815   -0.00462081
     atom   45 type  3   force =    -0.00037847    0.00109126   -0.00025876
     atom   46 type  3   force =    -0.00037335   -0.00107691   -0.00026282
     atom   47 type  3   force =    -0.00041971    0.00111430   -0.00022528
     atom   48 type  3   force =    -0.00035363   -0.00106690   -0.00028239
     atom   49 type  1   force =     0.00415526   -0.00228242    0.00144566
     atom   50 type  1   force =     0.00429610    0.00227932    0.00124854
     atom   51 type  1   force =     0.00421629   -0.00233031    0.00122337
     atom   52 type  1   force =     0.00419476    0.00229858    0.00136294
     atom   53 type  3   force =    -0.00018886   -0.00084124    0.00077168
     atom   54 type  3   force =    -0.00027113    0.00084194    0.00085834
     atom   55 type  3   force =    -0.00026807   -0.00083909    0.00085762
     atom   56 type  3   force =    -0.00021742    0.00084043    0.00080925
     atom   57 type  2   force =     0.00146174    0.00029947   -0.00225484
     atom   58 type  2   force =     0.00146017   -0.00041926   -0.00217154
     atom   59 type  2   force =     0.00149851    0.00050355   -0.00214369
     atom   60 type  2   force =     0.00155697   -0.00040903   -0.00227488
     atom   61 type  3   force =    -0.00040122    0.00012646    0.00062901
     atom   62 type  3   force =    -0.00036223   -0.00010887    0.00060886
     atom   63 type  3   force =    -0.00035276    0.00009849    0.00059800
     atom   64 type  3   force =    -0.00043223   -0.00013288    0.00064704
     atom   65 type  3   force =     0.00045929    0.00027975   -0.00041959
     atom   66 type  3   force =     0.00042464   -0.00020713   -0.00040758
     atom   67 type  3   force =     0.00040189    0.00015683   -0.00039023
     atom   68 type  3   force =     0.00040937   -0.00018325   -0.00038792

     Total force =     0.028862     Total SCF correction =     0.000085


     Computing stress (Cartesian axis) and pressure

          total   stress  (Ry/bohr**3)                   (kbar)     P=  -11.66
  -0.00007447  -0.00000000   0.00001493        -10.95     -0.00      2.20
  -0.00000000  -0.00009031  -0.00000000         -0.00    -13.29     -0.00
   0.00001493  -0.00000000  -0.00007298          2.20     -0.00    -10.74


     Writing output data file scf.save
 
     init_run     :     14.82s CPU     15.43s WALL (       1 calls)
     electrons    :    474.59s CPU    490.00s WALL (       1 calls)
     forces       :      7.95s CPU      8.03s WALL (       1 calls)
     stress       :     22.45s CPU     22.60s WALL (       1 calls)

     Called by init_run:
     wfcinit      :      9.08s CPU      9.47s WALL (       1 calls)
     potinit      :      1.98s CPU      2.00s WALL (       1 calls)

     Called by electrons:
     c_bands      :    418.80s CPU    431.00s WALL (      21 calls)
     sum_band     :     47.31s CPU     49.59s WALL (      21 calls)
     v_of_rho     :      1.46s CPU      1.60s WALL (      22 calls)
     newd         :      2.99s CPU      3.66s WALL (      22 calls)
     PAW_pot      :      3.34s CPU      3.34s WALL (      22 calls)
     mix_rho      :      0.34s CPU      0.36s WALL (      21 calls)

     Called by c_bands:
     init_us_2    :      3.61s CPU      3.62s WALL (     360 calls)
     cegterg      :    407.12s CPU    419.27s WALL (     168 calls)

     Called by sum_band:
     sum_band:bec :      0.04s CPU      0.04s WALL (     168 calls)
     addusdens    :      3.16s CPU      3.79s WALL (      21 calls)

     Called by *egterg:
     h_psi        :    249.23s CPU    256.55s WALL (     748 calls)
     s_psi        :     42.03s CPU     42.04s WALL (     748 calls)
     g_psi        :      1.56s CPU      1.56s WALL (     572 calls)
     cdiaghg      :     17.45s CPU     17.51s WALL (     740 calls)

     Called by h_psi:
     h_psi:pot    :    247.50s CPU    254.79s WALL (     748 calls)
     h_psi:calbec :     40.95s CPU     41.06s WALL (     748 calls)
     vloc_psi     :    164.59s CPU    171.73s WALL (     748 calls)
     add_vuspsi   :     41.96s CPU     41.99s WALL (     748 calls)

     General routines
     calbec       :     58.04s CPU     58.19s WALL (     956 calls)
     fft          :      1.09s CPU      1.47s WALL (     310 calls)
     fftw         :    174.94s CPU    183.26s WALL (  112300 calls)
 
     Parallel routines
     fft_scatter  :     45.56s CPU     50.85s WALL (  112610 calls)
 
     PWSCF        :  8m43.77s CPU     9m 1.03s WALL

 
   This run was terminated on:   4:50:31   4Nov2017            

=------------------------------------------------------------------------------=
   JOB DONE.
=------------------------------------------------------------------------------=
