
     Program PWSCF v.6.1 (svn rev. 13369) starts on 21Dec2017 at  8:23:18 

     This program is part of the open-source Quantum ESPRESSO suite
     for quantum simulation of materials; please cite
         "P. Giannozzi et al., J. Phys.:Condens. Matter 21 395502 (2009);
          URL http://www.quantum-espresso.org", 
     in publications or presentations arising from this work. More details at
     http://www.quantum-espresso.org/quote

     Parallel version (MPI), running on     8 processors
     R & G space division:  proc/nbgrp/npool/nimage =       8
     Waiting for input...
     Reading input from standard input

     Current dimensions of program PWSCF are:
     Max number of different atomic species (ntypx) = 10
     Max number of k-points (npk) =  40000
     Max angular momentum in pseudopotentials (lmaxx) =  3
               file C.pbe-n-kjpaw_psl.0.1.UPF: wavefunction(s)  2P renormalized
               file N.pbe-n-kjpaw_psl.0.1.UPF: wavefunction(s)  2P renormalized
               file H.pbe-kjpaw_psl.0.1.UPF: wavefunction(s)  1S renormalized
               file O.pbe-n-kjpaw_psl.0.1.UPF: wavefunction(s)  2P renormalized

     -------------------------------------
     Parameters for Dispersion Correction:
     -------------------------------------
       atom      VdW radius       C_6     

        C          2.744         60.710
        N          2.640         42.670
        H          1.892          4.857
        O          2.536         24.284

     Subspace diagonalization in iterative solution of the eigenvalue problem:
     a serial algorithm will be used

 
     Parallelization info
     --------------------
     sticks:   dense  smooth     PW     G-vecs:    dense   smooth      PW
     Min        1882    1882    514                99040    99040   14017
     Max        1883    1883    515                99041    99041   14018
     Sum       15061   15061   4115               792325   792325  112139
 


     bravais-lattice index     =            0
     lattice parameter (alat)  =       6.8731  a.u.
     unit-cell volume          =    5864.7081 (a.u.)^3
     number of atoms/cell      =           90
     number of atomic types    =            4
     number of electrons       =       308.00
     number of Kohn-Sham states=          184
     kinetic-energy cutoff     =     100.0000  Ry
     charge density cutoff     =     400.0000  Ry
     convergence threshold     =      1.0E-08
     mixing beta               =       0.5000
     number of iterations used =            8  plain     mixing
     Exchange-correlation      =  SLA  PW   PBX  PBC ( 1  4  3  4 0 0)

     celldm(1)=   6.873123  celldm(2)=   0.000000  celldm(3)=   0.000000
     celldm(4)=   0.000000  celldm(5)=   0.000000  celldm(6)=   0.000000

     crystal axes: (cart. coord. in units of alat)
               a(1) = (   1.000000   0.000000   0.000000 )  
               a(2) = (   0.000000  10.046741   0.000000 )  
               a(3) = (  -0.157230   0.000000   1.797872 )  

     reciprocal axes: (cart. coord. in units 2 pi/alat)
               b(1) = (  1.000000  0.000000  0.087453 )  
               b(2) = (  0.000000  0.099535  0.000000 )  
               b(3) = (  0.000000  0.000000  0.556213 )  


     PseudoPot. # 1 for  C read from file:
     /scratch/ahofstet/pseudo/C.pbe-n-kjpaw_psl.0.1.UPF
     MD5 check sum: 430fe95172b1e11ef3f8ed03bac87931
     Pseudo is Projector augmented-wave + core cor, Zval =  4.0
     Generated using "atomic" code by A. Dal Corso  v.5.0.99 svn rev. 10869
     Shape of augmentation charge: BESSEL
     Using radial grid of 1073 points,  4 beta functions with: 
                l(1) =   0
                l(2) =   0
                l(3) =   1
                l(4) =   1
     Q(r) pseudized with 0 coefficients 


     PseudoPot. # 2 for  N read from file:
     /scratch/ahofstet/pseudo/N.pbe-n-kjpaw_psl.0.1.UPF
     MD5 check sum: f73187c8b701007e77325f868c9291d7
     Pseudo is Projector augmented-wave + core cor, Zval =  5.0
     Generated using "atomic" code by A. Dal Corso  v.5.0.99 svn rev. 10869
     Shape of augmentation charge: PSQ
     Using radial grid of 1085 points,  4 beta functions with: 
                l(1) =   0
                l(2) =   0
                l(3) =   1
                l(4) =   1
     Q(r) pseudized with 0 coefficients 


     PseudoPot. # 3 for  H read from file:
     /scratch/ahofstet/pseudo/H.pbe-kjpaw_psl.0.1.UPF
     MD5 check sum: 94e484f906d9e9773b2f6e52662335b2
     Pseudo is Projector augmented-wave, Zval =  1.0
     Generated using "atomic" code by A. Dal Corso  v.5.0.99 svn rev. 10869
     Shape of augmentation charge: PSQ
     Using radial grid of  929 points,  2 beta functions with: 
                l(1) =   0
                l(2) =   0
     Q(r) pseudized with 0 coefficients 


     PseudoPot. # 4 for  O read from file:
     /scratch/ahofstet/pseudo/O.pbe-n-kjpaw_psl.0.1.UPF
     MD5 check sum: 3f94a2996a3169367d6eb21d9b593f20
     Pseudo is Projector augmented-wave + core cor, Zval =  6.0
     Generated using "atomic" code by A. Dal Corso  v.5.0.99 svn rev. 10869
     Shape of augmentation charge: BESSEL
     Using radial grid of 1095 points,  4 beta functions with: 
                l(1) =   0
                l(2) =   0
                l(3) =   1
                l(4) =   1
     Q(r) pseudized with 0 coefficients 


     atomic species   valence    mass     pseudopotential
        C              4.00    12.01070      C( 1.00)
        N              5.00    14.00670      N( 1.00)
        H              1.00     1.00794      H( 1.00)
        O              6.00    15.99940      O( 1.00)

      2 Sym. Ops. (no inversion) found ( 1 have fractional translation)



   Cartesian axes

     site n.     atom                  positions (alat units)
         1           C   tau(   1) = (   0.8122347   7.0178146   0.2475497  )
         2           C   tau(   2) = (   0.0305351   1.9944443   1.5503228  )
         3           N   tau(   3) = (   0.5150607   7.0365383   0.4332295  )
         4           N   tau(   4) = (   0.3277091   2.0131680   1.3646430  )
         5           C   tau(   5) = (   0.3656829   6.7284083   0.5902324  )
         6           C   tau(   6) = (   0.4770869   1.7050380   1.2076400  )
         7           H   tau(   7) = (   0.1985458   6.7775023   0.8357191  )
         8           H   tau(   8) = (   0.6442240   1.7541320   0.9621534  )
         9           C   tau(   9) = (   0.5520390   6.3857999   0.5536082  )
        10           C   tau(  10) = (   0.2907308   1.3624296   1.2442642  )
        11           H   tau(  11) = (   0.4223101   6.1292279   0.6361200  )
        12           H   tau(  12) = (   0.4204597   1.1058576   1.1617525  )
        13           N   tau(  13) = (   0.8370708   6.3615190   0.3486523  )
        14           N   tau(  14) = (   0.0056989   1.3381488   1.4492201  )
        15           C   tau(  15) = (   1.0257293   6.6775895   0.2535573  )
        16           C   tau(  16) = (  -0.1829595   1.6542192   1.5443151  )
        17           H   tau(  17) = (   1.0408203   6.6319284   1.8097148  )
        18           H   tau(  18) = (  -0.1980505   1.6085582  -0.0118423  )
        19           C   tau(  19) = (   0.7257207   7.3125662   1.7688522  )
        20           C   tau(  20) = (   0.1170491   2.2891959   0.0290203  )
        21           N   tau(  21) = (   0.4753800   7.5745557   1.7522208  )
        22           N   tau(  22) = (   0.3673898   2.5511854   0.0456517  )
        23           H   tau(  23) = (   0.4522382   7.6077024   0.1619619  )
        24           H   tau(  24) = (   0.3905316   2.5843322   1.6359106  )
        25           H   tau(  25) = (   0.5055002   7.7837629   1.5588731  )
        26           H   tau(  26) = (   0.3372695   2.7603926   0.2389994  )
        27           O   tau(  27) = (   0.9881361   7.2944698   1.5483015  )
        28           O   tau(  28) = (  -0.1453663   2.2710995   0.2495709  )
        29           C   tau(  29) = (  -0.1228716   8.3753418   0.6880584  )
        30           C   tau(  30) = (   0.9656413   3.3519716   1.1098140  )
        31           N   tau(  31) = (   0.1735541   8.3444653   0.5030227  )
        32           N   tau(  32) = (   0.6692156   3.3210950   1.2948497  )
        33           C   tau(  33) = (   0.3302352   8.6465264   0.3353931  )
        34           C   tau(  34) = (   0.5125346   3.6231562   1.4624793  )
        35           H   tau(  35) = (   0.3398405   8.5737413   1.8935934  )
        36           H   tau(  36) = (   0.5029293   3.5503710  -0.0957210  )
        37           C   tau(  37) = (   0.1257178   8.9871354   0.3151693  )
        38           C   tau(  38) = (   0.7170519   3.9637651   1.4827032  )
        39           H   tau(  39) = (   0.2213743   9.2245178   0.1594813  )
        40           H   tau(  40) = (   0.6213955   4.2011476   1.6383912  )
        41           N   tau(  41) = (  -0.1713472   9.0186396   0.4983118  )
        42           N   tau(  42) = (   1.0141170   3.9952693   1.2995607  )
        43           C   tau(  43) = (  -0.3332857   8.7126517   0.6558091  )
        44           C   tau(  44) = (   1.1760555   3.6892814   1.1420633  )
        45           H   tau(  45) = (  -0.4990022   8.7843124   0.8965025  )
        46           H   tau(  46) = (   1.3417720   3.7609422   0.9013700  )
        47           C   tau(  47) = (  -0.1990337   8.0798162   0.9622148  )
        48           C   tau(  48) = (   1.0418035   3.0564459   0.8356576  )
        49           N   tau(  49) = (   0.0479851   7.8148049   0.9728443  )
        50           N   tau(  50) = (   0.7947847   2.7914346   0.8250282  )
        51           H   tau(  51) = (   0.0218300   7.6050481   1.1632215  )
        52           H   tau(  52) = (   0.8209398   2.5816778   0.6346510  )
        53           H   tau(  53) = (   0.2395981   7.8011087   0.7737912  )
        54           H   tau(  54) = (   0.6031717   2.7777384   1.0240813  )
        55           O   tau(  55) = (  -0.4604076   8.0940578   1.1843518  )
        56           O   tau(  56) = (   1.3031774   3.0706875   0.6135207  )
        57           C   tau(  57) = (   0.1505091   4.8944331   0.8101503  )
        58           C   tau(  58) = (   0.6922607   9.9178034   0.9877222  )
        59           C   tau(  59) = (   0.4324326   4.8604717   1.0382879  )
        60           C   tau(  60) = (   0.4103372   9.8838420   0.7595846  )
        61           H   tau(  61) = (   0.5859109   4.6044808   1.0299749  )
        62           H   tau(  62) = (   0.2568589   9.6278511   0.7678976  )
        63           C   tau(  63) = (   0.5934436   5.1729431   1.2032504  )
        64           C   tau(  64) = (   0.2493262   0.1495729   0.5946220  )
        65           H   tau(  65) = (   0.7894055   5.1256478   1.4243981  )
        66           H   tau(  66) = (   0.0533643   0.1022775   0.3734744  )
        67           C   tau(  67) = (   0.3855942   5.5037789   1.2091625  )
        68           C   tau(  68) = (   0.4571755   0.4804086   0.5887100  )
        69           C   tau(  69) = (   1.1041585   5.5280045   0.9759884  )
        70           C   tau(  70) = (  -0.2613888   0.5046343   0.8218840  )
        71           H   tau(  71) = (   0.9501086   5.7827290   0.9851332  )
        72           H   tau(  72) = (  -0.1073388   0.7593588   0.8127393  )
        73           C   tau(  73) = (   0.9363053   5.2174235   0.8146354  )
        74           C   tau(  74) = (  -0.0935355   0.1940532   0.9832371  )
        75           H   tau(  75) = (   0.7433099   5.2603802   0.5900801  )
        76           H   tau(  76) = (   0.0994599   0.2370099   1.2077924  )
        77           N   tau(  77) = (   1.0828144   4.5988971   0.5510030  )
        78           N   tau(  78) = (  -0.2400446   9.6222674   1.2468695  )
        79           O   tau(  79) = (   0.8134115   4.6271209   0.3410584  )
        80           O   tau(  80) = (   0.0293583   9.6504912   1.4568141  )
        81           O   tau(  81) = (   0.3215739   4.3551826   0.5325500  )
        82           O   tau(  82) = (   0.5211959   9.3785528   1.2653225  )
        83           C   tau(  83) = (   0.4472739   5.8237423   1.4545032  )
        84           C   tau(  84) = (   0.3954959   0.8003721   0.3433693  )
        85           O   tau(  85) = (   0.7271156   5.7942326   1.6801122  )
        86           O   tau(  86) = (   0.1156542   0.7708623   0.1177603  )
        87           O   tau(  87) = (   0.2345112   6.0857709   1.4546580  )
        88           O   tau(  88) = (   0.6082586   1.0624006   0.3432144  )
        89           H   tau(  89) = (   0.8877028   6.0113322   0.0668724  )
        90           H   tau(  90) = (  -0.0449330   0.9879620   1.7310000  )

     number of k points=     8
                       cart. coord. in units 2pi/alat
        k(    1) = (   0.0000000   0.0000000   0.0000000), wk =   0.1333333
        k(    2) = (   0.0000000   0.0000000   0.1854043), wk =   0.2666667
        k(    3) = (   0.2000000   0.0000000   0.0174907), wk =   0.2666667
        k(    4) = (   0.2000000   0.0000000   0.2028950), wk =   0.2666667
        k(    5) = (   0.2000000   0.0000000  -0.1679136), wk =   0.2666667
        k(    6) = (   0.4000000   0.0000000   0.0349814), wk =   0.2666667
        k(    7) = (   0.4000000   0.0000000   0.2203857), wk =   0.2666667
        k(    8) = (   0.4000000   0.0000000  -0.1504229), wk =   0.2666667

     Dense  grid:   792325 G-vectors     FFT dimensions: (  45, 450,  80)

     Estimated max dynamical RAM per process >     769.00MB

     Estimated total allocated dynamical RAM >    6151.99MB

     Check: negative/imaginary core charge=   -0.000002    0.000000

     Initial potential from superposition of free atoms

     starting charge  307.99818, renormalised to  308.00000
     Starting wfc are  270 randomized atomic wfcs
     Checking if some PAW data can be deallocated... 

     total cpu time spent up to now is       48.3 secs

     per-process dynamical memory:   538.0 Mb

     Self-consistent Calculation

     iteration #  1     ecut=   100.00 Ry     beta=0.50
     Davidson diagonalization with overlap
     ethr =  1.00E-02,  avg # of iterations =  3.8

     total cpu time spent up to now is      187.0 secs

     total energy              =   -1554.38460999 Ry
     Harris-Foulkes estimate   =   -1559.56577052 Ry
     estimated scf accuracy    <       9.69314233 Ry

     iteration #  2     ecut=   100.00 Ry     beta=0.50
     Davidson diagonalization with overlap
     ethr =  3.15E-03,  avg # of iterations =  2.8

     total cpu time spent up to now is      266.1 secs

     total energy              =   -1554.77759248 Ry
     Harris-Foulkes estimate   =   -1556.27023578 Ry
     estimated scf accuracy    <       2.91484246 Ry

     iteration #  3     ecut=   100.00 Ry     beta=0.50
     Davidson diagonalization with overlap
     ethr =  9.46E-04,  avg # of iterations =  7.9

     total cpu time spent up to now is      406.1 secs

     total energy              =   -1552.43125879 Ry
     Harris-Foulkes estimate   =   -1558.10868197 Ry
     estimated scf accuracy    <      49.72915904 Ry

     iteration #  4     ecut=   100.00 Ry     beta=0.50
     Davidson diagonalization with overlap
     ethr =  9.46E-04,  avg # of iterations = 10.9

     total cpu time spent up to now is      515.8 secs

     total energy              =   -1556.06226176 Ry
     Harris-Foulkes estimate   =   -1556.38491699 Ry
     estimated scf accuracy    <       0.79519109 Ry

     iteration #  5     ecut=   100.00 Ry     beta=0.50
     Davidson diagonalization with overlap
     ethr =  2.58E-04,  avg # of iterations =  8.9

     total cpu time spent up to now is      608.1 secs

     total energy              =   -1556.16745852 Ry
     Harris-Foulkes estimate   =   -1556.21328721 Ry
     estimated scf accuracy    <       0.11344904 Ry

     iteration #  6     ecut=   100.00 Ry     beta=0.50
     Davidson diagonalization with overlap
     ethr =  3.68E-05,  avg # of iterations =  7.4

     total cpu time spent up to now is      749.0 secs

     total energy              =   -1556.20702181 Ry
     Harris-Foulkes estimate   =   -1556.22290053 Ry
     estimated scf accuracy    <       0.04702540 Ry

     iteration #  7     ecut=   100.00 Ry     beta=0.50
     Davidson diagonalization with overlap
     c_bands:  1 eigenvalues not converged
     ethr =  1.53E-05,  avg # of iterations = 14.1

     total cpu time spent up to now is      852.0 secs

     total energy              =   -1556.21199945 Ry
     Harris-Foulkes estimate   =   -1556.21659290 Ry
     estimated scf accuracy    <       0.01643615 Ry

     iteration #  8     ecut=   100.00 Ry     beta=0.50
     Davidson diagonalization with overlap
     ethr =  5.34E-06,  avg # of iterations =  6.1

     total cpu time spent up to now is      931.0 secs

     total energy              =   -1556.21377878 Ry
     Harris-Foulkes estimate   =   -1556.21500951 Ry
     estimated scf accuracy    <       0.00616477 Ry

     iteration #  9     ecut=   100.00 Ry     beta=0.50
     Davidson diagonalization with overlap
     c_bands:  1 eigenvalues not converged
     ethr =  2.00E-06,  avg # of iterations = 13.6

     total cpu time spent up to now is     1033.5 secs

     total energy              =   -1556.21433636 Ry
     Harris-Foulkes estimate   =   -1556.21475092 Ry
     estimated scf accuracy    <       0.00343315 Ry

     iteration # 10     ecut=   100.00 Ry     beta=0.50
     Davidson diagonalization with overlap
     ethr =  1.11E-06,  avg # of iterations =  2.1

     total cpu time spent up to now is     1100.8 secs

     total energy              =   -1556.21415409 Ry
     Harris-Foulkes estimate   =   -1556.21452070 Ry
     estimated scf accuracy    <       0.00241702 Ry

     iteration # 11     ecut=   100.00 Ry     beta=0.50
     Davidson diagonalization with overlap
     ethr =  7.85E-07,  avg # of iterations =  4.6

     total cpu time spent up to now is     1171.7 secs

     total energy              =   -1556.21403179 Ry
     Harris-Foulkes estimate   =   -1556.21425736 Ry
     estimated scf accuracy    <       0.00156757 Ry

     iteration # 12     ecut=   100.00 Ry     beta=0.50
     Davidson diagonalization with overlap
     c_bands:  1 eigenvalues not converged
     ethr =  5.09E-07,  avg # of iterations =  9.8

     total cpu time spent up to now is     1250.2 secs

     total energy              =   -1556.21355918 Ry
     Harris-Foulkes estimate   =   -1556.21410904 Ry
     estimated scf accuracy    <       0.00097307 Ry

     iteration # 13     ecut=   100.00 Ry     beta=0.50
     Davidson diagonalization with overlap
     ethr =  3.16E-07,  avg # of iterations =  7.6

     total cpu time spent up to now is     1376.2 secs

     total energy              =   -1556.21391606 Ry
     Harris-Foulkes estimate   =   -1556.21394022 Ry
     estimated scf accuracy    <       0.00005436 Ry

     iteration # 14     ecut=   100.00 Ry     beta=0.50
     Davidson diagonalization with overlap
     ethr =  1.77E-08,  avg # of iterations =  3.0

     total cpu time spent up to now is     1477.4 secs

     total energy              =   -1556.21393242 Ry
     Harris-Foulkes estimate   =   -1556.21393422 Ry
     estimated scf accuracy    <       0.00000616 Ry

     iteration # 15     ecut=   100.00 Ry     beta=0.50
     Davidson diagonalization with overlap
     ethr =  2.00E-09,  avg # of iterations =  2.6

     total cpu time spent up to now is     1554.5 secs

     total energy              =   -1556.21393304 Ry
     Harris-Foulkes estimate   =   -1556.21393351 Ry
     estimated scf accuracy    <       0.00000105 Ry

     iteration # 16     ecut=   100.00 Ry     beta=0.50
     Davidson diagonalization with overlap
     ethr =  3.41E-10,  avg # of iterations =  3.8

     total cpu time spent up to now is     1678.1 secs

     total energy              =   -1556.21393346 Ry
     Harris-Foulkes estimate   =   -1556.21393359 Ry
     estimated scf accuracy    <       0.00000034 Ry

     iteration # 17     ecut=   100.00 Ry     beta=0.50
     Davidson diagonalization with overlap
     ethr =  1.11E-10,  avg # of iterations =  2.0

     total cpu time spent up to now is     1745.4 secs

     total energy              =   -1556.21393346 Ry
     Harris-Foulkes estimate   =   -1556.21393349 Ry
     estimated scf accuracy    <       0.00000007 Ry

     iteration # 18     ecut=   100.00 Ry     beta=0.50
     Davidson diagonalization with overlap
     ethr =  2.22E-11,  avg # of iterations =  4.0

     total cpu time spent up to now is     1871.9 secs

     total energy              =   -1556.21393350 Ry
     Harris-Foulkes estimate   =   -1556.21393351 Ry
     estimated scf accuracy    <       0.00000004 Ry

     iteration # 19     ecut=   100.00 Ry     beta=0.50
     Davidson diagonalization with overlap
     ethr =  1.38E-11,  avg # of iterations =  2.0

     total cpu time spent up to now is     1939.3 secs

     total energy              =   -1556.21393349 Ry
     Harris-Foulkes estimate   =   -1556.21393350 Ry
     estimated scf accuracy    <       0.00000002 Ry

     iteration # 20     ecut=   100.00 Ry     beta=0.50
     Davidson diagonalization with overlap
     ethr =  5.73E-12,  avg # of iterations =  3.4

     total cpu time spent up to now is     2044.0 secs

     End of self-consistent calculation

          k = 0.0000 0.0000 0.0000 ( 98969 PWs)   bands (ev):

   -23.4177 -23.4177 -20.5266 -20.5266 -19.2382 -19.2382 -18.8955 -18.8954
   -18.7082 -18.7082 -18.6291 -18.6291 -17.8627 -17.8627 -17.6462 -17.6462
   -16.4890 -16.4890 -16.3085 -16.3085 -15.6732 -15.6732 -15.0865 -15.0865
   -14.8013 -14.8013 -13.6765 -13.6765 -12.2056 -12.2056 -11.6353 -11.6353
   -11.3304 -11.3304 -11.1188 -11.1182 -11.0853 -11.0846 -10.4363 -10.4363
    -9.5812  -9.5803  -9.0068  -9.0048  -8.7987  -8.7769  -8.7585  -8.7343
    -7.5933  -7.5886  -7.3089  -7.3055  -7.0801  -7.0718  -7.0318  -7.0250
    -6.9326  -6.9310  -6.6786  -6.6778  -6.3418  -6.3414  -6.2280  -6.2269
    -6.1344  -6.1316  -6.0717  -6.0708  -5.8057  -5.7997  -5.6231  -5.6213
    -5.3027  -5.3023  -5.2525  -5.2521  -5.1280  -5.1270  -4.9562  -4.9524
    -4.7797  -4.7543  -4.5535  -4.5327  -4.2014  -4.1985  -4.1546  -4.1421
    -3.9164  -3.9141  -3.7373  -3.7367  -3.7176  -3.6967  -3.3329  -3.3090
    -3.3005  -3.2902  -2.9381  -2.9369  -2.8846  -2.8671  -2.8270  -2.8075
    -2.4530  -2.4526  -2.2085  -2.2000  -2.1763  -2.1614  -2.1269  -2.1205
    -1.8122  -1.8064  -1.6889  -1.6819  -1.5093  -1.5076  -1.2639  -1.2628
    -1.1794  -1.1769  -1.0673  -1.0657  -0.7807  -0.7804  -0.6291  -0.6285
    -0.6102  -0.6061  -0.5339  -0.5325  -0.2552  -0.2469  -0.1353  -0.1284
     0.1176   0.1178   0.2867   0.2958   0.3393   0.3512   0.5589   0.5611
     0.7194   0.7207   0.9154   0.9169   0.9738   0.9744   1.1446   1.1457
     2.0191   2.0193   3.8416   3.8426   3.8687   3.8699   4.5389   4.5391
     5.1141   5.1143   5.8432   5.8434   6.4957   6.5086   6.5701   6.6064
     6.6545   6.6662   6.8986   6.9944   7.5205   7.6656   7.8107   7.8691
     8.0350   8.0362   8.2168   8.2865   8.4072   8.4589   8.6222   8.6282

          k = 0.0000 0.0000 0.1854 ( 98885 PWs)   bands (ev):

   -23.4176 -23.4176 -20.5259 -20.5259 -19.2347 -19.2347 -18.8966 -18.8966
   -18.7083 -18.7083 -18.6313 -18.6313 -17.8641 -17.8641 -17.6466 -17.6466
   -16.4911 -16.4911 -16.3083 -16.3082 -15.6758 -15.6757 -15.0882 -15.0882
   -14.7956 -14.7956 -13.6768 -13.6768 -12.2061 -12.2061 -11.6304 -11.6303
   -11.3307 -11.3305 -11.1197 -11.1178 -11.0818 -11.0796 -10.4354 -10.4352
    -9.5857  -9.5851  -9.0145  -9.0127  -8.8080  -8.7835  -8.7496  -8.7248
    -7.6037  -7.5962  -7.3736  -7.3683  -7.0771  -7.0723  -6.9927  -6.9895
    -6.9265  -6.9249  -6.6304  -6.6281  -6.3263  -6.3221  -6.2306  -6.2292
    -6.1505  -6.1478  -6.1020  -6.0975  -5.8114  -5.8036  -5.6736  -5.6672
    -5.3341  -5.3335  -5.2511  -5.2478  -5.1046  -5.0991  -4.9716  -4.9666
    -4.7322  -4.7169  -4.5227  -4.5122  -4.1941  -4.1838  -4.1469  -4.1177
    -3.8960  -3.8664  -3.7268  -3.7239  -3.6692  -3.6641  -3.3540  -3.3355
    -3.3233  -3.3088  -2.9812  -2.9807  -2.8264  -2.8254  -2.7592  -2.7571
    -2.4695  -2.4693  -2.2033  -2.1978  -2.1894  -2.1786  -2.1357  -2.1297
    -1.8025  -1.7997  -1.6907  -1.6873  -1.5266  -1.5254  -1.2801  -1.2795
    -1.1813  -1.1801  -1.0645  -1.0640  -0.7899  -0.7889  -0.6288  -0.6221
    -0.5905  -0.5756  -0.5317  -0.5219  -0.2444  -0.2398  -0.1732  -0.1695
     0.1512   0.1516   0.2955   0.2969   0.3359   0.3379   0.5651   0.5659
     0.7138   0.7148   0.9037   0.9048   0.9694   0.9722   1.1459   1.1473
     2.0138   2.0140   3.8022   3.8043   3.8391   3.8412   4.5181   4.5183
     5.0861   5.0863   5.8832   5.8835   6.3450   6.3460   6.6809   6.6827
     6.9069   6.9463   7.1011   7.1636   7.5012   7.5040   7.7908   7.8137
     7.9437   7.9543   8.0894   8.1503   8.4361   8.4460   8.5127   8.5372

          k = 0.2000 0.0000 0.0175 ( 99075 PWs)   bands (ev):

   -23.3371 -23.3371 -20.4129 -20.4129 -19.0898 -19.0898 -18.8811 -18.8811
   -18.7596 -18.7596 -18.4576 -18.4576 -17.8024 -17.8024 -17.6653 -17.6653
   -16.4886 -16.4886 -16.0406 -16.0406 -15.7030 -15.7030 -15.2677 -15.2676
   -14.9466 -14.9466 -13.5399 -13.5399 -13.0275 -13.0275 -12.2424 -12.2423
   -12.2072 -12.2071 -10.9829 -10.9829 -10.5157 -10.5155  -9.8616  -9.8595
    -9.7639  -9.7619  -9.0574  -9.0560  -8.9644  -8.9609  -8.7256  -8.7219
    -7.9178  -7.9149  -7.6547  -7.6520  -7.3734  -7.3687  -7.1543  -7.1488
    -6.9179  -6.9122  -6.5257  -6.5167  -6.4403  -6.4347  -6.2125  -6.2064
    -5.9876  -5.9844  -5.7234  -5.7144  -5.6214  -5.6139  -5.4588  -5.4534
    -5.3602  -5.3557  -5.1798  -5.1789  -4.9934  -4.9875  -4.8078  -4.8029
    -4.5449  -4.5346  -4.5014  -4.4926  -4.3107  -4.3031  -4.1111  -4.0866
    -3.9800  -3.9321  -3.9092  -3.8808  -3.6336  -3.6165  -3.6081  -3.6003
    -3.3958  -3.3783  -3.2366  -3.2291  -3.0746  -3.0639  -2.9756  -2.9409
    -2.8773  -2.8542  -2.5967  -2.5922  -2.4965  -2.4921  -2.2717  -2.2710
    -2.0412  -2.0390  -1.7436  -1.7395  -1.4462  -1.4414  -0.9598  -0.9472
    -0.8648  -0.8483  -0.7469  -0.7390  -0.6106  -0.6059  -0.4830  -0.4791
    -0.3008  -0.3005  -0.1856  -0.1831   0.1074   0.1083   0.2947   0.2964
     0.3618   0.3626   0.4965   0.4992   0.7582   0.7686   0.7763   0.7853
     0.9680   0.9700   1.0392   1.0395   1.1748   1.1753   1.2661   1.2670
     1.9715   1.9717   3.9952   3.9959   4.1462   4.1472   4.7830   4.7857
     4.9720   4.9773   5.0878   5.0906   6.0271   6.0282   6.1074   6.1084
     7.1029   7.1214   7.2977   7.3239   7.5719   7.5798   7.6794   7.7219
     7.9690   8.0263   8.2103   8.3067   8.3278   8.4682   8.5713   8.6712

          k = 0.2000 0.0000 0.2029 ( 99016 PWs)   bands (ev):

   -23.3370 -23.3370 -20.4122 -20.4122 -19.0871 -19.0871 -18.8812 -18.8812
   -18.7606 -18.7606 -18.4597 -18.4597 -17.8022 -17.8022 -17.6663 -17.6663
   -16.4895 -16.4895 -16.0412 -16.0412 -15.7041 -15.7040 -15.2679 -15.2679
   -14.9453 -14.9453 -13.5399 -13.5399 -13.0284 -13.0284 -12.2420 -12.2419
   -12.2053 -12.2052 -10.9827 -10.9826 -10.5150 -10.5146  -9.8686  -9.8634
    -9.7650  -9.7592  -9.0423  -9.0358  -8.9622  -8.9569  -8.7340  -8.7303
    -7.9185  -7.9125  -7.6999  -7.6926  -7.3724  -7.3673  -7.1356  -7.1295
    -6.9306  -6.9275  -6.5156  -6.5093  -6.4509  -6.4483  -6.1995  -6.1922
    -6.0067  -6.0032  -5.7170  -5.7110  -5.6612  -5.6565  -5.4146  -5.4119
    -5.3585  -5.3520  -5.1835  -5.1817  -4.9746  -4.9690  -4.8282  -4.8063
    -4.5646  -4.5201  -4.4972  -4.4729  -4.3204  -4.2909  -4.0884  -4.0719
    -3.9535  -3.9331  -3.8715  -3.8520  -3.6334  -3.6273  -3.5839  -3.5717
    -3.3957  -3.3747  -3.2285  -3.2186  -3.0929  -3.0857  -3.0024  -2.9793
    -2.8777  -2.8563  -2.5951  -2.5917  -2.4898  -2.4886  -2.2679  -2.2666
    -2.0657  -2.0653  -1.7600  -1.7580  -1.4330  -1.4303  -0.8986  -0.8877
    -0.8453  -0.8313  -0.7421  -0.7339  -0.6303  -0.6253  -0.4439  -0.4419
    -0.2597  -0.2541  -0.1707  -0.1655   0.0949   0.1003   0.2795   0.2968
     0.3589   0.3689   0.5128   0.5188   0.7551   0.7561   0.8008   0.8067
     0.9474   0.9575   0.9882   0.9954   1.1253   1.1263   1.2679   1.2688
     1.9751   1.9753   3.9509   3.9511   4.1346   4.1350   4.7606   4.7633
     4.9462   4.9529   5.0761   5.0803   6.0543   6.0575   6.0788   6.0823
     7.1776   7.1859   7.3479   7.3578   7.6195   7.6273   7.6570   7.6777
     7.8718   7.9195   8.0979   8.1373   8.3408   8.3601   8.3989   8.4297

          k = 0.2000 0.0000-0.1679 ( 98979 PWs)   bands (ev):

   -23.3370 -23.3370 -20.4124 -20.4124 -19.0868 -19.0868 -18.8810 -18.8810
   -18.7606 -18.7606 -18.4595 -18.4595 -17.8021 -17.8021 -17.6667 -17.6667
   -16.4902 -16.4902 -16.0407 -16.0407 -15.7061 -15.7060 -15.2668 -15.2668
   -14.9425 -14.9425 -13.5399 -13.5399 -13.0280 -13.0280 -12.2420 -12.2420
   -12.2065 -12.2064 -10.9885 -10.9884 -10.5131 -10.5126  -9.8626  -9.8580
    -9.7693  -9.7645  -9.0492  -9.0434  -8.9655  -8.9582  -8.7244  -8.7209
    -7.9365  -7.9320  -7.6706  -7.6678  -7.3689  -7.3610  -7.1599  -7.1576
    -6.9049  -6.9014  -6.5146  -6.5127  -6.4408  -6.4376  -6.1976  -6.1961
    -6.0050  -6.0034  -5.7113  -5.7095  -5.6683  -5.6589  -5.4562  -5.4501
    -5.3318  -5.3253  -5.2132  -5.2037  -4.9012  -4.8790  -4.8695  -4.8551
    -4.5485  -4.5294  -4.4967  -4.4833  -4.3354  -4.3164  -4.0954  -4.0732
    -3.9618  -3.9232  -3.9012  -3.8594  -3.6474  -3.6296  -3.5849  -3.5669
    -3.3867  -3.3590  -3.2701  -3.2389  -3.0634  -3.0588  -2.9393  -2.9203
    -2.8732  -2.8540  -2.6288  -2.6228  -2.4964  -2.4882  -2.2526  -2.2504
    -2.0874  -2.0858  -1.7848  -1.7834  -1.4061  -1.4049  -0.9272  -0.9229
    -0.8422  -0.8395  -0.7346  -0.7337  -0.6232  -0.6210  -0.4723  -0.4709
    -0.3136  -0.3078  -0.1502  -0.1428   0.1106   0.1127   0.3174   0.3182
     0.3545   0.3561   0.5095   0.5101   0.7498   0.7604   0.7738   0.7837
     0.9613   0.9644   1.0141   1.0162   1.1740   1.1748   1.2576   1.2595
     1.9733   1.9735   3.9910   3.9911   4.1296   4.1298   4.7649   4.7660
     4.9377   4.9392   5.1221   5.1231   5.9640   5.9644   6.1374   6.1379
     7.2051   7.2122   7.4393   7.4566   7.5819   7.6126   7.7161   7.7594
     7.8638   7.9084   8.1905   8.2200   8.3472   8.4105   8.5065   8.5352

          k = 0.4000 0.0000 0.0350 ( 99088 PWs)   bands (ev):

   -23.1948 -23.1948 -20.1943 -20.1943 -19.1679 -19.1679 -18.8082 -18.8082
   -18.5063 -18.5063 -18.1291 -18.1291 -18.0442 -18.0442 -17.2423 -17.2423
   -16.6000 -16.6000 -15.8673 -15.8673 -15.5816 -15.5816 -15.3667 -15.3666
   -15.2250 -15.2250 -13.8791 -13.8791 -13.5659 -13.5659 -13.1189 -13.1189
   -13.0267 -13.0267 -10.8721 -10.8721 -10.4626 -10.4624  -9.7188  -9.7179
    -9.6621  -9.6613  -9.1511  -9.1508  -8.8426  -8.8425  -8.6829  -8.6819
    -8.1370  -8.1354  -7.8633  -7.8585  -7.5677  -7.5634  -6.9365  -6.9324
    -6.7750  -6.7674  -6.4269  -6.4208  -6.3158  -6.3083  -6.2021  -6.1962
    -6.0896  -6.0867  -5.7900  -5.7773  -5.6283  -5.5957  -5.4941  -5.4684
    -5.4313  -5.4261  -5.2395  -5.2357  -4.9755  -4.9630  -4.8257  -4.8182
    -4.7533  -4.7470  -4.6459  -4.6393  -4.4184  -4.4175  -4.2777  -4.2483
    -4.1656  -4.1332  -3.9903  -3.9812  -3.7795  -3.7735  -3.7220  -3.7186
    -3.5714  -3.5659  -3.5360  -3.5294  -3.2478  -3.2408  -3.1650  -3.1581
    -3.0110  -3.0084  -2.8929  -2.8912  -2.4411  -2.4378  -2.2742  -2.2720
    -2.1915  -2.1879  -1.7435  -1.7417  -1.5649  -1.5631  -0.9886  -0.9847
    -0.8523  -0.8495  -0.5049  -0.5039  -0.0967  -0.0953   0.0652   0.0666
     0.2823   0.2932   0.3162   0.3302   0.4816   0.4851   0.7544   0.7670
     0.8496   0.8721   0.9049   0.9192   1.0193   1.0303   1.3162   1.3191
     1.5466   1.5476   1.8744   1.8782   1.9711   1.9761   2.1184   2.1201
     2.3527   2.3529   3.2642   3.2642   3.6113   3.6114   4.3660   4.3667
     4.4670   4.4685   4.6940   4.6947   5.6342   5.6360   5.8247   5.8265
     7.2839   7.2857   7.4926   7.4948   7.7617   7.7653   8.1741   8.1923
     8.4432   8.4869   8.6877   8.7751   8.8413   8.9096   9.1621   9.1642

          k = 0.4000 0.0000 0.2204 ( 99116 PWs)   bands (ev):

   -23.1948 -23.1948 -20.1940 -20.1940 -19.1678 -19.1678 -18.8070 -18.8070
   -18.5067 -18.5067 -18.1331 -18.1331 -18.0404 -18.0404 -17.2423 -17.2423
   -16.5997 -16.5997 -15.8663 -15.8663 -15.5851 -15.5851 -15.3669 -15.3668
   -15.2247 -15.2247 -13.8799 -13.8799 -13.5660 -13.5660 -13.1200 -13.1199
   -13.0259 -13.0259 -10.8747 -10.8746 -10.4684 -10.4679  -9.7209  -9.7169
    -9.6661  -9.6626  -9.1429  -9.1422  -8.8439  -8.8436  -8.6811  -8.6792
    -8.1218  -8.1184  -7.8597  -7.8543  -7.5665  -7.5614  -6.9378  -6.9294
    -6.8197  -6.8109  -6.4486  -6.4424  -6.2828  -6.2778  -6.2227  -6.2147
    -6.0782  -6.0732  -5.7757  -5.7605  -5.6544  -5.6249  -5.5584  -5.5433
    -5.3431  -5.3395  -5.2587  -5.2556  -4.9420  -4.9372  -4.8277  -4.8187
    -4.7416  -4.7252  -4.6791  -4.6687  -4.4106  -4.4072  -4.2733  -4.2482
    -4.1626  -4.1262  -4.0152  -4.0041  -3.7693  -3.7575  -3.7077  -3.6980
    -3.5739  -3.5686  -3.5146  -3.5106  -3.2207  -3.2104  -3.1998  -3.1854
    -3.0175  -3.0147  -2.8946  -2.8897  -2.4437  -2.4344  -2.2785  -2.2694
    -2.1622  -2.1543  -1.7883  -1.7855  -1.5091  -1.5061  -0.9636  -0.9624
    -0.8750  -0.8747  -0.4896  -0.4873  -0.1114  -0.1068   0.0599   0.0630
     0.2693   0.2979   0.3130   0.3381   0.4883   0.4913   0.7571   0.7631
     0.8548   0.8662   0.9118   0.9364   1.0544   1.0620   1.3326   1.3347
     1.6021   1.6031   1.8780   1.8797   2.0114   2.0131   2.0991   2.1005
     2.2994   2.2996   3.2849   3.2851   3.5885   3.5889   4.3394   4.3407
     4.4673   4.4684   4.6915   4.6920   5.6578   5.6588   5.8258   5.8266
     7.2393   7.2431   7.4704   7.4805   7.6959   7.7054   7.9160   7.9260
     8.3443   8.3663   8.7385   8.7707   8.9815   9.0219   9.0532   9.1495

          k = 0.4000 0.0000-0.1504 ( 99135 PWs)   bands (ev):

   -23.1948 -23.1948 -20.1941 -20.1941 -19.1677 -19.1677 -18.8068 -18.8068
   -18.5066 -18.5066 -18.1310 -18.1310 -18.0425 -18.0425 -17.2429 -17.2429
   -16.6002 -16.6002 -15.8677 -15.8677 -15.5828 -15.5828 -15.3660 -15.3660
   -15.2237 -15.2237 -13.8800 -13.8800 -13.5685 -13.5684 -13.1193 -13.1193
   -13.0250 -13.0250 -10.8771 -10.8770 -10.4674 -10.4670  -9.7180  -9.7149
    -9.6672  -9.6644  -9.1501  -9.1496  -8.8424  -8.8420  -8.6822  -8.6795
    -8.1320  -8.1278  -7.8369  -7.8355  -7.5658  -7.5612  -6.9466  -6.9429
    -6.7965  -6.7888  -6.4361  -6.4310  -6.3062  -6.2992  -6.2190  -6.2117
    -6.0839  -6.0774  -5.7856  -5.7657  -5.6571  -5.6243  -5.5531  -5.5314
    -5.3499  -5.3409  -5.2362  -5.2349  -4.9792  -4.9748  -4.8411  -4.8313
    -4.7427  -4.7353  -4.6638  -4.6555  -4.4013  -4.3914  -4.2627  -4.2387
    -4.1552  -4.1187  -4.0307  -4.0199  -3.7590  -3.7540  -3.7146  -3.7087
    -3.5846  -3.5804  -3.5077  -3.5010  -3.2381  -3.2276  -3.1506  -3.1420
    -3.0055  -2.9979  -2.9092  -2.9007  -2.4224  -2.4177  -2.2981  -2.2943
    -2.2030  -2.1978  -1.7970  -1.7906  -1.5023  -1.4984  -0.9695  -0.9660
    -0.8685  -0.8655  -0.4993  -0.4972  -0.0958  -0.0933   0.0724   0.0775
     0.2941   0.3023   0.3187   0.3300   0.4654   0.4703   0.7638   0.7701
     0.8536   0.8732   0.9025   0.9278   1.0396   1.0488   1.3242   1.3287
     1.5639   1.5642   1.8908   1.8987   2.0014   2.0105   2.1040   2.1065
     2.3205   2.3206   3.3116   3.3118   3.6344   3.6347   4.3862   4.3875
     4.4491   4.4502   4.6812   4.6813   5.6416   5.6429   5.8209   5.8224
     7.2798   7.2814   7.4526   7.4575   7.6558   7.6613   8.0585   8.0749
     8.4357   8.4754   8.7119   8.7741   8.8447   8.8835   9.1014   9.1715

     highest occupied, lowest unoccupied level (ev):     2.3529    3.2642

!    total energy              =   -1556.21393350 Ry
     Harris-Foulkes estimate   =   -1556.21393350 Ry
     estimated scf accuracy    <          3.0E-09 Ry

     total all-electron energy =     -5964.539176 Ry

     The total energy is the sum of the following terms:

     one-electron contribution =    -955.21686690 Ry
     hartree contribution      =     604.29771599 Ry
     xc contribution           =    -328.55606802 Ry
     ewald contribution        =    -419.87685750 Ry
     Dispersion Correction     =      -0.46357665 Ry
     one-center paw contrib.   =    -456.39828041 Ry

     convergence has been achieved in  20 iterations

     Forces acting on atoms (cartesian axes, Ry/au):

     atom    1 type  1   force =    -0.01399646    0.00649987   -0.01346729
     atom    2 type  1   force =     0.01399646    0.00649987    0.01346729
     atom    3 type  2   force =     0.01786066    0.07792143    0.01368820
     atom    4 type  2   force =    -0.01786066    0.07792143   -0.01368820
     atom    5 type  1   force =    -0.08147065    0.00861081    0.00261350
     atom    6 type  1   force =     0.08147065    0.00861081   -0.00261350
     atom    7 type  3   force =     0.00444460    0.00054504    0.00735507
     atom    8 type  3   force =    -0.00444460    0.00054504   -0.00735507
     atom    9 type  1   force =     0.01753129   -0.04166707   -0.00678623
     atom   10 type  1   force =    -0.01753129   -0.04166707    0.00678623
     atom   11 type  3   force =    -0.00719281   -0.00266617    0.00714379
     atom   12 type  3   force =     0.00719281   -0.00266617   -0.00714379
     atom   13 type  2   force =    -0.00916755   -0.06709923    0.00444954
     atom   14 type  2   force =     0.00916755   -0.06709923   -0.00444954
     atom   15 type  1   force =     0.06570404    0.00414707    0.00186654
     atom   16 type  1   force =    -0.06570404    0.00414707   -0.00186654
     atom   17 type  3   force =    -0.00249969    0.00216800   -0.00875654
     atom   18 type  3   force =     0.00249969    0.00216800    0.00875654
     atom   19 type  1   force =     0.00370242   -0.00116503   -0.00581683
     atom   20 type  1   force =    -0.00370242   -0.00116503    0.00581683
     atom   21 type  2   force =     0.05341098    0.07362800    0.02998891
     atom   22 type  2   force =    -0.05341098    0.07362800   -0.02998891
     atom   23 type  3   force =    -0.00318245   -0.00002359    0.00585252
     atom   24 type  3   force =     0.00318245   -0.00002359   -0.00585252
     atom   25 type  3   force =    -0.00060147   -0.00359628    0.00024213
     atom   26 type  3   force =     0.00060147   -0.00359628   -0.00024213
     atom   27 type  4   force =    -0.04395714   -0.05793210   -0.03754166
     atom   28 type  4   force =     0.04395714   -0.05793210    0.03754166
     atom   29 type  1   force =     0.02037338   -0.01091887    0.00779536
     atom   30 type  1   force =    -0.02037338   -0.01091887   -0.00779536
     atom   31 type  2   force =    -0.01719954   -0.07354551   -0.01014095
     atom   32 type  2   force =     0.01719954   -0.07354551    0.01014095
     atom   33 type  1   force =     0.07712913   -0.01595363    0.00508158
     atom   34 type  1   force =    -0.07712913   -0.01595363   -0.00508158
     atom   35 type  3   force =    -0.00388138   -0.00100895   -0.00981859
     atom   36 type  3   force =     0.00388138   -0.00100895    0.00981859
     atom   37 type  1   force =    -0.01963340    0.02033692   -0.00187409
     atom   38 type  1   force =     0.01963340    0.02033692    0.00187409
     atom   39 type  3   force =     0.00850160   -0.00162687   -0.00128232
     atom   40 type  3   force =    -0.00850160   -0.00162687    0.00128232
     atom   41 type  2   force =     0.02409166    0.08064799   -0.00227624
     atom   42 type  2   force =    -0.02409166    0.08064799    0.00227624
     atom   43 type  1   force =    -0.08223181    0.01293640   -0.00678358
     atom   44 type  1   force =     0.08223181    0.01293640    0.00678358
     atom   45 type  3   force =     0.00409568   -0.00001836    0.00874802
     atom   46 type  3   force =    -0.00409568   -0.00001836   -0.00874802
     atom   47 type  1   force =    -0.00503236    0.00601755    0.00949319
     atom   48 type  1   force =     0.00503236    0.00601755   -0.00949319
     atom   49 type  2   force =    -0.05040334   -0.07421604   -0.03090498
     atom   50 type  2   force =     0.05040334   -0.07421604    0.03090498
     atom   51 type  3   force =     0.00113832    0.00419765   -0.00029434
     atom   52 type  3   force =    -0.00113832    0.00419765    0.00029434
     atom   53 type  3   force =     0.00299673   -0.00096969   -0.00654279
     atom   54 type  3   force =    -0.00299673   -0.00096969    0.00654279
     atom   55 type  4   force =     0.04182255    0.05575041    0.03857660
     atom   56 type  4   force =    -0.04182255    0.05575041   -0.03857660
     atom   57 type  1   force =    -0.02016363   -0.03402739   -0.03495296
     atom   58 type  1   force =     0.02016363   -0.03402739    0.03495296
     atom   59 type  1   force =     0.03909103   -0.04493389    0.02196103
     atom   60 type  1   force =    -0.03909103   -0.04493389   -0.02196103
     atom   61 type  3   force =    -0.00278686   -0.00524334    0.01365090
     atom   62 type  3   force =     0.00278686   -0.00524334   -0.01365090
     atom   63 type  1   force =     0.03068404   -0.02453087    0.03328598
     atom   64 type  1   force =    -0.03068404   -0.02453087   -0.03328598
     atom   65 type  3   force =    -0.00118083   -0.00261557    0.00638265
     atom   66 type  3   force =     0.00118083   -0.00261557   -0.00638265
     atom   67 type  1   force =     0.01610581    0.02747147    0.01885286
     atom   68 type  1   force =    -0.01610581    0.02747147   -0.01885286
     atom   69 type  1   force =    -0.02724748    0.04866785   -0.01041982
     atom   70 type  1   force =     0.02724748    0.04866785    0.01041982
     atom   71 type  3   force =    -0.00157190    0.00925658   -0.01302633
     atom   72 type  3   force =     0.00157190    0.00925658    0.01302633
     atom   73 type  1   force =    -0.03550919    0.01925799   -0.02800337
     atom   74 type  1   force =     0.03550919    0.01925799    0.02800337
     atom   75 type  3   force =     0.00166892    0.00233521   -0.00678243
     atom   76 type  3   force =    -0.00166892    0.00233521    0.00678243
     atom   77 type  2   force =     0.01496784    0.00665291   -0.00967987
     atom   78 type  2   force =    -0.01496784    0.00665291    0.00967987
     atom   79 type  4   force =     0.04070610    0.02255861   -0.01654085
     atom   80 type  4   force =    -0.04070610    0.02255861    0.01654085
     atom   81 type  4   force =    -0.05881510   -0.03393358    0.01206340
     atom   82 type  4   force =     0.05881510   -0.03393358   -0.01206340
     atom   83 type  1   force =    -0.00709641    0.01074174    0.00240898
     atom   84 type  1   force =     0.00709641    0.01074174   -0.00240898
     atom   85 type  4   force =    -0.02135259   -0.03795221    0.04396296
     atom   86 type  4   force =     0.02135259   -0.03795221   -0.04396296
     atom   87 type  4   force =     0.03491064    0.04017318   -0.02514894
     atom   88 type  4   force =    -0.03491064    0.04017318    0.02514894
     atom   89 type  3   force =    -0.00211564   -0.00487841   -0.00652672
     atom   90 type  3   force =     0.00211564   -0.00487841    0.00652672

     Total force =     0.482705     Total SCF correction =     0.000133


     Computing stress (Cartesian axis) and pressure

          total   stress  (Ry/bohr**3)                   (kbar)     P=   84.40
   0.00099102   0.00000000  -0.00003226        145.78      0.00     -4.75
   0.00000000   0.00057102   0.00000000          0.00     84.00      0.00
  -0.00003226   0.00000000   0.00015920         -4.75      0.00     23.42


     Writing output data file scf.save
 
     init_run     :     46.21s CPU     47.67s WALL (       1 calls)
     electrons    :   1925.97s CPU   1995.83s WALL (       1 calls)
     forces       :     23.04s CPU     23.24s WALL (       1 calls)
     stress       :     98.67s CPU     98.97s WALL (       1 calls)

     Called by init_run:
     wfcinit      :     36.44s CPU     37.78s WALL (       1 calls)
     potinit      :      3.49s CPU      3.52s WALL (       1 calls)

     Called by electrons:
     c_bands      :   1740.09s CPU   1799.87s WALL (      20 calls)
     sum_band     :    171.60s CPU    180.24s WALL (      20 calls)
     v_of_rho     :      2.29s CPU      2.50s WALL (      21 calls)
     newd         :      5.67s CPU      6.88s WALL (      21 calls)
     PAW_pot      :      5.59s CPU      5.60s WALL (      21 calls)
     mix_rho      :      0.59s CPU      0.62s WALL (      20 calls)

     Called by c_bands:
     init_us_2    :      8.89s CPU      8.92s WALL (     344 calls)
     cegterg      :   1703.49s CPU   1763.19s WALL (     160 calls)

     Called by sum_band:
     sum_band:bec :      0.11s CPU      0.11s WALL (     160 calls)
     addusdens    :      5.84s CPU      6.99s WALL (      20 calls)

     Called by *egterg:
     h_psi        :    881.74s CPU    927.80s WALL (    1130 calls)
     s_psi        :    209.42s CPU    209.46s WALL (    1130 calls)
     g_psi        :      4.17s CPU      4.17s WALL (     962 calls)
     cdiaghg      :    140.25s CPU    140.23s WALL (    1122 calls)

     Called by h_psi:
     h_psi:pot    :    875.58s CPU    921.55s WALL (    1130 calls)
     h_psi:calbec :    201.09s CPU    201.46s WALL (    1130 calls)
     vloc_psi     :    464.37s CPU    509.94s WALL (    1130 calls)
     add_vuspsi   :    210.12s CPU    210.14s WALL (    1130 calls)

     General routines
     calbec       :    289.74s CPU    290.24s WALL (    1330 calls)
     fft          :      2.37s CPU      2.72s WALL (     297 calls)
     fftw         :    505.41s CPU    554.61s WALL (  193438 calls)
 
     Parallel routines
     fft_scatter  :    105.82s CPU    145.90s WALL (  193735 calls)
 
     PWSCF        : 35m 4.25s CPU    37m 1.90s WALL

 
   This run was terminated on:   9: 0:19  21Dec2017            

=------------------------------------------------------------------------------=
   JOB DONE.
=------------------------------------------------------------------------------=
