
     Program PWSCF v.6.1 (svn rev. 13369) starts on  5Nov2017 at  1:41:57 

     This program is part of the open-source Quantum ESPRESSO suite
     for quantum simulation of materials; please cite
         "P. Giannozzi et al., J. Phys.:Condens. Matter 21 395502 (2009);
          URL http://www.quantum-espresso.org", 
     in publications or presentations arising from this work. More details at
     http://www.quantum-espresso.org/quote

     Parallel version (MPI), running on     8 processors
     R & G space division:  proc/nbgrp/npool/nimage =       8
     Waiting for input...
     Reading input from standard input

     Current dimensions of program PWSCF are:
     Max number of different atomic species (ntypx) = 10
     Max number of k-points (npk) =  40000
     Max angular momentum in pseudopotentials (lmaxx) =  3
               file C.pbe-n-kjpaw_psl.0.1.UPF: wavefunction(s)  2P renormalized
               file N.pbe-n-kjpaw_psl.0.1.UPF: wavefunction(s)  2P renormalized
               file H.pbe-kjpaw_psl.0.1.UPF: wavefunction(s)  1S renormalized
               file O.pbe-n-kjpaw_psl.0.1.UPF: wavefunction(s)  2P renormalized

     -------------------------------------
     Parameters for Dispersion Correction:
     -------------------------------------
       atom      VdW radius       C_6     

        C          2.744         60.710
        N          2.640         42.670
        H          1.892          4.857
        O          2.536         24.284

     Subspace diagonalization in iterative solution of the eigenvalue problem:
     a serial algorithm will be used

 
     Parallelization info
     --------------------
     sticks:   dense  smooth     PW     G-vecs:    dense   smooth      PW
     Min         729     729    194                49406    49406    6810
     Max         730     730    195                49408    49408    6813
     Sum        5833    5833   1557               395255   395255   54493
 


     bravais-lattice index     =            0
     lattice parameter (alat)  =      12.9182  a.u.
     unit-cell volume          =    2926.3139 (a.u.)^3
     number of atoms/cell      =           48
     number of atomic types    =            4
     number of electrons       =       196.00
     number of Kohn-Sham states=          117
     kinetic-energy cutoff     =     100.0000  Ry
     charge density cutoff     =     400.0000  Ry
     convergence threshold     =      1.0E-08
     mixing beta               =       0.5000
     number of iterations used =            8  plain     mixing
     Exchange-correlation      =  SLA  PW   PBX  PBC ( 1  4  3  4 0 0)

     celldm(1)=  12.918168  celldm(2)=   0.000000  celldm(3)=   0.000000
     celldm(4)=   0.000000  celldm(5)=   0.000000  celldm(6)=   0.000000

     crystal axes: (cart. coord. in units of alat)
               a(1) = (   1.000000   0.000000   0.000000 )  
               a(2) = (   0.204447   1.098813   0.000000 )  
               a(3) = (   0.331206   0.111767   1.235362 )  

     reciprocal axes: (cart. coord. in units 2 pi/alat)
               b(1) = (  1.000000 -0.186061 -0.251271 )  
               b(2) = (  0.000000  0.910073 -0.082337 )  
               b(3) = (  0.000000  0.000000  0.809479 )  


     PseudoPot. # 1 for  C read from file:
     /scratch/ahofstet/pseudo/C.pbe-n-kjpaw_psl.0.1.UPF
     MD5 check sum: 430fe95172b1e11ef3f8ed03bac87931
     Pseudo is Projector augmented-wave + core cor, Zval =  4.0
     Generated using "atomic" code by A. Dal Corso  v.5.0.99 svn rev. 10869
     Shape of augmentation charge: BESSEL
     Using radial grid of 1073 points,  4 beta functions with: 
                l(1) =   0
                l(2) =   0
                l(3) =   1
                l(4) =   1
     Q(r) pseudized with 0 coefficients 


     PseudoPot. # 2 for  N read from file:
     /scratch/ahofstet/pseudo/N.pbe-n-kjpaw_psl.0.1.UPF
     MD5 check sum: f73187c8b701007e77325f868c9291d7
     Pseudo is Projector augmented-wave + core cor, Zval =  5.0
     Generated using "atomic" code by A. Dal Corso  v.5.0.99 svn rev. 10869
     Shape of augmentation charge: PSQ
     Using radial grid of 1085 points,  4 beta functions with: 
                l(1) =   0
                l(2) =   0
                l(3) =   1
                l(4) =   1
     Q(r) pseudized with 0 coefficients 


     PseudoPot. # 3 for  H read from file:
     /scratch/ahofstet/pseudo/H.pbe-kjpaw_psl.0.1.UPF
     MD5 check sum: 94e484f906d9e9773b2f6e52662335b2
     Pseudo is Projector augmented-wave, Zval =  1.0
     Generated using "atomic" code by A. Dal Corso  v.5.0.99 svn rev. 10869
     Shape of augmentation charge: PSQ
     Using radial grid of  929 points,  2 beta functions with: 
                l(1) =   0
                l(2) =   0
     Q(r) pseudized with 0 coefficients 


     PseudoPot. # 4 for  O read from file:
     /scratch/ahofstet/pseudo/O.pbe-n-kjpaw_psl.0.1.UPF
     MD5 check sum: 3f94a2996a3169367d6eb21d9b593f20
     Pseudo is Projector augmented-wave + core cor, Zval =  6.0
     Generated using "atomic" code by A. Dal Corso  v.5.0.99 svn rev. 10869
     Shape of augmentation charge: BESSEL
     Using radial grid of 1095 points,  4 beta functions with: 
                l(1) =   0
                l(2) =   0
                l(3) =   1
                l(4) =   1
     Q(r) pseudized with 0 coefficients 


     atomic species   valence    mass     pseudopotential
        C              4.00    12.01070      C( 1.00)
        N              5.00    14.00670      N( 1.00)
        H              1.00     1.00794      H( 1.00)
        O              6.00    15.99940      O( 1.00)

      2 Sym. Ops., with inversion, found



   Cartesian axes

     site n.     atom                  positions (alat units)
         1           N   tau(   1) = (   0.4816164   0.5117936   0.1998422  )
         2           N   tau(   2) = (   1.0540365   0.6987861   1.0355199  )
         3           N   tau(   3) = (   0.4127949   0.6808525   0.1017367  )
         4           N   tau(   4) = (   1.1228580   0.5297272   1.1336254  )
         5           O   tau(   5) = (   0.6294137   0.7647442   1.2009398  )
         6           O   tau(   6) = (   0.9062392   0.4458355   0.0344223  )
         7           O   tau(   7) = (   0.4787017   0.8390456   0.1537440  )
         8           O   tau(   8) = (   1.0569512   0.3715341   1.0816181  )
         9           C   tau(   9) = (   0.6081381   0.5451237   0.3681443  )
        10           C   tau(  10) = (   0.9275148   0.6654560   0.8672178  )
        11           H   tau(  11) = (   0.7114994   0.6626769   0.3357539  )
        12           H   tau(  12) = (   0.8241535   0.5479028   0.8996082  )
        13           C   tau(  13) = (   0.7127738   0.3474786   0.4249798  )
        14           C   tau(  14) = (   0.8228791   0.8631011   0.8103823  )
        15           H   tau(  15) = (   0.8720760   0.3586121   0.4213749  )
        16           H   tau(  16) = (   0.6635769   0.8519676   0.8139872  )
        17           N   tau(  17) = (   0.6486900   0.1936465   0.2936634  )
        18           N   tau(  18) = (   0.8869629   1.0169332   0.9416987  )
        19           N   tau(  19) = (   0.7712244   0.0319857   0.2642229  )
        20           N   tau(  20) = (   0.7644285   1.1785940   0.9711392  )
        21           O   tau(  21) = (   0.9381971   0.0420672   0.3290036  )
        22           O   tau(  22) = (   0.5974558   1.1685125   0.9063585  )
        23           O   tau(  23) = (   0.9073561   0.9927491   0.1698375  )
        24           O   tau(  24) = (   0.6282968   0.2178306   1.0655246  )
        25           C   tau(  25) = (   0.4398969   0.1621396   0.2795013  )
        26           C   tau(  26) = (   1.0957560   1.0484401   0.9558608  )
        27           H   tau(  27) = (   0.4107851   0.0457994   0.1751573  )
        28           H   tau(  28) = (   1.1248678   1.1647803   1.0602048  )
        29           C   tau(  29) = (   0.3357036   0.3574166   0.2228623  )
        30           C   tau(  30) = (   1.1999493   0.8531631   1.0124998  )
        31           H   tau(  31) = (   0.2491784   0.3451881   0.0893729  )
        32           H   tau(  32) = (   1.2864745   0.8653916   1.1459892  )
        33           O   tau(  33) = (   0.5011737   0.5958832   0.5394580  )
        34           O   tau(  34) = (   1.0344791   0.6146965   0.6959041  )
        35           O   tau(  35) = (   0.6506321   0.3160856   0.6219560  )
        36           O   tau(  36) = (   0.8850208   0.8944941   0.6134061  )
        37           O   tau(  37) = (   0.3568031   0.1136913   0.4640762  )
        38           O   tau(  38) = (   1.1788497   1.0968884   0.7712859  )
        39           O   tau(  39) = (   0.2091886   0.3962123   0.3829953  )
        40           O   tau(  40) = (   1.3264643   0.8143674   0.8523668  )
        41           C   tau(  41) = (   0.4688418   0.4150935   0.6382223  )
        42           C   tau(  42) = (   1.0668111   0.7954862   0.5971398  )
        43           H   tau(  43) = (   0.4397230   0.4451725   0.7926892  )
        44           H   tau(  44) = (   1.0959299   0.7654072   0.4426729  )
        45           C   tau(  45) = (   0.2928443   0.2938170   0.5445003  )
        46           C   tau(  46) = (   1.2428086   0.9167627   0.6908618  )
        47           H   tau(  47) = (   1.1795031   0.2640415   0.6531626  )
        48           H   tau(  48) = (   0.3561498   0.9465382   0.5821995  )

     number of k points=    10
                       cart. coord. in units 2pi/alat
        k(    1) = (   0.0000000   0.0000000   0.0000000), wk =   0.1111111
        k(    2) = (   0.0000000   0.0000000  -0.4047396), wk =   0.1111111
        k(    3) = (   0.0000000   0.3033576  -0.0274456), wk =   0.2222222
        k(    4) = (   0.0000000   0.3033576  -0.4321852), wk =   0.2222222
        k(    5) = (   0.3333333  -0.0620204  -0.0837571), wk =   0.2222222
        k(    6) = (   0.3333333  -0.0620204  -0.4884967), wk =   0.2222222
        k(    7) = (   0.3333333   0.2413372  -0.1112026), wk =   0.2222222
        k(    8) = (   0.3333333   0.2413372  -0.5159423), wk =   0.2222222
        k(    9) = (   0.3333333  -0.3653780  -0.0563115), wk =   0.2222222
        k(   10) = (   0.3333333  -0.3653780  -0.4610511), wk =   0.2222222

     Dense  grid:   395255 G-vectors     FFT dimensions: (  90,  96, 108)

     Estimated max dynamical RAM per process >     276.53MB

     Estimated total allocated dynamical RAM >    2212.25MB

     Check: negative/imaginary core charge=   -0.000003    0.000000

     Initial potential from superposition of free atoms

     starting charge  195.99930, renormalised to  196.00000
     Starting wfc are  156 randomized atomic wfcs
     Checking if some PAW data can be deallocated... 

     total cpu time spent up to now is       13.3 secs

     per-process dynamical memory:   265.0 Mb

     Self-consistent Calculation

     iteration #  1     ecut=   100.00 Ry     beta=0.50
     Davidson diagonalization with overlap
     ethr =  1.00E-02,  avg # of iterations =  3.0

     total cpu time spent up to now is       41.8 secs

     total energy              =   -1125.71954793 Ry
     Harris-Foulkes estimate   =   -1127.93196955 Ry
     estimated scf accuracy    <       4.20910865 Ry

     iteration #  2     ecut=   100.00 Ry     beta=0.50
     Davidson diagonalization with overlap
     ethr =  2.15E-03,  avg # of iterations =  3.1

     total cpu time spent up to now is       63.4 secs

     total energy              =   -1126.40076325 Ry
     Harris-Foulkes estimate   =   -1127.04098757 Ry
     estimated scf accuracy    <       1.42500147 Ry

     iteration #  3     ecut=   100.00 Ry     beta=0.50
     Davidson diagonalization with overlap
     ethr =  7.27E-04,  avg # of iterations =  3.9

     total cpu time spent up to now is       84.1 secs

     total energy              =   -1126.66969919 Ry
     Harris-Foulkes estimate   =   -1126.73744545 Ry
     estimated scf accuracy    <       0.17973341 Ry

     iteration #  4     ecut=   100.00 Ry     beta=0.50
     Davidson diagonalization with overlap
     ethr =  9.17E-05,  avg # of iterations =  9.3

     total cpu time spent up to now is      111.7 secs

     total energy              =   -1126.69890740 Ry
     Harris-Foulkes estimate   =   -1126.72026210 Ry
     estimated scf accuracy    <       0.05625579 Ry

     iteration #  5     ecut=   100.00 Ry     beta=0.50
     Davidson diagonalization with overlap
     ethr =  2.87E-05,  avg # of iterations =  3.6

     total cpu time spent up to now is      130.2 secs

     total energy              =   -1126.70768253 Ry
     Harris-Foulkes estimate   =   -1126.71002715 Ry
     estimated scf accuracy    <       0.00604744 Ry

     iteration #  6     ecut=   100.00 Ry     beta=0.50
     Davidson diagonalization with overlap
     ethr =  3.09E-06,  avg # of iterations =  7.2

     total cpu time spent up to now is      163.8 secs

     total energy              =   -1126.70980815 Ry
     Harris-Foulkes estimate   =   -1126.71071012 Ry
     estimated scf accuracy    <       0.00255055 Ry

     iteration #  7     ecut=   100.00 Ry     beta=0.50
     Davidson diagonalization with overlap
     ethr =  1.30E-06,  avg # of iterations =  3.0

     total cpu time spent up to now is      181.9 secs

     total energy              =   -1126.71020960 Ry
     Harris-Foulkes estimate   =   -1126.71030926 Ry
     estimated scf accuracy    <       0.00028995 Ry

     iteration #  8     ecut=   100.00 Ry     beta=0.50
     Davidson diagonalization with overlap
     ethr =  1.48E-07,  avg # of iterations =  3.0

     total cpu time spent up to now is      203.3 secs

     total energy              =   -1126.71028216 Ry
     Harris-Foulkes estimate   =   -1126.71028907 Ry
     estimated scf accuracy    <       0.00002623 Ry

     iteration #  9     ecut=   100.00 Ry     beta=0.50
     Davidson diagonalization with overlap
     ethr =  1.34E-08,  avg # of iterations =  3.9

     total cpu time spent up to now is      225.3 secs

     total energy              =   -1126.71028808 Ry
     Harris-Foulkes estimate   =   -1126.71029006 Ry
     estimated scf accuracy    <       0.00000680 Ry

     iteration # 10     ecut=   100.00 Ry     beta=0.50
     Davidson diagonalization with overlap
     ethr =  3.47E-09,  avg # of iterations =  3.0

     total cpu time spent up to now is      245.2 secs

     total energy              =   -1126.71028909 Ry
     Harris-Foulkes estimate   =   -1126.71029037 Ry
     estimated scf accuracy    <       0.00000369 Ry

     iteration # 11     ecut=   100.00 Ry     beta=0.50
     Davidson diagonalization with overlap
     ethr =  1.88E-09,  avg # of iterations =  3.0

     total cpu time spent up to now is      263.4 secs

     total energy              =   -1126.71028983 Ry
     Harris-Foulkes estimate   =   -1126.71028992 Ry
     estimated scf accuracy    <       0.00000032 Ry

     iteration # 12     ecut=   100.00 Ry     beta=0.50
     Davidson diagonalization with overlap
     ethr =  1.63E-10,  avg # of iterations =  3.6

     total cpu time spent up to now is      290.6 secs

     total energy              =   -1126.71028996 Ry
     Harris-Foulkes estimate   =   -1126.71028998 Ry
     estimated scf accuracy    <       0.00000008 Ry

     iteration # 13     ecut=   100.00 Ry     beta=0.50
     Davidson diagonalization with overlap
     ethr =  3.86E-11,  avg # of iterations =  2.1

     total cpu time spent up to now is      308.0 secs

     total energy              =   -1126.71028997 Ry
     Harris-Foulkes estimate   =   -1126.71028997 Ry
     estimated scf accuracy    <       0.00000001 Ry

     iteration # 14     ecut=   100.00 Ry     beta=0.50
     Davidson diagonalization with overlap
     ethr =  5.99E-12,  avg # of iterations =  4.0

     total cpu time spent up to now is      337.1 secs

     End of self-consistent calculation

          k = 0.0000 0.0000 0.0000 ( 49421 PWs)   bands (ev):

   -23.3562 -23.3125 -23.1050 -23.1013 -20.3457 -20.2931 -19.4064 -19.4019
   -18.7061 -18.6956 -18.4327 -18.4298 -17.8541 -17.8128 -17.0707 -17.0094
   -16.6427 -16.6322 -15.6602 -15.5748 -11.7199 -11.6956 -11.4170 -11.3824
    -9.8926  -9.8636  -9.3629  -9.3364  -8.7260  -8.7129  -7.2139  -7.1199
    -6.9989  -6.9587  -6.7060  -6.4883  -6.4684  -6.1932  -5.8730  -5.7417
    -5.7347  -5.6417  -5.4540  -5.4290  -5.3654  -5.2363  -5.1855  -4.9570
    -4.9365  -4.8507  -4.6241  -4.5846  -4.3053  -4.2724  -4.0948  -4.0559
    -3.9255  -3.8704  -3.1298  -3.0842  -2.7218  -2.4249  -2.1014  -1.8549
    -1.5595  -1.4905  -1.3590  -1.2806  -1.2269  -1.0843  -0.9974  -0.9028
    -0.3667  -0.2779  -0.2266  -0.1668  -0.0665   0.1368   0.2331   0.3424
     0.4184   0.4482   0.5244   0.5625   0.6144   0.6209   0.8448   0.8685
     1.1033   1.2113   1.4761   1.4789   1.4873   1.6146   1.8387   1.8415
     2.1649   2.1710   5.2642   5.4461   5.6107   5.6886   7.5600   8.8642
     9.0409   9.1983   9.4389   9.5199   9.6538   9.9943   9.9945  10.1446
    10.1962  10.2490  10.3128  10.4613  10.8649

          k = 0.0000 0.0000-0.4047 ( 49406 PWs)   bands (ev):

   -23.3558 -23.3126 -23.1054 -23.1012 -20.3515 -20.2873 -19.4070 -19.4014
   -18.7064 -18.6954 -18.4323 -18.4294 -17.8520 -17.8155 -17.0692 -17.0112
   -16.6731 -16.6020 -15.6260 -15.6085 -11.7492 -11.6629 -11.4221 -11.3799
    -9.8997  -9.8602  -9.3685  -9.3392  -8.7215  -8.7159  -7.2013  -7.1317
    -6.9534  -6.9303  -6.5853  -6.5447  -6.4527  -6.3869  -5.9127  -5.7534
    -5.7346  -5.5965  -5.4282  -5.4083  -5.3198  -5.2751  -5.2359  -4.9771
    -4.9108  -4.8069  -4.6017  -4.5746  -4.4361  -4.1946  -4.1083  -4.0945
    -3.9458  -3.7063  -3.1292  -3.0876  -2.6782  -2.5206  -2.0659  -1.8826
    -1.5521  -1.4973  -1.3797  -1.3033  -1.2702  -1.0758  -1.0004  -0.8759
    -0.3975  -0.3273  -0.1974  -0.1942   0.0017   0.1455   0.2408   0.3376
     0.4055   0.4356   0.5316   0.5666   0.6034   0.6566   0.7994   0.9175
     1.1443   1.1879   1.4158   1.4714   1.5101   1.6453   1.8438   1.8534
     2.1491   2.1940   5.2592   5.4496   5.6315   5.6705   8.1479   8.1527
     8.9942   9.3137   9.4758   9.5692   9.6718   9.8138   9.8647  10.0964
    10.2035  10.3098  10.5362  10.5739  10.7094

          k = 0.0000 0.3034-0.0274 ( 49454 PWs)   bands (ev):

   -23.3546 -23.3129 -23.1071 -23.1003 -20.3425 -20.2970 -19.4103 -19.4006
   -18.7043 -18.6949 -18.4333 -18.4289 -17.8457 -17.8203 -17.0663 -17.0133
   -16.6529 -16.6206 -15.6512 -15.5903 -11.7230 -11.6519 -11.4207 -11.3664
    -9.9123  -9.8504  -9.4435  -9.3484  -8.7630  -8.7089  -7.2193  -7.1193
    -7.0093  -6.9436  -6.5590  -6.4526  -6.3963  -6.1495  -5.9555  -5.8858
    -5.8155  -5.6177  -5.4427  -5.4086  -5.3255  -5.2856  -5.1445  -4.9948
    -4.9218  -4.8519  -4.6234  -4.5504  -4.4661  -4.3381  -4.0825  -4.0085
    -3.8545  -3.7242  -3.1025  -3.0279  -2.7175  -2.4526  -2.1323  -1.9031
    -1.5586  -1.5540  -1.3574  -1.2796  -1.1914  -1.0950  -1.0259  -0.8277
    -0.3772  -0.2794  -0.1805  -0.1167  -0.0380   0.0380   0.2629   0.3283
     0.4278   0.4400   0.4947   0.5243   0.5543   0.5958   0.7997   0.9071
     1.1624   1.2381   1.4419   1.4806   1.4966   1.6052   1.8222   1.8572
     2.0796   2.2459   5.1978   5.4350   5.5960   5.7663   7.9627   8.8490
     9.0860   9.1574   9.2172   9.3932   9.5398   9.6527   9.8163  10.1897
    10.2309  10.3372  10.4923  10.5262  10.9884

          k = 0.0000 0.3034-0.4322 ( 49423 PWs)   bands (ev):

   -23.3545 -23.3131 -23.1047 -23.1026 -20.3472 -20.2927 -19.4101 -19.4010
   -18.7043 -18.6945 -18.4325 -18.4290 -17.8436 -17.8219 -17.0648 -17.0148
   -16.6574 -16.6163 -15.6425 -15.5996 -11.7220 -11.6551 -11.4318 -11.3561
    -9.9140  -9.8498  -9.4036  -9.3847  -8.7454  -8.7264  -7.1985  -7.1405
    -7.0018  -6.9545  -6.4914  -6.4217  -6.3601  -6.3096  -5.9418  -5.8943
    -5.8164  -5.5668  -5.4502  -5.3960  -5.3890  -5.3051  -5.1197  -5.0573
    -4.8872  -4.7826  -4.6487  -4.5484  -4.4754  -4.3746  -4.0505  -3.9839
    -3.8243  -3.7118  -3.1107  -3.0360  -2.7093  -2.5013  -2.0571  -1.9413
    -1.5775  -1.5225  -1.3479  -1.3130  -1.2424  -1.0790  -1.0084  -0.8401
    -0.3953  -0.2819  -0.2128  -0.1257  -0.0172   0.0990   0.2478   0.3088
     0.3899   0.4386   0.4753   0.5591   0.5845   0.6255   0.7718   0.8856
     1.1838   1.2406   1.4340   1.4759   1.4955   1.6115   1.8516   1.8634
     2.0707   2.2523   5.2298   5.4219   5.6537   5.7084   8.4246   8.5144
     8.9278   9.2268   9.2491   9.4134   9.5879   9.6503   9.6629  10.0422
    10.1879  10.3842  10.6325  10.7107  10.7365

          k = 0.3333-0.0620-0.0838 ( 49390 PWs)   bands (ev):

   -23.3511 -23.3170 -23.1045 -23.1013 -20.3371 -20.2993 -19.4239 -19.3969
   -18.7124 -18.6907 -18.4300 -18.4251 -17.8586 -17.8187 -17.0508 -17.0196
   -16.6543 -16.6156 -15.6444 -15.5902 -11.7399 -11.6740 -11.3913 -11.3723
    -9.9596  -9.8069  -9.3928  -9.3310  -8.7629  -8.7216  -7.1849  -7.1281
    -6.9898  -6.9118  -6.5993  -6.4791  -6.4574  -6.2194  -5.8580  -5.8130
    -5.6704  -5.5880  -5.4954  -5.4432  -5.3507  -5.2984  -5.1653  -5.0554
    -4.9553  -4.9402  -4.6742  -4.5306  -4.3968  -4.3041  -4.1545  -4.0885
    -3.8323  -3.7899  -3.2104  -3.1708  -2.6680  -2.4991  -1.8853  -1.7581
    -1.5751  -1.5053  -1.2855  -1.2466  -1.2072  -1.0677  -0.9579  -0.8389
    -0.4232  -0.3176  -0.1871  -0.1211  -0.0334   0.0768   0.2213   0.3467
     0.4368   0.4638   0.4997   0.5311   0.6121   0.6320   0.7857   0.8874
     1.0561   1.1723   1.4740   1.5060   1.5285   1.6137   1.7768   1.7983
     2.0362   2.2929   5.2889   5.3607   5.6443   5.6842   8.0659   8.8737
     9.0077   9.2128   9.3899   9.4755   9.6732   9.8655   9.9330   9.9839
    10.1813  10.2738  10.4353  10.4939  10.7848

          k = 0.3333-0.0620-0.4885 ( 49395 PWs)   bands (ev):

   -23.3509 -23.3170 -23.1052 -23.1008 -20.3376 -20.2990 -19.4256 -19.3953
   -18.7120 -18.6911 -18.4279 -18.4263 -17.8640 -17.8133 -17.0500 -17.0207
   -16.6591 -16.6111 -15.6406 -15.5933 -11.7691 -11.6428 -11.3991 -11.3666
    -9.9453  -9.8270  -9.3809  -9.3400  -8.7602  -8.7269  -7.1754  -7.1228
    -6.9937  -6.8962  -6.5934  -6.4332  -6.3852  -6.3563  -5.8997  -5.8010
    -5.6951  -5.5633  -5.4735  -5.4247  -5.4047  -5.2564  -5.2257  -5.0764
    -4.9856  -4.8804  -4.6650  -4.5096  -4.4075  -4.3454  -4.1286  -3.9954
    -3.9799  -3.6533  -3.2595  -3.0966  -2.7018  -2.4830  -1.9548  -1.7330
    -1.5599  -1.5160  -1.2859  -1.2575  -1.2379  -1.0652  -0.9623  -0.8307
    -0.4241  -0.3288  -0.1901  -0.1311   0.0351   0.0515   0.2183   0.3426
     0.3994   0.4669   0.5078   0.5632   0.6057   0.6810   0.7568   0.8999
     1.0760   1.1569   1.4257   1.4606   1.5492   1.6676   1.7738   1.8199
     2.0003   2.3129   5.2799   5.3584   5.5870   5.7568   8.4322   8.5924
     9.0070   9.2308   9.3318   9.4635   9.6811   9.7447   9.8264   9.8936
    10.0550  10.2565  10.5612  10.6535  10.7654

          k = 0.3333 0.2413-0.1112 ( 49427 PWs)   bands (ev):

   -23.3508 -23.3169 -23.1061 -23.0999 -20.3313 -20.3058 -19.4355 -19.3881
   -18.7105 -18.6887 -18.4307 -18.4253 -17.8622 -17.8131 -17.0581 -17.0119
   -16.6644 -16.6119 -15.6348 -15.5942 -11.7020 -11.6955 -11.4001 -11.3541
    -9.9163  -9.8730  -9.3840  -9.3594  -8.7680  -8.7465  -7.1808  -7.1371
    -7.0642  -6.9324  -6.5235  -6.4482  -6.3756  -6.1156  -5.9580  -5.8369
    -5.7344  -5.6029  -5.4760  -5.4019  -5.3328  -5.3148  -5.1896  -5.0582
    -4.9341  -4.7983  -4.6725  -4.6300  -4.5034  -4.4570  -4.0552  -4.0369
    -3.9026  -3.6281  -3.2081  -3.0609  -2.6646  -2.5426  -1.9627  -1.7111
    -1.5835  -1.5476  -1.3451  -1.2336  -1.1454  -1.0237  -0.9535  -0.8120
    -0.4977  -0.3237  -0.2538  -0.1772  -0.0179   0.1086   0.2261   0.3443
     0.4394   0.4716   0.4954   0.5180   0.6074   0.6324   0.7939   0.9038
     1.1254   1.2209   1.4132   1.4892   1.5070   1.6062   1.7626   1.8096
     2.0424   2.2786   5.2649   5.3638   5.6221   5.7261   8.2842   8.8401
     8.9702   9.0756   9.3967   9.4296   9.6447   9.7937   9.9612  10.0711
    10.1062  10.4364  10.5214  10.5914  10.7992

          k = 0.3333 0.2413-0.5159 ( 49409 PWs)   bands (ev):

   -23.3508 -23.3169 -23.1040 -23.1019 -20.3325 -20.3051 -19.4388 -19.3847
   -18.7105 -18.6886 -18.4293 -18.4261 -17.8673 -17.8075 -17.0569 -17.0131
   -16.6532 -16.6230 -15.6498 -15.5795 -11.7337 -11.6736 -11.3977 -11.3487
    -9.9202  -9.8655  -9.3838  -9.3611  -8.7872  -8.7278  -7.1833  -7.1332
    -7.0298  -6.9521  -6.4833  -6.4167  -6.3469  -6.2049  -5.9474  -5.8871
    -5.7790  -5.5705  -5.4747  -5.4188  -5.3600  -5.3097  -5.1858  -5.0496
    -4.9002  -4.8521  -4.7318  -4.6371  -4.5948  -4.2544  -4.0311  -3.9580
    -3.9048  -3.6677  -3.1970  -3.0704  -2.6634  -2.5599  -1.9354  -1.7488
    -1.5851  -1.5617  -1.3061  -1.2306  -1.1538  -1.0724  -0.9463  -0.7965
    -0.5267  -0.3569  -0.2517  -0.1473  -0.0134   0.1279   0.2128   0.3279
     0.3878   0.5034   0.5153   0.5399   0.6299   0.6833   0.7912   0.8462
     1.1234   1.2236   1.3980   1.4583   1.5126   1.6520   1.7723   1.8090
     2.0202   2.2803   5.2732   5.3715   5.6554   5.6893   8.5355   8.6875
     8.9682   9.1586   9.3804   9.4815   9.6570   9.7049   9.7545  10.0013
    10.1657  10.3270  10.5309  10.5812  10.7128

          k = 0.3333-0.3654-0.0563 ( 49425 PWs)   bands (ev):

   -23.3501 -23.3172 -23.1064 -23.1000 -20.3345 -20.3023 -19.4360 -19.3880
   -18.7113 -18.6881 -18.4308 -18.4248 -17.8564 -17.8195 -17.0484 -17.0214
   -16.6590 -16.6135 -15.6327 -15.6023 -11.7275 -11.6577 -11.3916 -11.3612
    -9.9426  -9.8397  -9.4353  -9.3444  -8.7824  -8.7307  -7.1883  -7.1302
    -7.0274  -6.9547  -6.4426  -6.4078  -6.3675  -6.2266  -5.9447  -5.8368
    -5.7555  -5.5807  -5.4476  -5.4168  -5.4114  -5.2983  -5.1389  -5.0797
    -4.9710  -4.8814  -4.6619  -4.5463  -4.5270  -4.4294  -4.0923  -3.9942
    -3.9137  -3.5923  -3.2004  -3.0832  -2.6808  -2.5355  -1.9597  -1.7299
    -1.6216  -1.4832  -1.3302  -1.2005  -1.1479  -1.0979  -0.9769  -0.8126
    -0.4280  -0.3427  -0.1786  -0.1450  -0.0052   0.0745   0.2143   0.3460
     0.4315   0.4371   0.4702   0.4932   0.5688   0.6448   0.7668   0.9283
     1.1532   1.2068   1.4231   1.4856   1.5177   1.6063   1.7680   1.8139
     2.0934   2.2207   5.2325   5.3777   5.6085   5.7622   8.4622   8.8204
     8.9415   9.0691   9.2699   9.5564   9.6730   9.7508   9.8175  10.1218
    10.2245  10.2672  10.4360  10.6277  10.6957

          k = 0.3333-0.3654-0.4611 ( 49400 PWs)   bands (ev):

   -23.3502 -23.3172 -23.1044 -23.1020 -20.3354 -20.3019 -19.4390 -19.3850
   -18.7112 -18.6881 -18.4293 -18.4258 -17.8620 -17.8133 -17.0470 -17.0230
   -16.6466 -16.6258 -15.6490 -15.5863 -11.7426 -11.6528 -11.3839 -11.3619
    -9.9362  -9.8444  -9.3988  -9.3751  -8.7858  -8.7294  -7.1804  -7.1323
    -7.0236  -6.9612  -6.5018  -6.3801  -6.3046  -6.2368  -5.9263  -5.8366
    -5.7824  -5.5743  -5.4878  -5.4082  -5.3598  -5.3127  -5.1888  -5.1216
    -5.0139  -4.8252  -4.6986  -4.6593  -4.5203  -4.2734  -4.0463  -3.9712
    -3.8351  -3.6813  -3.1909  -3.1037  -2.7018  -2.5150  -1.8942  -1.7716
    -1.6246  -1.5118  -1.3033  -1.1945  -1.1729  -1.1198  -0.9727  -0.8193
    -0.4427  -0.3255  -0.2393  -0.0677  -0.0146   0.0569   0.2144   0.3380
     0.3659   0.4582   0.5075   0.5308   0.5600   0.7067   0.7533   0.8795
     1.1562   1.2131   1.4310   1.4397   1.5320   1.6342   1.7846   1.8078
     2.1011   2.1930   5.2541   5.3674   5.6232   5.7512   8.7348   8.8820
     8.9334   9.0775   9.1262   9.4583   9.6005   9.6454   9.8229  10.0367
    10.1386  10.3071  10.3783  10.6180  10.7451

     highest occupied, lowest unoccupied level (ev):     2.3129    5.1978

!    total energy              =   -1126.71028997 Ry
     Harris-Foulkes estimate   =   -1126.71028997 Ry
     estimated scf accuracy    <          7.0E-09 Ry

     total all-electron energy =     -4211.820142 Ry

     The total energy is the sum of the following terms:

     one-electron contribution =    -583.16041592 Ry
     hartree contribution      =     381.40500440 Ry
     xc contribution           =    -220.09454093 Ry
     ewald contribution        =    -406.27615706 Ry
     Dispersion Correction     =      -0.25917125 Ry
     one-center paw contrib.   =    -298.32500921 Ry

     convergence has been achieved in  14 iterations

     Forces acting on atoms (cartesian axes, Ry/au):

     atom    1 type  2   force =    -0.00093424   -0.00092790   -0.00006514
     atom    2 type  2   force =     0.00093424    0.00092790    0.00006514
     atom    3 type  2   force =    -0.00207065   -0.00110196   -0.00221793
     atom    4 type  2   force =     0.00207065    0.00110196    0.00221793
     atom    5 type  4   force =    -0.00050171    0.00038343    0.00215602
     atom    6 type  4   force =     0.00050171   -0.00038343   -0.00215602
     atom    7 type  4   force =     0.00360596    0.00284019    0.00083093
     atom    8 type  4   force =    -0.00360596   -0.00284019   -0.00083093
     atom    9 type  1   force =    -0.00039716   -0.00091157    0.00023615
     atom   10 type  1   force =     0.00039716    0.00091157   -0.00023615
     atom   11 type  3   force =    -0.00066913   -0.00022948   -0.00107589
     atom   12 type  3   force =     0.00066913    0.00022948    0.00107589
     atom   13 type  1   force =     0.00026511    0.00088786    0.00118386
     atom   14 type  1   force =    -0.00026511   -0.00088786   -0.00118386
     atom   15 type  3   force =    -0.00046405   -0.00019426   -0.00116807
     atom   16 type  3   force =     0.00046405    0.00019426    0.00116807
     atom   17 type  2   force =     0.00108042    0.00124460   -0.00053615
     atom   18 type  2   force =    -0.00108042   -0.00124460    0.00053615
     atom   19 type  2   force =     0.00065356   -0.00154810    0.00049146
     atom   20 type  2   force =    -0.00065356    0.00154810   -0.00049146
     atom   21 type  4   force =     0.00114428    0.00180698   -0.00242348
     atom   22 type  4   force =    -0.00114428   -0.00180698    0.00242348
     atom   23 type  4   force =     0.00027971    0.00119634    0.00219400
     atom   24 type  4   force =    -0.00027971   -0.00119634   -0.00219400
     atom   25 type  1   force =    -0.00288609    0.00209075    0.00049654
     atom   26 type  1   force =     0.00288609   -0.00209075   -0.00049654
     atom   27 type  3   force =    -0.00131326   -0.00261117   -0.00122609
     atom   28 type  3   force =     0.00131326    0.00261117    0.00122609
     atom   29 type  1   force =     0.00156030   -0.00206894   -0.00109152
     atom   30 type  1   force =    -0.00156030    0.00206894    0.00109152
     atom   31 type  3   force =     0.00024812   -0.00001773   -0.00019210
     atom   32 type  3   force =    -0.00024812    0.00001773    0.00019210
     atom   33 type  4   force =     0.00020145   -0.00021179    0.00078597
     atom   34 type  4   force =    -0.00020145    0.00021179   -0.00078597
     atom   35 type  4   force =    -0.00012550   -0.00129619   -0.00025366
     atom   36 type  4   force =     0.00012550    0.00129619    0.00025366
     atom   37 type  4   force =    -0.00076172    0.00028215    0.00011630
     atom   38 type  4   force =     0.00076172   -0.00028215   -0.00011630
     atom   39 type  4   force =    -0.00073130   -0.00133437    0.00108038
     atom   40 type  4   force =     0.00073130    0.00133437   -0.00108038
     atom   41 type  1   force =    -0.00033277    0.00093779    0.00148458
     atom   42 type  1   force =     0.00033277   -0.00093779   -0.00148458
     atom   43 type  3   force =    -0.00011645    0.00088489    0.00014903
     atom   44 type  3   force =     0.00011645   -0.00088489   -0.00014903
     atom   45 type  1   force =     0.00008898    0.00034608   -0.00032558
     atom   46 type  1   force =    -0.00008898   -0.00034608    0.00032558
     atom   47 type  3   force =    -0.00072148    0.00094490    0.00050988
     atom   48 type  3   force =     0.00072148   -0.00094490   -0.00050988

     Total force =     0.014962     Total SCF correction =     0.000236


     Computing stress (Cartesian axis) and pressure

          total   stress  (Ry/bohr**3)                   (kbar)     P=    1.83
   0.00001802   0.00001074  -0.00001665          2.65      1.58     -2.45
   0.00001074   0.00000449  -0.00000047          1.58      0.66     -0.07
  -0.00001665  -0.00000047   0.00001485         -2.45     -0.07      2.18


     Writing output data file scf.save
 
     init_run     :     12.34s CPU     12.77s WALL (       1 calls)
     electrons    :    308.78s CPU    323.93s WALL (       1 calls)
     forces       :      6.16s CPU      6.22s WALL (       1 calls)
     stress       :     24.50s CPU     24.52s WALL (       1 calls)

     Called by init_run:
     wfcinit      :      7.66s CPU      8.01s WALL (       1 calls)
     potinit      :      1.64s CPU      1.69s WALL (       1 calls)

     Called by electrons:
     c_bands      :    270.95s CPU    284.30s WALL (      14 calls)
     sum_band     :     32.87s CPU     34.41s WALL (      14 calls)
     v_of_rho     :      0.75s CPU      0.83s WALL (      15 calls)
     newd         :      1.49s CPU      1.52s WALL (      15 calls)
     PAW_pot      :      2.46s CPU      2.48s WALL (      15 calls)
     mix_rho      :      0.17s CPU      0.18s WALL (      14 calls)

     Called by c_bands:
     init_us_2    :      2.71s CPU      2.72s WALL (     310 calls)
     cegterg      :    262.11s CPU    275.41s WALL (     140 calls)

     Called by sum_band:
     sum_band:bec :      0.03s CPU      0.03s WALL (     140 calls)
     addusdens    :      1.57s CPU      1.60s WALL (      14 calls)

     Called by *egterg:
     h_psi        :    167.45s CPU    176.79s WALL (     707 calls)
     s_psi        :     20.09s CPU     20.10s WALL (     707 calls)
     g_psi        :      1.21s CPU      1.21s WALL (     557 calls)
     cdiaghg      :     21.50s CPU     21.50s WALL (     697 calls)

     Called by h_psi:
     h_psi:pot    :    165.86s CPU    175.17s WALL (     707 calls)
     h_psi:calbec :     19.53s CPU     19.65s WALL (     707 calls)
     vloc_psi     :    126.29s CPU    135.46s WALL (     707 calls)
     add_vuspsi   :     20.04s CPU     20.05s WALL (     707 calls)

     General routines
     calbec       :     28.97s CPU     29.14s WALL (     897 calls)
     fft          :      0.54s CPU      0.67s WALL (     219 calls)
     fftw         :    134.55s CPU    144.66s WALL (  109748 calls)
 
     Parallel routines
     fft_scatter  :     32.03s CPU     37.84s WALL (  109967 calls)
 
     PWSCF        :  5m55.79s CPU     6m12.45s WALL

 
   This run was terminated on:   1:48: 9   5Nov2017            

=------------------------------------------------------------------------------=
   JOB DONE.
=------------------------------------------------------------------------------=
