
     Program PWSCF v.6.1 (svn rev. 13369) starts on  4Nov2017 at  3: 3:42 

     This program is part of the open-source Quantum ESPRESSO suite
     for quantum simulation of materials; please cite
         "P. Giannozzi et al., J. Phys.:Condens. Matter 21 395502 (2009);
          URL http://www.quantum-espresso.org", 
     in publications or presentations arising from this work. More details at
     http://www.quantum-espresso.org/quote

     Parallel version (MPI), running on     8 processors
     R & G space division:  proc/nbgrp/npool/nimage =       8
     Waiting for input...
     Reading input from standard input

     Current dimensions of program PWSCF are:
     Max number of different atomic species (ntypx) = 10
     Max number of k-points (npk) =  40000
     Max angular momentum in pseudopotentials (lmaxx) =  3
               file C.pbe-n-kjpaw_psl.0.1.UPF: wavefunction(s)  2P renormalized
               file N.pbe-n-kjpaw_psl.0.1.UPF: wavefunction(s)  2P renormalized
               file H.pbe-kjpaw_psl.0.1.UPF: wavefunction(s)  1S renormalized
               file O.pbe-n-kjpaw_psl.0.1.UPF: wavefunction(s)  2P renormalized

     -------------------------------------
     Parameters for Dispersion Correction:
     -------------------------------------
       atom      VdW radius       C_6     

        C          2.744         60.710
        N          2.640         42.670
        H          1.892          4.857
        O          2.536         24.284

     Subspace diagonalization in iterative solution of the eigenvalue problem:
     a serial algorithm will be used

 
     Parallelization info
     --------------------
     sticks:   dense  smooth     PW     G-vecs:    dense   smooth      PW
     Min        1291    1291    340                78652    78652   10614
     Max        1292    1292    341                78654    78654   10616
     Sum       10333   10333   2725               629223   629223   84919
 


     bravais-lattice index     =            0
     lattice parameter (alat)  =      12.4268  a.u.
     unit-cell volume          =    4656.8700 (a.u.)^3
     number of atoms/cell      =           64
     number of atomic types    =            4
     number of electrons       =       216.00
     number of Kohn-Sham states=          129
     kinetic-energy cutoff     =     100.0000  Ry
     charge density cutoff     =     400.0000  Ry
     convergence threshold     =      1.0E-08
     mixing beta               =       0.5000
     number of iterations used =            8  plain     mixing
     Exchange-correlation      =  SLA  PW   PBX  PBC ( 1  4  3  4 0 0)

     celldm(1)=  12.426839  celldm(2)=   0.000000  celldm(3)=   0.000000
     celldm(4)=   0.000000  celldm(5)=   0.000000  celldm(6)=   0.000000

     crystal axes: (cart. coord. in units of alat)
               a(1) = (   1.000000   0.000000   0.000000 )  
               a(2) = (   0.000000   2.101429   0.000000 )  
               a(3) = (  -0.042747   0.000000   1.154775 )  

     reciprocal axes: (cart. coord. in units 2 pi/alat)
               b(1) = (  1.000000  0.000000  0.037018 )  
               b(2) = (  0.000000  0.475867  0.000000 )  
               b(3) = (  0.000000  0.000000  0.865970 )  


     PseudoPot. # 1 for  C read from file:
     /scratch/ahofstet/pseudo/C.pbe-n-kjpaw_psl.0.1.UPF
     MD5 check sum: 430fe95172b1e11ef3f8ed03bac87931
     Pseudo is Projector augmented-wave + core cor, Zval =  4.0
     Generated using "atomic" code by A. Dal Corso  v.5.0.99 svn rev. 10869
     Shape of augmentation charge: BESSEL
     Using radial grid of 1073 points,  4 beta functions with: 
                l(1) =   0
                l(2) =   0
                l(3) =   1
                l(4) =   1
     Q(r) pseudized with 0 coefficients 


     PseudoPot. # 2 for  N read from file:
     /scratch/ahofstet/pseudo/N.pbe-n-kjpaw_psl.0.1.UPF
     MD5 check sum: f73187c8b701007e77325f868c9291d7
     Pseudo is Projector augmented-wave + core cor, Zval =  5.0
     Generated using "atomic" code by A. Dal Corso  v.5.0.99 svn rev. 10869
     Shape of augmentation charge: PSQ
     Using radial grid of 1085 points,  4 beta functions with: 
                l(1) =   0
                l(2) =   0
                l(3) =   1
                l(4) =   1
     Q(r) pseudized with 0 coefficients 


     PseudoPot. # 3 for  H read from file:
     /scratch/ahofstet/pseudo/H.pbe-kjpaw_psl.0.1.UPF
     MD5 check sum: 94e484f906d9e9773b2f6e52662335b2
     Pseudo is Projector augmented-wave, Zval =  1.0
     Generated using "atomic" code by A. Dal Corso  v.5.0.99 svn rev. 10869
     Shape of augmentation charge: PSQ
     Using radial grid of  929 points,  2 beta functions with: 
                l(1) =   0
                l(2) =   0
     Q(r) pseudized with 0 coefficients 


     PseudoPot. # 4 for  O read from file:
     /scratch/ahofstet/pseudo/O.pbe-n-kjpaw_psl.0.1.UPF
     MD5 check sum: 3f94a2996a3169367d6eb21d9b593f20
     Pseudo is Projector augmented-wave + core cor, Zval =  6.0
     Generated using "atomic" code by A. Dal Corso  v.5.0.99 svn rev. 10869
     Shape of augmentation charge: BESSEL
     Using radial grid of 1095 points,  4 beta functions with: 
                l(1) =   0
                l(2) =   0
                l(3) =   1
                l(4) =   1
     Q(r) pseudized with 0 coefficients 


     atomic species   valence    mass     pseudopotential
        C              4.00    12.01070      C( 1.00)
        N              5.00    14.00670      N( 1.00)
        H              1.00     1.00794      H( 1.00)
        O              6.00    15.99940      O( 1.00)

      2 Sym. Ops., with inversion, found



   Cartesian axes

     site n.     atom                  positions (alat units)
         1           N   tau(   1) = (   0.1883512   0.8032808   0.1891740  )
         2           N   tau(   2) = (   0.1668863   0.2473885   0.7665982  )
         3           N   tau(   3) = (   0.7689015   1.2981487   0.9656008  )
         4           N   tau(   4) = (   0.7903664   1.8540409   0.3881765  )
         5           N   tau(   5) = (   0.0129828   0.7831597   0.2897671  )
         6           N   tau(   6) = (  -0.0084504   0.2674243   0.8672633  )
         7           N   tau(   7) = (   0.9442698   1.3182697   0.8650076  )
         8           N   tau(   8) = (   0.9657031   1.8340051   0.2875114  )
         9           N   tau(   9) = (   0.9513972   0.9686394   0.3243710  )
        10           N   tau(  10) = (   0.9300052   0.0819123   0.9017791  )
        11           N   tau(  11) = (   0.0058555   1.1327900   0.8304037  )
        12           N   tau(  12) = (   0.0272475   2.0195172   0.2529956  )
        13           N   tau(  13) = (   0.0873868   1.1008663   0.2464103  )
        14           N   tau(  14) = (   0.0659883   2.0511808   0.8236931  )
        15           N   tau(  15) = (   0.8698659   1.0005631   0.9083645  )
        16           N   tau(  16) = (   0.8912644   0.0502486   0.3310816  )
        17           N   tau(  17) = (   0.2357694   0.9989520   0.1620567  )
        18           N   tau(  18) = (   0.2143224   0.0517399   0.7393497  )
        19           N   tau(  19) = (   0.7214833   1.1024774   0.9927181  )
        20           N   tau(  20) = (   0.7429303   2.0496896   0.4154250  )
        21           C   tau(  21) = (   0.3101009   0.6367196   0.1225144  )
        22           C   tau(  22) = (   0.2886242   0.4139802   0.6999643  )
        23           C   tau(  23) = (   0.6471518   1.4647099   1.0322603  )
        24           C   tau(  24) = (   0.6686285   1.6874492   0.4548104  )
        25           C   tau(  25) = (   0.2417210   0.4385642   0.1577422  )
        26           C   tau(  26) = (   0.2202667   0.6121739   0.7351501  )
        27           C   tau(  27) = (   0.7155317   1.6628652   0.9970326  )
        28           C   tau(  28) = (   0.7369860   1.4892556   0.4196246  )
        29           H   tau(  29) = (   0.0972492   0.4111274   0.2335164  )
        30           H   tau(  30) = (   0.0757870   0.6396722   0.8109307  )
        31           H   tau(  31) = (   0.8600035   1.6903021   0.9212584  )
        32           H   tau(  32) = (   0.8814656   1.4617572   0.3438441  )
        33           C   tau(  33) = (   0.3643591   0.2776909   0.0944089  )
        34           C   tau(  34) = (   0.3429197   0.7729863   0.6718022  )
        35           C   tau(  35) = (   0.5928936   1.8237385   1.0603658  )
        36           C   tau(  36) = (   0.6143330   1.3284431   0.4829726  )
        37           H   tau(  37) = (   0.3119702   0.1233037   0.1228397  )
        38           H   tau(  38) = (   0.2905736   0.9274301   0.7001916  )
        39           H   tau(  39) = (   0.6452825   1.9781258   1.0319351  )
        40           H   tau(  40) = (   0.6666791   1.1739994   0.4545832  )
        41           C   tau(  41) = (   0.5499963   0.3145633  -0.0015015  )
        42           C   tau(  42) = (   0.5285597   0.7361514   0.5758814  )
        43           C   tau(  43) = (   0.4072564   1.7868661   1.1562763  )
        44           C   tau(  44) = (   0.4286930   1.3652780   0.5788934  )
        45           H   tau(  45) = (   0.6042250   0.1890737   1.1055551  )
        46           H   tau(  46) = (   0.6255849   0.8615847   0.5281224  )
        47           H   tau(  47) = (   0.3530277   1.9123557   0.0492197  )
        48           H   tau(  48) = (   0.3316678   1.2398447   0.6266523  )
        49           C   tau(  49) = (   0.5709355   0.5139476   1.1167929  )
        50           C   tau(  50) = (   0.5922302   0.5367167   0.5394589  )
        51           C   tau(  51) = (   0.3863172   1.5874819   0.0379819  )
        52           C   tau(  52) = (   0.3650225   1.5647128   0.6153159  )
        53           H   tau(  53) = (   0.7132749   0.5425669   1.0370028  )
        54           H   tau(  54) = (   0.7345520   0.5080100   0.4596713  )
        55           H   tau(  55) = (   0.2439778   1.5588626   0.1177720  )
        56           H   tau(  56) = (   0.2227006   1.5934194   0.6951034  )
        57           C   tau(  57) = (   0.4944344   0.6772435   0.0254647  )
        58           C   tau(  58) = (   0.4729675   0.3734610   0.6029158  )
        59           C   tau(  59) = (   0.4628183   1.4241859   1.1293100  )
        60           C   tau(  60) = (   0.4842852   1.7279684   0.5518590  )
        61           H   tau(  61) = (   0.5423559   0.8334877  -0.0009154  )
        62           H   tau(  62) = (   0.5208429   0.2171830   0.5765867  )
        63           H   tau(  63) = (   0.4148968   1.2679418   1.1556901  )
        64           H   tau(  64) = (   0.4364098   1.8842464   0.5781880  )

     number of k points=    10
                       cart. coord. in units 2pi/alat
        k(    1) = (   0.0000000   0.0000000   0.0000000), wk =   0.1111111
        k(    2) = (   0.0000000   0.0000000   0.2886566), wk =   0.2222222
        k(    3) = (   0.0000000  -0.2379333   0.0000000), wk =   0.1111111
        k(    4) = (   0.0000000  -0.2379333   0.2886566), wk =   0.2222222
        k(    5) = (   0.3333333   0.0000000   0.0123393), wk =   0.2222222
        k(    6) = (   0.3333333   0.0000000   0.3009959), wk =   0.2222222
        k(    7) = (   0.3333333   0.0000000  -0.2763173), wk =   0.2222222
        k(    8) = (   0.3333333  -0.2379333   0.0123393), wk =   0.2222222
        k(    9) = (   0.3333333  -0.2379333   0.3009959), wk =   0.2222222
        k(   10) = (   0.3333333  -0.2379333  -0.2763173), wk =   0.2222222

     Dense  grid:   629223 G-vectors     FFT dimensions: (  80, 180,  96)

     Estimated max dynamical RAM per process >     482.30MB

     Estimated total allocated dynamical RAM >    3858.40MB

     Check: negative/imaginary core charge=   -0.000002    0.000000

     Initial potential from superposition of free atoms

     starting charge  215.99866, renormalised to  216.00000
     Starting wfc are  196 randomized atomic wfcs
     Checking if some PAW data can be deallocated... 

     total cpu time spent up to now is       30.2 secs

     per-process dynamical memory:   368.6 Mb

     Self-consistent Calculation

     iteration #  1     ecut=   100.00 Ry     beta=0.50
     Davidson diagonalization with overlap
     ethr =  1.00E-02,  avg # of iterations =  4.6

     total cpu time spent up to now is      102.5 secs

     total energy              =   -1028.93632175 Ry
     Harris-Foulkes estimate   =   -1032.08768111 Ry
     estimated scf accuracy    <       6.10495274 Ry

     iteration #  2     ecut=   100.00 Ry     beta=0.50
     Davidson diagonalization with overlap
     ethr =  2.83E-03,  avg # of iterations =  1.1

     total cpu time spent up to now is      139.8 secs

     total energy              =   -1028.84503286 Ry
     Harris-Foulkes estimate   =   -1029.37205417 Ry
     estimated scf accuracy    <       0.97777126 Ry

     iteration #  3     ecut=   100.00 Ry     beta=0.50
     Davidson diagonalization with overlap
     ethr =  4.53E-04,  avg # of iterations =  5.7

     total cpu time spent up to now is      224.7 secs

     total energy              =   -1029.81981354 Ry
     Harris-Foulkes estimate   =   -1030.42358385 Ry
     estimated scf accuracy    <       1.96360752 Ry

     iteration #  4     ecut=   100.00 Ry     beta=0.50
     Davidson diagonalization with overlap
     ethr =  4.53E-04,  avg # of iterations =  6.2

     total cpu time spent up to now is      268.8 secs

     total energy              =   -1029.49200318 Ry
     Harris-Foulkes estimate   =   -1029.89631192 Ry
     estimated scf accuracy    <       0.73777194 Ry

     iteration #  5     ecut=   100.00 Ry     beta=0.50
     Davidson diagonalization with overlap
     ethr =  3.42E-04,  avg # of iterations =  5.2

     total cpu time spent up to now is      332.6 secs

     total energy              =   -1029.82970617 Ry
     Harris-Foulkes estimate   =   -1029.90749759 Ry
     estimated scf accuracy    <       0.17777984 Ry

     iteration #  6     ecut=   100.00 Ry     beta=0.50
     Davidson diagonalization with overlap
     ethr =  8.23E-05,  avg # of iterations =  2.0

     total cpu time spent up to now is      372.2 secs

     total energy              =   -1029.82143198 Ry
     Harris-Foulkes estimate   =   -1029.84247281 Ry
     estimated scf accuracy    <       0.03884127 Ry

     iteration #  7     ecut=   100.00 Ry     beta=0.50
     Davidson diagonalization with overlap
     ethr =  1.80E-05,  avg # of iterations =  6.6

     total cpu time spent up to now is      452.8 secs

     total energy              =   -1029.85265618 Ry
     Harris-Foulkes estimate   =   -1029.86008133 Ry
     estimated scf accuracy    <       0.02008272 Ry

     iteration #  8     ecut=   100.00 Ry     beta=0.50
     Davidson diagonalization with overlap
     ethr =  9.30E-06,  avg # of iterations =  1.0

     total cpu time spent up to now is      490.1 secs

     total energy              =   -1029.84962437 Ry
     Harris-Foulkes estimate   =   -1029.85338278 Ry
     estimated scf accuracy    <       0.00718806 Ry

     iteration #  9     ecut=   100.00 Ry     beta=0.50
     Davidson diagonalization with overlap
     ethr =  3.33E-06,  avg # of iterations =  4.0

     total cpu time spent up to now is      557.4 secs

     total energy              =   -1029.85369781 Ry
     Harris-Foulkes estimate   =   -1029.85458986 Ry
     estimated scf accuracy    <       0.00203465 Ry

     iteration # 10     ecut=   100.00 Ry     beta=0.50
     Davidson diagonalization with overlap
     ethr =  9.42E-07,  avg # of iterations =  2.0

     total cpu time spent up to now is      596.4 secs

     total energy              =   -1029.85364826 Ry
     Harris-Foulkes estimate   =   -1029.85382819 Ry
     estimated scf accuracy    <       0.00046499 Ry

     iteration # 11     ecut=   100.00 Ry     beta=0.50
     Davidson diagonalization with overlap
     ethr =  2.15E-07,  avg # of iterations =  4.0

     total cpu time spent up to now is      662.3 secs

     total energy              =   -1029.85396936 Ry
     Harris-Foulkes estimate   =   -1029.85397847 Ry
     estimated scf accuracy    <       0.00005285 Ry

     iteration # 12     ecut=   100.00 Ry     beta=0.50
     Davidson diagonalization with overlap
     ethr =  2.45E-08,  avg # of iterations =  1.0

     total cpu time spent up to now is      699.5 secs

     total energy              =   -1029.85396041 Ry
     Harris-Foulkes estimate   =   -1029.85397138 Ry
     estimated scf accuracy    <       0.00003277 Ry

     iteration # 13     ecut=   100.00 Ry     beta=0.50
     Davidson diagonalization with overlap
     ethr =  1.52E-08,  avg # of iterations =  3.1

     total cpu time spent up to now is      745.4 secs

     total energy              =   -1029.85396224 Ry
     Harris-Foulkes estimate   =   -1029.85396485 Ry
     estimated scf accuracy    <       0.00000443 Ry

     iteration # 14     ecut=   100.00 Ry     beta=0.50
     Davidson diagonalization with overlap
     ethr =  2.05E-09,  avg # of iterations =  4.0

     total cpu time spent up to now is      815.8 secs

     total energy              =   -1029.85396445 Ry
     Harris-Foulkes estimate   =   -1029.85396512 Ry
     estimated scf accuracy    <       0.00000126 Ry

     iteration # 15     ecut=   100.00 Ry     beta=0.50
     Davidson diagonalization with overlap
     ethr =  5.82E-10,  avg # of iterations =  4.0

     total cpu time spent up to now is      860.9 secs

     total energy              =   -1029.85396461 Ry
     Harris-Foulkes estimate   =   -1029.85396464 Ry
     estimated scf accuracy    <       0.00000005 Ry

     iteration # 16     ecut=   100.00 Ry     beta=0.50
     Davidson diagonalization with overlap
     ethr =  2.24E-11,  avg # of iterations =  4.0

     total cpu time spent up to now is      947.1 secs

     total energy              =   -1029.85396473 Ry
     Harris-Foulkes estimate   =   -1029.85396485 Ry
     estimated scf accuracy    <       0.00000029 Ry

     iteration # 17     ecut=   100.00 Ry     beta=0.50
     Davidson diagonalization with overlap
     ethr =  2.24E-11,  avg # of iterations =  4.0

     total cpu time spent up to now is     1009.3 secs

     total energy              =   -1029.85396475 Ry
     Harris-Foulkes estimate   =   -1029.85396476 Ry
     estimated scf accuracy    <       0.00000003 Ry

     iteration # 18     ecut=   100.00 Ry     beta=0.50
     Davidson diagonalization with overlap
     ethr =  1.27E-11,  avg # of iterations =  1.5

     total cpu time spent up to now is     1047.1 secs

     End of self-consistent calculation

          k = 0.0000 0.0000 0.0000 ( 78669 PWs)   bands (ev):

   -23.7459 -23.7450 -23.7237 -23.7232 -18.3119 -18.3105 -18.3034 -18.2975
   -17.9884 -17.9880 -17.9859 -17.9844 -15.1432 -15.1128 -14.9806 -14.9674
   -12.9872 -12.9343 -12.9121 -12.9046 -12.3169 -12.3156 -12.2608 -12.2485
   -11.1866 -11.1853 -11.1815 -11.1444 -10.8779 -10.8261 -10.8114 -10.8068
    -9.0298  -9.0073  -8.9893  -8.8969  -8.4802  -8.4716  -8.4687  -8.4269
    -7.4560  -7.3207  -7.3137  -7.2926  -6.9365  -6.9011  -6.7043  -6.6429
    -5.7932  -5.6656  -5.6606  -5.6526  -4.9512  -4.7647  -4.7408  -4.7394
    -4.6997  -4.5846  -4.4662  -4.4569  -4.1016  -3.9949  -3.9591  -3.8637
    -3.8162  -3.7971  -3.7283  -3.7040  -3.6104  -3.5920  -3.1870  -3.1149
    -2.5826  -2.5454  -2.5037  -2.2710  -2.2412  -2.2162  -2.2102  -2.1897
    -2.1818  -2.1538  -2.1274  -2.0887  -2.0599  -2.0127  -1.9323  -1.8691
    -1.7116  -1.6856  -1.6182  -1.3812  -1.2033  -1.1939  -1.1642  -1.1124
    -1.0887  -1.0687  -1.0444  -1.0022  -0.2581  -0.2532  -0.0150   0.0663
     0.1202   0.1923   0.3069   0.3650   3.4623   3.6887   3.8124   3.8772
     4.7793   4.8476   4.8508   4.8791   5.2099   5.2363   5.2601   5.2757
     5.7564   5.7713   5.7744   5.7985   6.7978   7.4302   7.4912   8.1435
     8.2532

          k = 0.0000 0.0000 0.2887 ( 78618 PWs)   bands (ev):

   -23.7441 -23.7437 -23.7251 -23.7249 -18.3133 -18.3085 -18.3039 -18.2979
   -17.9879 -17.9877 -17.9858 -17.9849 -15.1048 -15.0781 -15.0238 -15.0054
   -12.9684 -12.9318 -12.9254 -12.9096 -12.3019 -12.2990 -12.2747 -12.2650
   -11.1857 -11.1840 -11.1699 -11.1524 -10.8675 -10.8435 -10.8082 -10.8039
    -9.0190  -8.9985  -8.9773  -8.9222  -8.4856  -8.4793  -8.4517  -8.4331
    -7.4392  -7.3870  -7.2905  -7.2878  -6.9019  -6.8878  -6.7013  -6.6682
    -5.7554  -5.6960  -5.6567  -5.6555  -4.8914  -4.7802  -4.7448  -4.7440
    -4.7009  -4.6421  -4.5077  -4.4025  -4.0128  -3.9917  -3.9415  -3.8754
    -3.7968  -3.7289  -3.6726  -3.6676  -3.5965  -3.5861  -3.3533  -3.2827
    -2.5470  -2.5203  -2.4850  -2.3067  -2.2892  -2.2866  -2.2048  -2.1986
    -2.1929  -2.1399  -2.1057  -2.0994  -2.0566  -2.0363  -2.0065  -1.9135
    -1.7148  -1.7027  -1.5300  -1.4185  -1.2131  -1.2027  -1.1669  -1.1388
    -1.0919  -1.0896  -1.0124  -0.9864  -0.2374  -0.2180  -0.0565  -0.0059
     0.2090   0.2888   0.3504   0.4334   3.5405   3.7078   3.7486   3.8507
     4.8085   4.8154   4.8686   4.8746   5.1779   5.1827   5.2834   5.2892
     5.7597   5.7721   5.8199   5.8465   7.0266   7.4805   7.6640   7.8302
     8.1527

          k = 0.0000-0.2379 0.0000 ( 78628 PWs)   bands (ev):

   -23.7455 -23.7454 -23.7235 -23.7234 -18.3114 -18.3113 -18.3004 -18.3003
   -17.9883 -17.9882 -17.9851 -17.9851 -15.1282 -15.1282 -14.9739 -14.9739
   -12.9631 -12.9629 -12.9063 -12.9062 -12.3174 -12.3174 -12.2532 -12.2531
   -11.1851 -11.1851 -11.1632 -11.1631 -10.8443 -10.8442 -10.8195 -10.8195
    -9.0261  -9.0258  -8.9287  -8.9284  -8.4826  -8.4819  -8.4463  -8.4458
    -7.4107  -7.4106  -7.2822  -7.2821  -6.9223  -6.9221  -6.6716  -6.6714
    -5.7531  -5.7525  -5.6456  -5.6451  -4.7997  -4.7995  -4.7610  -4.7608
    -4.6433  -4.6431  -4.4956  -4.4951  -4.0803  -4.0798  -3.8171  -3.8168
    -3.7940  -3.7937  -3.7434  -3.7433  -3.6297  -3.6294  -3.1436  -3.1435
    -2.6185  -2.6178  -2.4413  -2.4403  -2.2102  -2.2100  -2.1929  -2.1929
    -2.1776  -2.1775  -2.1306  -2.1304  -1.9202  -1.9193  -1.9049  -1.9049
    -1.7226  -1.7224  -1.4599  -1.4598  -1.1825  -1.1823  -1.1648  -1.1648
    -1.1239  -1.1236  -0.9986  -0.9986  -0.2572  -0.2572   0.0257   0.0258
     0.1590   0.1591   0.3347   0.3348   3.5582   3.5586   3.8594   3.8594
     4.7927   4.7929   4.8830   4.8832   5.2225   5.2231   5.2910   5.2915
     5.7342   5.7354   5.7946   5.7957   6.9856   6.9859   8.0054   8.0055
     8.2702

          k = 0.0000-0.2379 0.2887 ( 78648 PWs)   bands (ev):

   -23.7440 -23.7439 -23.7250 -23.7250 -18.3113 -18.3112 -18.3006 -18.3005
   -17.9879 -17.9878 -17.9854 -17.9853 -15.0918 -15.0918 -15.0144 -15.0144
   -12.9526 -12.9524 -12.9153 -12.9150 -12.3020 -12.3019 -12.2678 -12.2677
   -11.1804 -11.1803 -11.1656 -11.1655 -10.8384 -10.8383 -10.8256 -10.8255
    -9.0095  -9.0091  -8.9423  -8.9419  -8.4784  -8.4776  -8.4517  -8.4510
    -7.4071  -7.4071  -7.2982  -7.2981  -6.8960  -6.8958  -6.6833  -6.6831
    -5.7460  -5.7455  -5.6505  -5.6500  -4.7807  -4.7805  -4.7641  -4.7637
    -4.6146  -4.6143  -4.5217  -4.5211  -4.0397  -4.0394  -3.9152  -3.9147
    -3.7382  -3.7376  -3.6510  -3.6508  -3.5910  -3.5906  -3.3172  -3.3171
    -2.6111  -2.6103  -2.3935  -2.3926  -2.2617  -2.2614  -2.2388  -2.2382
    -2.1662  -2.1659  -2.0879  -2.0876  -1.9897  -1.9894  -1.9606  -1.9601
    -1.6802  -1.6798  -1.4890  -1.4888  -1.1837  -1.1834  -1.1602  -1.1599
    -1.1307  -1.1303  -0.9902  -0.9900  -0.2301  -0.2299  -0.0302  -0.0299
     0.2459   0.2460   0.3957   0.3958   3.6034   3.6037   3.8199   3.8201
     4.8045   4.8047   4.8639   4.8643   5.2227   5.2234   5.2678   5.2683
     5.7787   5.7798   5.8080   5.8091   7.2173   7.2177   7.7328   7.7333
     8.2970

          k = 0.3333 0.0000 0.0123 ( 78642 PWs)   bands (ev):

   -23.7454 -23.7446 -23.7239 -23.7234 -18.3126 -18.3116 -18.3039 -18.2977
   -17.9888 -17.9877 -17.9866 -17.9856 -15.1317 -15.1157 -14.9845 -14.9642
   -12.9742 -12.9482 -12.9226 -12.8934 -12.3252 -12.3208 -12.2626 -12.2549
   -11.1906 -11.1757 -11.1605 -11.1602 -10.8756 -10.8384 -10.8189 -10.7904
    -9.0402  -9.0000  -8.9711  -8.9572  -8.4755  -8.4736  -8.4421  -8.4180
    -7.3780  -7.3563  -7.2723  -7.2658  -6.9636  -6.9107  -6.7048  -6.6372
    -5.7568  -5.7026  -5.6739  -5.5986  -4.8120  -4.7937  -4.7623  -4.7362
    -4.6894  -4.6738  -4.5729  -4.4582  -4.0410  -4.0221  -4.0085  -3.9461
    -3.8551  -3.7936  -3.7200  -3.7013  -3.6524  -3.6191  -3.1925  -3.0884
    -2.5929  -2.4370  -2.4351  -2.3101  -2.3014  -2.2418  -2.2395  -2.1934
    -2.1632  -2.1432  -2.1198  -2.0565  -2.0455  -2.0020  -1.9099  -1.8955
    -1.7154  -1.6887  -1.4924  -1.4331  -1.1917  -1.1888  -1.1675  -1.1622
    -1.0880  -1.0345  -1.0269  -1.0078  -0.2625  -0.2256   0.0089   0.0569
     0.1863   0.2349   0.3237   0.3535   3.4645   3.5936   3.7833   3.8022
     4.5395   4.7512   4.7773   4.8277   5.1156   5.1445   5.2296   5.3362
     5.8112   5.8727   5.9122   5.9452   7.1467   7.4988   7.7721   7.8306
     8.0029

          k = 0.3333 0.0000 0.3010 ( 78616 PWs)   bands (ev):

   -23.7437 -23.7433 -23.7253 -23.7250 -18.3132 -18.3088 -18.3052 -18.2989
   -17.9884 -17.9882 -17.9861 -17.9853 -15.1014 -15.0777 -15.0192 -15.0059
   -12.9681 -12.9303 -12.9261 -12.9123 -12.3074 -12.3022 -12.2795 -12.2684
   -11.1854 -11.1837 -11.1701 -11.1516 -10.8663 -10.8438 -10.8063 -10.8021
    -9.0306  -9.0103  -8.9903  -8.9342  -8.4770  -8.4698  -8.4375  -8.4213
    -7.4113  -7.3336  -7.2774  -7.2754  -6.9274  -6.8884  -6.7067  -6.6629
    -5.7366  -5.6794  -5.6588  -5.6505  -4.8751  -4.7690  -4.7468  -4.7434
    -4.7026  -4.6104  -4.5624  -4.4678  -4.0438  -4.0419  -3.9584  -3.9231
    -3.8173  -3.7581  -3.6826  -3.6470  -3.6279  -3.5909  -3.3373  -3.2732
    -2.5496  -2.5302  -2.4343  -2.3752  -2.2629  -2.2467  -2.2197  -2.1735
    -2.1442  -2.1335  -2.1227  -2.0926  -2.0152  -1.9999  -1.9824  -1.9721
    -1.7229  -1.6845  -1.5270  -1.4085  -1.2002  -1.1838  -1.1762  -1.1587
    -1.0815  -1.0657  -1.0281  -0.9909  -0.2322  -0.2143  -0.0129   0.0195
     0.2518   0.2821   0.3548   0.4490   3.5444   3.6648   3.6981   3.7733
     4.5559   4.6482   4.7984   4.7991   5.1372   5.1877   5.2654   5.3031
     5.8235   5.8792   5.9389   5.9930   7.1749   7.5708   7.7355   7.9824
     8.1289

          k = 0.3333 0.0000-0.2763 ( 78694 PWs)   bands (ev):

   -23.7437 -23.7433 -23.7253 -23.7250 -18.3140 -18.3086 -18.3049 -18.2985
   -17.9886 -17.9875 -17.9861 -17.9860 -15.0916 -15.0827 -15.0274 -15.0025
   -12.9489 -12.9464 -12.9402 -12.9004 -12.3107 -12.3021 -12.2739 -12.2728
   -11.1896 -11.1751 -11.1722 -11.1520 -10.8836 -10.8240 -10.8211 -10.7882
    -9.0494  -9.0003  -8.9895  -8.9296  -8.4673  -8.4648  -8.4606  -8.4121
    -7.4243  -7.3068  -7.2923  -7.2750  -6.9054  -6.9007  -6.7019  -6.6744
    -5.7775  -5.7015  -5.6396  -5.6024  -4.8693  -4.7626  -4.7490  -4.7294
    -4.6976  -4.6305  -4.5752  -4.4982  -4.0639  -3.9912  -3.9415  -3.9234
    -3.8675  -3.7646  -3.6456  -3.6298  -3.6259  -3.5887  -3.3644  -3.2413
    -2.6199  -2.4974  -2.4602  -2.3184  -2.3062  -2.2261  -2.2018  -2.1675
    -2.1407  -2.1210  -2.1181  -2.0866  -2.0655  -2.0229  -1.9796  -1.9253
    -1.7083  -1.6922  -1.5764  -1.3981  -1.2157  -1.1953  -1.1746  -1.1446
    -1.0778  -1.0614  -1.0356  -0.9683  -0.2344  -0.1897  -0.0260   0.0003
     0.2050   0.3070   0.4047   0.4225   3.5385   3.6691   3.6923   3.7778
     4.5749   4.6856   4.7598   4.8317   5.1332   5.1713   5.2532   5.3106
     5.8315   5.8710   5.9419   5.9914   7.3370   7.4253   7.5913   7.7495
     7.9333

          k = 0.3333-0.2379 0.0123 ( 78614 PWs)   bands (ev):

   -23.7451 -23.7450 -23.7236 -23.7236 -18.3123 -18.3123 -18.3006 -18.3006
   -17.9883 -17.9883 -17.9861 -17.9860 -15.1238 -15.1238 -14.9743 -14.9743
   -12.9638 -12.9636 -12.9054 -12.9053 -12.3231 -12.3231 -12.2589 -12.2588
   -11.1777 -11.1775 -11.1632 -11.1631 -10.8486 -10.8485 -10.8177 -10.8176
    -9.0200  -9.0196  -8.9580  -8.9576  -8.4664  -8.4655  -8.4431  -8.4424
    -7.3697  -7.3697  -7.2658  -7.2657  -6.9408  -6.9406  -6.6682  -6.6679
    -5.7621  -5.7617  -5.6237  -5.6234  -4.7798  -4.7795  -4.7470  -4.7466
    -4.6199  -4.6196  -4.5531  -4.5526  -4.0695  -4.0691  -4.0085  -4.0079
    -3.7922  -3.7919  -3.7009  -3.7006  -3.6292  -3.6286  -3.1419  -3.1419
    -2.6016  -2.6009  -2.3767  -2.3756  -2.2774  -2.2773  -2.2009  -2.2005
    -2.1497  -2.1494  -2.0777  -2.0776  -1.9505  -1.9498  -1.9112  -1.9110
    -1.6719  -1.6715  -1.4936  -1.4933  -1.1911  -1.1908  -1.1431  -1.1429
    -1.0927  -1.0925  -1.0169  -1.0168  -0.2421  -0.2421   0.0279   0.0280
     0.2129   0.2129   0.3394   0.3395   3.5235   3.5238   3.7973   3.7975
     4.6330   4.6332   4.7846   4.7848   5.1816   5.1817   5.2709   5.2710
     5.8577   5.8588   5.9012   5.9023   7.3258   7.3265   7.7438   7.7446
     8.1942

          k = 0.3333-0.2379 0.3010 ( 78650 PWs)   bands (ev):

   -23.7436 -23.7435 -23.7251 -23.7251 -18.3116 -18.3114 -18.3017 -18.3015
   -17.9884 -17.9883 -17.9858 -17.9857 -15.0897 -15.0897 -15.0124 -15.0124
   -12.9507 -12.9504 -12.9178 -12.9176 -12.3060 -12.3060 -12.2731 -12.2730
   -11.1796 -11.1795 -11.1622 -11.1621 -10.8388 -10.8388 -10.8259 -10.8258
    -9.0224  -9.0220  -8.9539  -8.9536  -8.4663  -8.4655  -8.4414  -8.4407
    -7.3814  -7.3813  -7.2679  -7.2678  -6.9096  -6.9094  -6.6825  -6.6823
    -5.7346  -5.7341  -5.6479  -5.6475  -4.7783  -4.7783  -4.7590  -4.7586
    -4.6288  -4.6286  -4.5368  -4.5364  -4.0689  -4.0684  -3.9434  -3.9427
    -3.7748  -3.7743  -3.6561  -3.6557  -3.6088  -3.6087  -3.3057  -3.3057
    -2.6087  -2.6079  -2.3700  -2.3690  -2.3166  -2.3162  -2.1816  -2.1813
    -2.1611  -2.1609  -2.0651  -2.0650  -2.0054  -2.0051  -1.9241  -1.9234
    -1.6761  -1.6757  -1.4975  -1.4973  -1.1798  -1.1798  -1.1604  -1.1603
    -1.0891  -1.0888  -1.0203  -1.0202  -0.2238  -0.2238   0.0022   0.0023
     0.2624   0.2625   0.4079   0.4080   3.5911   3.5913   3.7479   3.7479
     4.6344   4.6348   4.7410   4.7413   5.1984   5.1987   5.2806   5.2811
     5.8680   5.8688   5.9406   5.9414   7.3544   7.3550   7.8694   7.8697
     8.1592

          k = 0.3333-0.2379-0.2763 ( 78656 PWs)   bands (ev):

   -23.7435 -23.7435 -23.7252 -23.7251 -18.3120 -18.3119 -18.3012 -18.3010
   -17.9881 -17.9880 -17.9861 -17.9860 -15.0873 -15.0873 -15.0149 -15.0149
   -12.9524 -12.9521 -12.9157 -12.9155 -12.3065 -12.3064 -12.2736 -12.2735
   -11.1764 -11.1763 -11.1657 -11.1655 -10.8523 -10.8523 -10.8103 -10.8103
    -9.0325  -9.0322  -8.9454  -8.9451  -8.4690  -8.4683  -8.4384  -8.4378
    -7.3855  -7.3855  -7.2650  -7.2650  -6.9003  -6.9002  -6.6890  -6.6888
    -5.7620  -5.7616  -5.6196  -5.6193  -4.7847  -4.7845  -4.7391  -4.7387
    -4.6612  -4.6609  -4.5229  -4.5227  -4.0970  -4.0963  -3.8802  -3.8799
    -3.7970  -3.7966  -3.6723  -3.6719  -3.5972  -3.5970  -3.3038  -3.3037
    -2.6213  -2.6206  -2.3903  -2.3892  -2.2673  -2.2669  -2.2261  -2.2260
    -2.1463  -2.1458  -2.0758  -2.0756  -1.9753  -1.9751  -1.9112  -1.9103
    -1.7149  -1.7147  -1.4737  -1.4735  -1.2002  -1.1999  -1.1628  -1.1627
    -1.1109  -1.1105  -0.9867  -0.9866  -0.2125  -0.2124  -0.0126  -0.0124
     0.2514   0.2514   0.4189   0.4189   3.5850   3.5853   3.7534   3.7537
     4.6394   4.6396   4.7614   4.7617   5.2009   5.2012   5.2630   5.2635
     5.8770   5.8781   5.9331   5.9343   7.3980   7.3981   7.6892   7.6896
     7.9956

     highest occupied, lowest unoccupied level (ev):     0.4490    3.4623

!    total energy              =   -1029.85396475 Ry
     Harris-Foulkes estimate   =   -1029.85396475 Ry
     estimated scf accuracy    <          8.8E-09 Ry

     total all-electron energy =     -4042.168334 Ry

     The total energy is the sum of the following terms:

     one-electron contribution =    -573.39611604 Ry
     hartree contribution      =     365.10091800 Ry
     xc contribution           =    -220.67182288 Ry
     ewald contribution        =    -275.20130743 Ry
     Dispersion Correction     =      -0.28876080 Ry
     one-center paw contrib.   =    -325.39687560 Ry

     convergence has been achieved in  18 iterations

     Forces acting on atoms (cartesian axes, Ry/au):

     atom    1 type  2   force =    -0.00300136    0.00074874    0.00125993
     atom    2 type  2   force =    -0.00294089   -0.00065510    0.00123070
     atom    3 type  2   force =     0.00300136   -0.00074874   -0.00125993
     atom    4 type  2   force =     0.00294089    0.00065510   -0.00123070
     atom    5 type  2   force =     0.00014394    0.00000343   -0.00223167
     atom    6 type  2   force =     0.00016280    0.00003520   -0.00224295
     atom    7 type  2   force =    -0.00014394   -0.00000343    0.00223167
     atom    8 type  2   force =    -0.00016280   -0.00003520    0.00224295
     atom    9 type  2   force =    -0.00108097   -0.00138740   -0.00084185
     atom   10 type  2   force =    -0.00108258    0.00141172   -0.00084345
     atom   11 type  2   force =     0.00108097    0.00138740    0.00084185
     atom   12 type  2   force =     0.00108258   -0.00141172    0.00084345
     atom   13 type  2   force =     0.00041851    0.00077318   -0.00086887
     atom   14 type  2   force =     0.00041202   -0.00074648   -0.00085790
     atom   15 type  2   force =    -0.00041851   -0.00077318    0.00086887
     atom   16 type  2   force =    -0.00041202    0.00074648    0.00085790
     atom   17 type  2   force =    -0.00031159   -0.00099465    0.00001411
     atom   18 type  2   force =    -0.00030192    0.00095842    0.00001443
     atom   19 type  2   force =     0.00031159    0.00099465   -0.00001411
     atom   20 type  2   force =     0.00030192   -0.00095842   -0.00001443
     atom   21 type  1   force =    -0.00340272   -0.00136154    0.00181108
     atom   22 type  1   force =    -0.00342732    0.00154409    0.00178368
     atom   23 type  1   force =     0.00340272    0.00136154   -0.00181108
     atom   24 type  1   force =     0.00342732   -0.00154409   -0.00178368
     atom   25 type  1   force =     0.00205557    0.00292181   -0.00346656
     atom   26 type  1   force =     0.00177545   -0.00338068   -0.00327607
     atom   27 type  1   force =    -0.00205557   -0.00292181    0.00346656
     atom   28 type  1   force =    -0.00177545    0.00338068    0.00327607
     atom   29 type  3   force =    -0.00044506   -0.00130215   -0.00082803
     atom   30 type  3   force =    -0.00031199    0.00124399   -0.00090853
     atom   31 type  3   force =     0.00044506    0.00130215    0.00082803
     atom   32 type  3   force =     0.00031199   -0.00124399    0.00090853
     atom   33 type  1   force =    -0.00188377    0.00022046    0.00353926
     atom   34 type  1   force =    -0.00171539    0.00051969    0.00342477
     atom   35 type  1   force =     0.00188377   -0.00022046   -0.00353926
     atom   36 type  1   force =     0.00171539   -0.00051969   -0.00342477
     atom   37 type  3   force =     0.00012252   -0.00027318    0.00053518
     atom   38 type  3   force =     0.00013036    0.00000794    0.00052809
     atom   39 type  3   force =    -0.00012252    0.00027318   -0.00053518
     atom   40 type  3   force =    -0.00013036   -0.00000794   -0.00052809
     atom   41 type  1   force =     0.00270515    0.00176511   -0.00193340
     atom   42 type  1   force =     0.00280668   -0.00234074   -0.00193970
     atom   43 type  1   force =    -0.00270515   -0.00176511    0.00193340
     atom   44 type  1   force =    -0.00280668    0.00234074    0.00193970
     atom   45 type  3   force =    -0.00049383   -0.00000773   -0.00070748
     atom   46 type  3   force =    -0.00056111    0.00007198   -0.00067581
     atom   47 type  3   force =     0.00049383    0.00000773    0.00070748
     atom   48 type  3   force =     0.00056111   -0.00007198    0.00067581
     atom   49 type  1   force =    -0.00040383    0.00324595    0.00342497
     atom   50 type  1   force =    -0.00039001   -0.00291042    0.00336279
     atom   51 type  1   force =     0.00040383   -0.00324595   -0.00342497
     atom   52 type  1   force =     0.00039001    0.00291042   -0.00336279
     atom   53 type  3   force =     0.00043090   -0.00016853    0.00132023
     atom   54 type  3   force =     0.00046277    0.00023523    0.00131218
     atom   55 type  3   force =    -0.00043090    0.00016853   -0.00132023
     atom   56 type  3   force =    -0.00046277   -0.00023523   -0.00131218
     atom   57 type  1   force =     0.00393888    0.00017429   -0.00283413
     atom   58 type  1   force =     0.00374400   -0.00043098   -0.00269422
     atom   59 type  1   force =    -0.00393888   -0.00017429    0.00283413
     atom   60 type  1   force =    -0.00374400    0.00043098    0.00269422
     atom   61 type  3   force =     0.00066335   -0.00107993   -0.00056083
     atom   62 type  3   force =     0.00070979    0.00118819   -0.00058830
     atom   63 type  3   force =    -0.00066335    0.00107993    0.00056083
     atom   64 type  3   force =    -0.00070979   -0.00118819    0.00058830

     Total force =     0.024241     Total SCF correction =     0.000235


     Computing stress (Cartesian axis) and pressure

          total   stress  (Ry/bohr**3)                   (kbar)     P=   -3.13
  -0.00001810   0.00000024   0.00000805         -2.66      0.04      1.18
   0.00000024  -0.00002477  -0.00000012          0.04     -3.64     -0.02
   0.00000805  -0.00000012  -0.00002088          1.18     -0.02     -3.07


     Writing output data file scf.save
 
     init_run     :     28.41s CPU     29.58s WALL (       1 calls)
     electrons    :    974.89s CPU   1017.05s WALL (       1 calls)
     forces       :     13.69s CPU     13.79s WALL (       1 calls)
     stress       :     48.17s CPU     48.34s WALL (       1 calls)

     Called by init_run:
     wfcinit      :     20.99s CPU     21.97s WALL (       1 calls)
     potinit      :      2.62s CPU      2.73s WALL (       1 calls)

     Called by electrons:
     c_bands      :    873.22s CPU    909.28s WALL (      18 calls)
     sum_band     :     91.68s CPU     96.93s WALL (      18 calls)
     v_of_rho     :      1.60s CPU      1.77s WALL (      19 calls)
     newd         :      3.40s CPU      3.96s WALL (      19 calls)
     PAW_pot      :      4.63s CPU      4.64s WALL (      19 calls)
     mix_rho      :      0.35s CPU      0.38s WALL (      18 calls)

     Called by c_bands:
     init_us_2    :      5.80s CPU      5.82s WALL (     390 calls)
     cegterg      :    850.55s CPU    886.56s WALL (     180 calls)

     Called by sum_band:
     sum_band:bec :      0.06s CPU      0.06s WALL (     180 calls)
     addusdens    :      3.55s CPU      4.08s WALL (      18 calls)

     Called by *egterg:
     h_psi        :    492.06s CPU    519.77s WALL (     830 calls)
     s_psi        :     95.00s CPU     95.01s WALL (     830 calls)
     g_psi        :      2.79s CPU      2.79s WALL (     640 calls)
     cdiaghg      :     41.77s CPU     41.78s WALL (     820 calls)

     Called by h_psi:
     h_psi:pot    :    488.86s CPU    516.50s WALL (     830 calls)
     h_psi:calbec :     94.12s CPU     94.37s WALL (     830 calls)
     vloc_psi     :    299.54s CPU    326.94s WALL (     830 calls)
     add_vuspsi   :     95.19s CPU     95.19s WALL (     830 calls)

     General routines
     calbec       :    135.38s CPU    135.73s WALL (    1060 calls)
     fft          :      1.06s CPU      1.35s WALL (     271 calls)
     fftw         :    320.61s CPU    350.43s WALL (  160032 calls)
 
     Parallel routines
     fft_scatter  :     75.89s CPU     96.27s WALL (  160303 calls)
 
     PWSCF        : 17m52.52s CPU    19m18.19s WALL

 
   This run was terminated on:   3:23: 0   4Nov2017            

=------------------------------------------------------------------------------=
   JOB DONE.
=------------------------------------------------------------------------------=
