
     Program PWSCF v.6.1 (svn rev. 13369) starts on 21Dec2017 at  7:32:28 

     This program is part of the open-source Quantum ESPRESSO suite
     for quantum simulation of materials; please cite
         "P. Giannozzi et al., J. Phys.:Condens. Matter 21 395502 (2009);
          URL http://www.quantum-espresso.org", 
     in publications or presentations arising from this work. More details at
     http://www.quantum-espresso.org/quote

     Parallel version (MPI), running on     8 processors
     R & G space division:  proc/nbgrp/npool/nimage =       8
     Waiting for input...
     Reading input from standard input

     Current dimensions of program PWSCF are:
     Max number of different atomic species (ntypx) = 10
     Max number of k-points (npk) =  40000
     Max angular momentum in pseudopotentials (lmaxx) =  3
               file C.pbe-n-kjpaw_psl.0.1.UPF: wavefunction(s)  2P renormalized
               file N.pbe-n-kjpaw_psl.0.1.UPF: wavefunction(s)  2P renormalized
               file H.pbe-kjpaw_psl.0.1.UPF: wavefunction(s)  1S renormalized
               file O.pbe-n-kjpaw_psl.0.1.UPF: wavefunction(s)  2P renormalized

     -------------------------------------
     Parameters for Dispersion Correction:
     -------------------------------------
       atom      VdW radius       C_6     

        C          2.744         60.710
        N          2.640         42.670
        H          1.892          4.857
        O          2.536         24.284

     Subspace diagonalization in iterative solution of the eigenvalue problem:
     a serial algorithm will be used

 
     Parallelization info
     --------------------
     sticks:   dense  smooth     PW     G-vecs:    dense   smooth      PW
     Min         868     868    228                75424    75424   10231
     Max         869     869    229                75427    75427   10238
     Sum        6951    6951   1831               603407   603407   81879
 


     bravais-lattice index     =            0
     lattice parameter (alat)  =      13.4091  a.u.
     unit-cell volume          =    4467.2335 (a.u.)^3
     number of atoms/cell      =           64
     number of atomic types    =            4
     number of electrons       =       248.00
     number of Kohn-Sham states=          148
     kinetic-energy cutoff     =     100.0000  Ry
     charge density cutoff     =     400.0000  Ry
     convergence threshold     =      1.0E-08
     mixing beta               =       0.5000
     number of iterations used =            8  plain     mixing
     Exchange-correlation      =  SLA  PW   PBX  PBC ( 1  4  3  4 0 0)

     celldm(1)=  13.409119  celldm(2)=   0.000000  celldm(3)=   0.000000
     celldm(4)=   0.000000  celldm(5)=   0.000000  celldm(6)=   0.000000

     crystal axes: (cart. coord. in units of alat)
               a(1) = (   1.000000   0.000000   0.000000 )  
               a(2) = (   0.000000   1.214338   0.000000 )  
               a(3) = (  -0.334492   0.000000   1.525803 )  

     reciprocal axes: (cart. coord. in units 2 pi/alat)
               b(1) = (  1.000000  0.000000  0.219224 )  
               b(2) = (  0.000000  0.823494  0.000000 )  
               b(3) = (  0.000000  0.000000  0.655393 )  


     PseudoPot. # 1 for  C read from file:
     /scratch/ahofstet/pseudo/C.pbe-n-kjpaw_psl.0.1.UPF
     MD5 check sum: 430fe95172b1e11ef3f8ed03bac87931
     Pseudo is Projector augmented-wave + core cor, Zval =  4.0
     Generated using "atomic" code by A. Dal Corso  v.5.0.99 svn rev. 10869
     Shape of augmentation charge: BESSEL
     Using radial grid of 1073 points,  4 beta functions with: 
                l(1) =   0
                l(2) =   0
                l(3) =   1
                l(4) =   1
     Q(r) pseudized with 0 coefficients 


     PseudoPot. # 2 for  N read from file:
     /scratch/ahofstet/pseudo/N.pbe-n-kjpaw_psl.0.1.UPF
     MD5 check sum: f73187c8b701007e77325f868c9291d7
     Pseudo is Projector augmented-wave + core cor, Zval =  5.0
     Generated using "atomic" code by A. Dal Corso  v.5.0.99 svn rev. 10869
     Shape of augmentation charge: PSQ
     Using radial grid of 1085 points,  4 beta functions with: 
                l(1) =   0
                l(2) =   0
                l(3) =   1
                l(4) =   1
     Q(r) pseudized with 0 coefficients 


     PseudoPot. # 3 for  H read from file:
     /scratch/ahofstet/pseudo/H.pbe-kjpaw_psl.0.1.UPF
     MD5 check sum: 94e484f906d9e9773b2f6e52662335b2
     Pseudo is Projector augmented-wave, Zval =  1.0
     Generated using "atomic" code by A. Dal Corso  v.5.0.99 svn rev. 10869
     Shape of augmentation charge: PSQ
     Using radial grid of  929 points,  2 beta functions with: 
                l(1) =   0
                l(2) =   0
     Q(r) pseudized with 0 coefficients 


     PseudoPot. # 4 for  O read from file:
     /scratch/ahofstet/pseudo/O.pbe-n-kjpaw_psl.0.1.UPF
     MD5 check sum: 3f94a2996a3169367d6eb21d9b593f20
     Pseudo is Projector augmented-wave + core cor, Zval =  6.0
     Generated using "atomic" code by A. Dal Corso  v.5.0.99 svn rev. 10869
     Shape of augmentation charge: BESSEL
     Using radial grid of 1095 points,  4 beta functions with: 
                l(1) =   0
                l(2) =   0
                l(3) =   1
                l(4) =   1
     Q(r) pseudized with 0 coefficients 


     atomic species   valence    mass     pseudopotential
        C              4.00    12.01070      C( 1.00)
        N              5.00    14.00670      N( 1.00)
        H              1.00     1.00794      H( 1.00)
        O              6.00    15.99940      O( 1.00)

      2 Sym. Ops., with inversion, found



   Cartesian axes

     site n.     atom                  positions (alat units)
         1           N   tau(   1) = (   0.1867158   0.1296228   1.2810656  )
         2           N   tau(   2) = (   0.3114284   0.7366267   1.0076853  )
         3           N   tau(   3) = (   0.4787917   1.0847153   0.2447370  )
         4           N   tau(   4) = (   0.3540791   0.4777114   0.5181172  )
         5           H   tau(   5) = (   0.1302930   0.0028827   1.3283047  )
         6           H   tau(   6) = (   0.3679189   0.6099287   0.9603868  )
         7           H   tau(   7) = (   0.5352146   1.2114554   0.1974979  )
         8           H   tau(   8) = (   0.2975887   0.6044093   0.5654157  )
         9           H   tau(   9) = (   0.1545960   0.1774337   1.1486692  )
        10           H   tau(  10) = (   0.3436095   0.7844504   1.1400476  )
        11           H   tau(  11) = (   0.5109115   1.0369043   0.3771334  )
        12           H   tau(  12) = (   0.3218980   0.4298877   0.3857550  )
        13           C   tau(  13) = (   0.2598556   0.2416758   1.4105302  )
        14           C   tau(  14) = (   0.2383283   0.8487117   0.8781972  )
        15           C   tau(  15) = (   0.4056519   0.9726623   0.1152723  )
        16           C   tau(  16) = (   0.4271792   0.3656263   0.6476054  )
        17           N   tau(  17) = (   0.6317216   0.2022767   0.0646953  )
        18           N   tau(  18) = (   0.2009574   0.8093328   0.6982394  )
        19           N   tau(  19) = (   0.0337860   1.0120614   1.4611072  )
        20           N   tau(  20) = (   0.4645501   0.4050052   0.8275631  )
        21           N   tau(  21) = (   0.7076673   0.3634295   0.1416384  )
        22           N   tau(  22) = (   0.1250811   0.9705109   0.6212861  )
        23           N   tau(  23) = (  -0.0421597   0.8509085   1.3841642  )
        24           N   tau(  24) = (   0.5404264   0.2438271   0.9045164  )
        25           C   tau(  25) = (   0.7131726   0.4903841   0.0085498  )
        26           C   tau(  26) = (   0.1196109   1.0974746   0.7543731  )
        27           C   tau(  27) = (  -0.0476650   0.7239539   1.5172528  )
        28           C   tau(  28) = (   0.5458967   0.1168634   0.7714294  )
        29           O   tau(  29) = (   0.3079411   0.4232538   1.3663002  )
        30           O   tau(  30) = (   0.1903096   1.0303073   0.9224312  )
        31           O   tau(  31) = (   0.3575664   0.7910842   0.1595024  )
        32           O   tau(  32) = (   0.4751979   0.1840308   0.6033714  )
        33           C   tau(  33) = (   0.7819693   0.6794600   0.0233646  )
        34           C   tau(  34) = (   0.0508477   0.0722141   0.7395371  )
        35           C   tau(  35) = (  -0.1164617   0.5348781   1.5024380  )
        36           C   tau(  36) = (   0.6146598   1.1421240   0.7862655  )
        37           N   tau(  37) = (   0.4398736   0.8048599   1.4116067  )
        38           N   tau(  38) = (   0.0584962   0.1976399   0.8770770  )
        39           N   tau(  39) = (   0.2256339   0.4094782   0.1141959  )
        40           N   tau(  40) = (   0.6070113   1.0166982   0.6487255  )
        41           O   tau(  41) = (   0.5219420   0.9650769   1.4799694  )
        42           O   tau(  42) = (  -0.0235590   0.3578614   0.8087109  )
        43           O   tau(  43) = (   0.1435655   0.2492611   0.0458332  )
        44           O   tau(  44) = (   0.6890665   0.8564766   0.7170917  )
        45           N   tau(  45) = (   0.9181668   0.9402752   0.1394688  )
        46           N   tau(  46) = (  -0.0853179   0.3330532   0.6234221  )
        47           N   tau(  47) = (  -0.2526592   0.2740628   1.3863338  )
        48           N   tau(  48) = (   0.7508254   0.8812849   0.9023805  )
        49           C   tau(  49) = (   0.8716462   0.7649174   0.1850721  )
        50           C   tau(  50) = (  -0.0388464   0.1576927   0.5778276  )
        51           C   tau(  51) = (  -0.2061386   0.4494206   1.3407305  )
        52           C   tau(  52) = (   0.7043539   1.0566454   0.9479750  )
        53           N   tau(  53) = (   0.9104369   0.6857246   0.3523367  )
        54           N   tau(  54) = (  -0.0777016   0.0784385   0.4106025  )
        55           N   tau(  55) = (  -0.2449293   0.5286134   1.1734659  )
        56           N   tau(  56) = (   0.7432091   1.1358996   1.1152001  )
        57           H   tau(  57) = (   0.8567237   0.5579262   0.3881142  )
        58           H   tau(  58) = (  -0.0239481   1.1650411   0.3748050  )
        59           H   tau(  59) = (  -0.1912161   0.6564119   1.1376884  )
        60           H   tau(  60) = (   0.6894557   0.0492970   1.1509975  )
        61           H   tau(  61) = (  -0.0378633   0.7691359   0.4567247  )
        62           H   tau(  62) = (   0.8705865   0.1618687   0.3061841  )
        63           H   tau(  63) = (   0.7033709   0.4452022   1.0690779  )
        64           H   tau(  64) = (  -0.2050790   1.0524693   1.2196185  )

     number of k points=     8
                       cart. coord. in units 2pi/alat
        k(    1) = (   0.0000000   0.0000000   0.0000000), wk =   0.1666667
        k(    2) = (   0.0000000   0.0000000  -0.3276964), wk =   0.1666667
        k(    3) = (   0.0000000  -0.4117470   0.0000000), wk =   0.1666667
        k(    4) = (   0.0000000  -0.4117470  -0.3276964), wk =   0.1666667
        k(    5) = (   0.3333333   0.0000000   0.0730747), wk =   0.3333333
        k(    6) = (   0.3333333   0.0000000  -0.2546217), wk =   0.3333333
        k(    7) = (   0.3333333  -0.4117470   0.0730747), wk =   0.3333333
        k(    8) = (   0.3333333  -0.4117470  -0.2546217), wk =   0.3333333

     Dense  grid:   603407 G-vectors     FFT dimensions: (  90, 108, 135)

     Estimated max dynamical RAM per process >     478.49MB

     Estimated total allocated dynamical RAM >    3827.90MB

     Check: negative/imaginary core charge=   -0.000002    0.000000

     Initial potential from superposition of free atoms

     starting charge  247.99899, renormalised to  248.00000
     Starting wfc are  208 randomized atomic wfcs
     Checking if some PAW data can be deallocated... 

     total cpu time spent up to now is       27.2 secs

     per-process dynamical memory:   337.6 Mb

     Self-consistent Calculation

     iteration #  1     ecut=   100.00 Ry     beta=0.50
     Davidson diagonalization with overlap
     ethr =  1.00E-02,  avg # of iterations =  3.0

     total cpu time spent up to now is       93.2 secs

     total energy              =   -1322.57278736 Ry
     Harris-Foulkes estimate   =   -1325.86453343 Ry
     estimated scf accuracy    <       6.21351979 Ry

     iteration #  2     ecut=   100.00 Ry     beta=0.50
     Davidson diagonalization with overlap
     ethr =  2.51E-03,  avg # of iterations =  3.0

     total cpu time spent up to now is      138.4 secs

     total energy              =   -1323.44328492 Ry
     Harris-Foulkes estimate   =   -1324.09519023 Ry
     estimated scf accuracy    <       1.36782573 Ry

     iteration #  3     ecut=   100.00 Ry     beta=0.50
     Davidson diagonalization with overlap
     ethr =  5.52E-04,  avg # of iterations =  5.2

     total cpu time spent up to now is      191.2 secs

     total energy              =   -1323.78594081 Ry
     Harris-Foulkes estimate   =   -1323.91633763 Ry
     estimated scf accuracy    <       0.33238049 Ry

     iteration #  4     ecut=   100.00 Ry     beta=0.50
     Davidson diagonalization with overlap
     ethr =  1.34E-04,  avg # of iterations =  6.0

     total cpu time spent up to now is      236.1 secs

     total energy              =   -1323.84209858 Ry
     Harris-Foulkes estimate   =   -1323.85287648 Ry
     estimated scf accuracy    <       0.03692736 Ry

     iteration #  5     ecut=   100.00 Ry     beta=0.50
     Davidson diagonalization with overlap
     ethr =  1.49E-05,  avg # of iterations =  8.8

     total cpu time spent up to now is      318.6 secs

     total energy              =   -1323.85367448 Ry
     Harris-Foulkes estimate   =   -1323.85730938 Ry
     estimated scf accuracy    <       0.00967443 Ry

     iteration #  6     ecut=   100.00 Ry     beta=0.50
     Davidson diagonalization with overlap
     ethr =  3.90E-06,  avg # of iterations =  2.0

     total cpu time spent up to now is      356.8 secs

     total energy              =   -1323.85498767 Ry
     Harris-Foulkes estimate   =   -1323.85532778 Ry
     estimated scf accuracy    <       0.00127948 Ry

     iteration #  7     ecut=   100.00 Ry     beta=0.50
     Davidson diagonalization with overlap
     ethr =  5.16E-07,  avg # of iterations =  4.5

     total cpu time spent up to now is      420.9 secs

     total energy              =   -1323.85545907 Ry
     Harris-Foulkes estimate   =   -1323.85577091 Ry
     estimated scf accuracy    <       0.00087387 Ry

     iteration #  8     ecut=   100.00 Ry     beta=0.50
     Davidson diagonalization with overlap
     ethr =  3.52E-07,  avg # of iterations =  1.9

     total cpu time spent up to now is      456.7 secs

     total energy              =   -1323.85548602 Ry
     Harris-Foulkes estimate   =   -1323.85555837 Ry
     estimated scf accuracy    <       0.00016668 Ry

     iteration #  9     ecut=   100.00 Ry     beta=0.50
     Davidson diagonalization with overlap
     ethr =  6.72E-08,  avg # of iterations =  4.0

     total cpu time spent up to now is      518.3 secs

     total energy              =   -1323.85558370 Ry
     Harris-Foulkes estimate   =   -1323.85560215 Ry
     estimated scf accuracy    <       0.00006572 Ry

     iteration # 10     ecut=   100.00 Ry     beta=0.50
     Davidson diagonalization with overlap
     ethr =  2.65E-08,  avg # of iterations =  1.6

     total cpu time spent up to now is      554.0 secs

     total energy              =   -1323.85557906 Ry
     Harris-Foulkes estimate   =   -1323.85558839 Ry
     estimated scf accuracy    <       0.00002284 Ry

     iteration # 11     ecut=   100.00 Ry     beta=0.50
     Davidson diagonalization with overlap
     ethr =  9.21E-09,  avg # of iterations =  3.0

     total cpu time spent up to now is      607.1 secs

     total energy              =   -1323.85558665 Ry
     Harris-Foulkes estimate   =   -1323.85558686 Ry
     estimated scf accuracy    <       0.00000137 Ry

     iteration # 12     ecut=   100.00 Ry     beta=0.50
     Davidson diagonalization with overlap
     ethr =  5.54E-10,  avg # of iterations =  3.0

     total cpu time spent up to now is      652.7 secs

     total energy              =   -1323.85558667 Ry
     Harris-Foulkes estimate   =   -1323.85558701 Ry
     estimated scf accuracy    <       0.00000093 Ry

     iteration # 13     ecut=   100.00 Ry     beta=0.50
     Davidson diagonalization with overlap
     ethr =  3.75E-10,  avg # of iterations =  1.0

     total cpu time spent up to now is      687.7 secs

     total energy              =   -1323.85558670 Ry
     Harris-Foulkes estimate   =   -1323.85558678 Ry
     estimated scf accuracy    <       0.00000025 Ry

     iteration # 14     ecut=   100.00 Ry     beta=0.50
     Davidson diagonalization with overlap
     ethr =  9.99E-11,  avg # of iterations =  4.0

     total cpu time spent up to now is      744.1 secs

     total energy              =   -1323.85558678 Ry
     Harris-Foulkes estimate   =   -1323.85558679 Ry
     estimated scf accuracy    <       0.00000002 Ry

     iteration # 15     ecut=   100.00 Ry     beta=0.50
     Davidson diagonalization with overlap
     ethr =  6.95E-12,  avg # of iterations =  3.0

     total cpu time spent up to now is      788.3 secs

     End of self-consistent calculation

          k = 0.0000 0.0000 0.0000 ( 75495 PWs)   bands (ev):

   -22.4209 -22.4166 -22.3961 -22.3944 -21.9895 -21.9864 -21.9844 -21.9835
   -17.5814 -17.5736 -17.5708 -17.5606 -16.5253 -16.5185 -16.5088 -16.4528
   -16.3206 -16.2814 -16.2375 -16.1924 -15.3755 -15.3480 -15.3402 -15.3134
   -13.8356 -13.8355 -13.8178 -13.7457 -12.9650 -12.9117 -12.8335 -12.8176
   -10.0857 -10.0511 -10.0125  -9.9974  -9.3125  -9.1792  -9.1333  -9.0269
    -8.4402  -8.4233  -8.3547  -8.3032  -8.1088  -8.0395  -7.8346  -7.7478
    -6.9295  -6.7537  -6.7156  -6.5368  -6.1585  -6.1242  -6.1037  -6.0754
    -5.9537  -5.8788  -5.7603  -5.6734  -5.6637  -5.6578  -5.2801  -5.2394
    -5.1357  -5.1021  -5.0433  -4.9120  -4.9119  -4.7795  -4.7484  -4.7259
    -4.6399  -4.6257  -4.4251  -4.3912  -3.8345  -3.7805  -3.6967  -3.6779
    -3.0291  -2.9227  -2.8889  -2.8530  -2.1508  -2.1396  -2.0545  -1.9710
    -1.7037  -1.6948  -1.6777  -1.6310  -1.3628  -1.3421  -1.3195  -1.3172
    -1.2715  -1.2553  -1.1822  -1.1414  -0.9765  -0.8167  -0.7993  -0.7800
    -0.4620  -0.4196  -0.4162  -0.3824  -0.2819  -0.2708  -0.2529  -0.2504
     0.1110   0.1944   0.4035   0.4619   1.0706   1.2572   1.5349   1.7016
     1.7937   1.8885   1.9989   2.1055   4.4866   4.5907   4.6425   4.6448
     6.2265   6.2519   6.2828   6.2891   6.9955   7.0179   7.2770   7.3222
     7.3398   7.6050   7.7757   7.9469   8.2062   8.3258   8.6342   8.7276
     8.7393   8.8744   8.8772   8.8958

          k = 0.0000 0.0000-0.3277 ( 75384 PWs)   bands (ev):

   -22.4191 -22.4184 -22.3957 -22.3949 -21.9882 -21.9879 -21.9840 -21.9836
   -17.5756 -17.5754 -17.5675 -17.5674 -16.5200 -16.5199 -16.4846 -16.4844
   -16.3036 -16.3029 -16.2119 -16.2109 -15.3802 -15.3801 -15.3077 -15.3076
   -13.8369 -13.8365 -13.7825 -13.7820 -12.9388 -12.9378 -12.8242 -12.8234
   -10.0702 -10.0693 -10.0035 -10.0027  -9.2301  -9.2300  -9.0962  -9.0959
    -8.4480  -8.4480  -8.3132  -8.3131  -8.0229  -8.0227  -7.8892  -7.8891
    -6.8266  -6.8261  -6.6465  -6.6461  -6.1279  -6.1277  -5.9528  -5.9526
    -5.9219  -5.9218  -5.7441  -5.7440  -5.6292  -5.6290  -5.2714  -5.2711
    -5.1299  -5.1293  -5.0052  -5.0047  -4.8845  -4.8844  -4.7749  -4.7749
    -4.6348  -4.6342  -4.4079  -4.4074  -3.8001  -3.7996  -3.6975  -3.6970
    -2.9405  -2.9401  -2.8885  -2.8881  -2.1173  -2.1170  -2.0583  -2.0583
    -1.6935  -1.6935  -1.6450  -1.6449  -1.3617  -1.3615  -1.3020  -1.3019
    -1.2050  -1.2048  -1.0957  -1.0955  -1.0117  -1.0117  -0.7981  -0.7979
    -0.4648  -0.4644  -0.3895  -0.3893  -0.2879  -0.2877  -0.2393  -0.2391
     0.1570   0.1577   0.4493   0.4498   1.1452   1.1458   1.6243   1.6250
     1.9012   1.9020   2.0076   2.0082   4.5573   4.5580   4.6222   4.6227
     6.2365   6.2373   6.2999   6.3000   6.9735   6.9736   7.3073   7.3084
     7.4679   7.4680   7.8020   7.8024   8.2504   8.2505   8.6756   8.6770
     8.8277   8.8279   8.9328   8.9329

          k = 0.0000-0.4117 0.0000 ( 75468 PWs)   bands (ev):

   -22.4171 -22.4164 -22.3969 -22.3961 -21.9886 -21.9883 -21.9847 -21.9844
   -17.5841 -17.5834 -17.5591 -17.5583 -16.5098 -16.5098 -16.4913 -16.4913
   -16.2954 -16.2945 -16.2228 -16.2218 -15.3552 -15.3548 -15.3315 -15.3310
   -13.8515 -13.8510 -13.7714 -13.7709 -12.9278 -12.9268 -12.8455 -12.8447
   -10.0595 -10.0586  -9.9896  -9.9887  -9.2076  -9.2075  -9.1289  -9.1285
    -8.4152  -8.4150  -8.3822  -8.3819  -7.9482  -7.9480  -7.8667  -7.8666
    -6.8479  -6.8474  -6.6399  -6.6396  -6.1676  -6.1672  -6.1012  -6.1009
    -5.9343  -5.9341  -5.6960  -5.6957  -5.6166  -5.6162  -5.3077  -5.3070
    -5.1504  -5.1499  -4.9954  -4.9952  -4.7790  -4.7788  -4.7026  -4.7021
    -4.6293  -4.6289  -4.3886  -4.3881  -3.8200  -3.8193  -3.7003  -3.6998
    -2.9884  -2.9883  -2.8675  -2.8673  -2.2074  -2.2069  -2.0705  -2.0704
    -1.6764  -1.6764  -1.6184  -1.6183  -1.3568  -1.3564  -1.3230  -1.3227
    -1.2520  -1.2520  -1.1570  -1.1568  -0.8709  -0.8705  -0.7746  -0.7743
    -0.4467  -0.4463  -0.3909  -0.3907  -0.2794  -0.2791  -0.2720  -0.2716
     0.1604   0.1610   0.4264   0.4271   1.2375   1.2380   1.6252   1.6259
     1.7915   1.7923   2.1013   2.1020   4.5446   4.5454   4.5876   4.5881
     6.2221   6.2229   6.3325   6.3327   7.0003   7.0003   7.2593   7.2601
     7.7055   7.7058   7.9295   7.9295   8.1597   8.1601   8.2576   8.2578
     8.7863   8.7875   8.8985   8.8986

          k = 0.0000-0.4117-0.3277 ( 75412 PWs)   bands (ev):

   -22.4170 -22.4163 -22.3970 -22.3962 -21.9884 -21.9880 -21.9849 -21.9846
   -17.5828 -17.5820 -17.5604 -17.5595 -16.5022 -16.5020 -16.4962 -16.4961
   -16.2956 -16.2947 -16.2271 -16.2261 -15.3544 -15.3539 -15.3311 -15.3307
   -13.8413 -13.8406 -13.7820 -13.7813 -12.9272 -12.9262 -12.8451 -12.8443
   -10.0595 -10.0587  -9.9897  -9.9887  -9.1961  -9.1961  -9.1353  -9.1348
    -8.4164  -8.4159  -8.3670  -8.3665  -7.9714  -7.9712  -7.8953  -7.8951
    -6.8536  -6.8531  -6.6478  -6.6473  -6.0621  -6.0619  -6.0591  -6.0589
    -5.9415  -5.9412  -5.7101  -5.7097  -5.6791  -5.6787  -5.3025  -5.3019
    -5.0316  -5.0309  -4.9920  -4.9914  -4.8528  -4.8527  -4.7799  -4.7796
    -4.6496  -4.6490  -4.3875  -4.3870  -3.8215  -3.8209  -3.7079  -3.7074
    -2.9404  -2.9400  -2.8954  -2.8948  -2.2115  -2.2110  -2.0702  -2.0702
    -1.6741  -1.6741  -1.6179  -1.6178  -1.3561  -1.3556  -1.3243  -1.3239
    -1.1700  -1.1698  -1.1392  -1.1389  -0.8899  -0.8894  -0.8582  -0.8578
    -0.4429  -0.4426  -0.3953  -0.3952  -0.2934  -0.2930  -0.2586  -0.2582
     0.1639   0.1646   0.4424   0.4431   1.2452   1.2457   1.6142   1.6149
     1.8124   1.8132   2.0889   2.0896   4.5472   4.5481   4.5869   4.5875
     6.2373   6.2381   6.3092   6.3094   7.0000   7.0002   7.2660   7.2669
     7.7690   7.7694   7.7938   7.7940   8.1667   8.1676   8.2245   8.2248
     8.8037   8.8052   8.9670   8.9674

          k = 0.3333 0.0000 0.0731 ( 75444 PWs)   bands (ev):

   -22.4135 -22.4103 -22.3994 -22.3974 -21.9986 -21.9949 -21.9801 -21.9789
   -17.5817 -17.5717 -17.5693 -17.5638 -16.5229 -16.5132 -16.5055 -16.4617
   -16.3341 -16.2877 -16.2250 -16.1875 -15.3990 -15.3573 -15.3254 -15.2911
   -13.8419 -13.8287 -13.8213 -13.7473 -12.9407 -12.9059 -12.8479 -12.8317
   -10.0983 -10.0654  -9.9961  -9.9857  -9.2524  -9.1941  -9.1485  -9.0553
    -8.4504  -8.4405  -8.3162  -8.3146  -8.0537  -8.0272  -7.8807  -7.8386
    -6.8827  -6.8089  -6.6569  -6.5979  -6.1580  -6.1171  -6.0058  -5.9393
    -5.7627  -5.7363  -5.7170  -5.6740  -5.6553  -5.6085  -5.2391  -5.1961
    -5.1177  -5.0745  -5.0266  -4.9671  -4.9520  -4.9382  -4.9097  -4.8288
    -4.7956  -4.7172  -4.5827  -4.5510  -3.8229  -3.7973  -3.7081  -3.6563
    -3.0047  -2.9417  -2.8881  -2.8258  -2.1141  -1.9931  -1.9923  -1.8740
    -1.8705  -1.7866  -1.5595  -1.4658  -1.4351  -1.3806  -1.3557  -1.3413
    -1.2421  -1.1772  -1.1152  -1.0899  -0.9794  -0.9157  -0.8172  -0.8083
    -0.6650  -0.6337  -0.3439  -0.2724  -0.2713  -0.2657  -0.1388  -0.1351
     0.1145   0.1791   0.4155   0.4820   1.2423   1.2487   1.4274   1.5701
     1.8197   1.9534   1.9793   2.0704   4.5251   4.6052   4.6148   4.6479
     6.2072   6.2159   6.2870   6.3735   6.9713   7.0904   7.2546   7.3361
     7.6551   7.6611   7.8611   7.9202   8.3936   8.4341   8.5247   8.5842
     8.7747   8.8423   8.9101   8.9440

          k = 0.3333 0.0000-0.2546 ( 75359 PWs)   bands (ev):

   -22.4126 -22.4113 -22.3989 -22.3979 -21.9972 -21.9963 -21.9797 -21.9792
   -17.5764 -17.5752 -17.5691 -17.5660 -16.5233 -16.5207 -16.4834 -16.4755
   -16.3190 -16.3113 -16.2029 -16.2016 -15.3920 -15.3541 -15.3303 -15.2969
   -13.8467 -13.8319 -13.7805 -13.7779 -12.9353 -12.9177 -12.8410 -12.8345
   -10.0849 -10.0818  -9.9904  -9.9890  -9.2768  -9.2227  -9.0844  -9.0655
    -8.4387  -8.4347  -8.3365  -8.3080  -8.0969  -8.0373  -7.8260  -7.7971
    -6.8912  -6.8476  -6.6228  -6.5733  -6.1800  -6.1247  -6.0615  -6.0200
    -5.7708  -5.7234  -5.7141  -5.6772  -5.6576  -5.5924  -5.2203  -5.2075
    -5.1456  -5.0857  -5.0207  -4.9995  -4.9408  -4.9220  -4.8036  -4.7997
    -4.7657  -4.7361  -4.5680  -4.5661  -3.8138  -3.7988  -3.6971  -3.6783
    -2.9589  -2.9439  -2.8866  -2.8588  -2.0608  -2.0508  -1.9607  -1.9386
    -1.8347  -1.8221  -1.5368  -1.4962  -1.4130  -1.3806  -1.3561  -1.3475
    -1.2602  -1.2339  -1.1309  -1.1156  -0.9530  -0.8764  -0.8201  -0.7620
    -0.6542  -0.6338  -0.3200  -0.3027  -0.2793  -0.2500  -0.1417  -0.1302
     0.1024   0.1858   0.4049   0.4747   1.1710   1.3392   1.4567   1.5320
     1.8687   1.9269   2.0005   2.0220   4.5396   4.5736   4.6254   4.6593
     6.2102   6.2247   6.2989   6.3466   7.0111   7.0116   7.3053   7.3272
     7.6140   7.7688   7.9146   7.9480   8.0988   8.4760   8.5945   8.6119
     8.8075   8.8625   8.9623   9.0136

          k = 0.3333-0.4117 0.0731 ( 75444 PWs)   bands (ev):

   -22.4108 -22.4101 -22.3995 -22.3988 -21.9941 -21.9938 -21.9835 -21.9832
   -17.5832 -17.5824 -17.5603 -17.5595 -16.5218 -16.5218 -16.4833 -16.4832
   -16.2835 -16.2826 -16.2299 -16.2288 -15.3657 -15.3653 -15.3204 -15.3200
   -13.8370 -13.8366 -13.7868 -13.7864 -12.9451 -12.9441 -12.8277 -12.8269
   -10.0435 -10.0427 -10.0040 -10.0031  -9.2101  -9.2100  -9.1232  -9.1227
    -8.4213  -8.4209  -8.3645  -8.3641  -7.9781  -7.9779  -7.8753  -7.8751
    -6.8419  -6.8415  -6.6644  -6.6640  -6.1290  -6.1290  -6.0459  -6.0458
    -5.7648  -5.7644  -5.6584  -5.6582  -5.6340  -5.6339  -5.2351  -5.2345
    -5.0879  -5.0872  -5.0164  -5.0159  -4.9306  -4.9301  -4.8200  -4.8198
    -4.7286  -4.7285  -4.5346  -4.5342  -3.8139  -3.8133  -3.7124  -3.7119
    -2.9798  -2.9797  -2.8636  -2.8635  -2.1072  -2.1070  -1.9800  -1.9798
    -1.8253  -1.8252  -1.5284  -1.5281  -1.4131  -1.4126  -1.3248  -1.3247
    -1.1869  -1.1869  -1.1291  -1.1289  -0.8902  -0.8897  -0.8186  -0.8183
    -0.6305  -0.6304  -0.3042  -0.3040  -0.2795  -0.2791  -0.1269  -0.1269
     0.1629   0.1636   0.4398   0.4404   1.3212   1.3218   1.5000   1.5006
     1.8710   1.8718   2.0252   2.0259   4.5618   4.5625   4.5909   4.5917
     6.2049   6.2051   6.3658   6.3662   6.9999   7.0000   7.2977   7.2987
     7.7679   7.7680   8.0481   8.0483   8.2030   8.2034   8.3919   8.3926
     8.7570   8.7575   8.9865   8.9870

          k = 0.3333-0.4117-0.2546 ( 75470 PWs)   bands (ev):

   -22.4107 -22.4099 -22.3996 -22.3989 -21.9940 -21.9937 -21.9836 -21.9833
   -17.5821 -17.5812 -17.5615 -17.5607 -16.5177 -16.5176 -16.4890 -16.4888
   -16.2822 -16.2814 -16.2292 -16.2281 -15.3661 -15.3656 -15.3208 -15.3203
   -13.8273 -13.8266 -13.7961 -13.7954 -12.9456 -12.9447 -12.8279 -12.8271
   -10.0434 -10.0426 -10.0042 -10.0033  -9.2135  -9.2134  -9.1219  -9.1215
    -8.4160  -8.4157  -8.3764  -8.3762  -7.9576  -7.9573  -7.8705  -7.8703
    -6.8410  -6.8405  -6.6614  -6.6610  -6.1482  -6.1479  -6.0927  -6.0923
    -5.7307  -5.7303  -5.6952  -5.6950  -5.6047  -5.6045  -5.2358  -5.2353
    -5.1053  -5.1047  -5.0373  -5.0367  -4.9134  -4.9131  -4.8126  -4.8125
    -4.6946  -4.6945  -4.5322  -4.5318  -3.8151  -3.8145  -3.6992  -3.6986
    -2.9332  -2.9327  -2.9080  -2.9074  -2.1069  -2.1066  -1.9703  -1.9701
    -1.8431  -1.8430  -1.5285  -1.5282  -1.4202  -1.4196  -1.3441  -1.3440
    -1.2040  -1.2040  -1.1472  -1.1471  -0.8660  -0.8656  -0.7884  -0.7881
    -0.6283  -0.6282  -0.3128  -0.3123  -0.2716  -0.2712  -0.1280  -0.1279
     0.1620   0.1627   0.4321   0.4327   1.3208   1.3214   1.5142   1.5149
     1.8625   1.8633   2.0239   2.0246   4.5614   4.5621   4.5912   4.5919
     6.2091   6.2092   6.3591   6.3596   6.9951   6.9953   7.2926   7.2935
     7.8595   7.8597   7.9279   7.9281   8.2637   8.2640   8.4027   8.4033
     8.7885   8.7893   8.9468   8.9473

     highest occupied, lowest unoccupied level (ev):     2.1055    4.4866

!    total energy              =   -1323.85558679 Ry
     Harris-Foulkes estimate   =   -1323.85558679 Ry
     estimated scf accuracy    <          2.4E-09 Ry

     total all-electron energy =     -5070.027506 Ry

     The total energy is the sum of the following terms:

     one-electron contribution =    -693.68936360 Ry
     hartree contribution      =     447.48187886 Ry
     xc contribution           =    -266.49910944 Ry
     ewald contribution        =    -429.49153902 Ry
     Dispersion Correction     =      -0.30642180 Ry
     one-center paw contrib.   =    -381.35103178 Ry

     convergence has been achieved in  15 iterations

     Forces acting on atoms (cartesian axes, Ry/au):

     atom    1 type  2   force =    -0.00041600    0.00044874    0.00028389
     atom    2 type  2   force =     0.00027617    0.00052140   -0.00064888
     atom    3 type  2   force =     0.00041600   -0.00044874   -0.00028389
     atom    4 type  2   force =    -0.00027617   -0.00052140    0.00064888
     atom    5 type  3   force =    -0.00068518   -0.00003996   -0.00001706
     atom    6 type  3   force =     0.00068655   -0.00001473    0.00005791
     atom    7 type  3   force =     0.00068518    0.00003996    0.00001706
     atom    8 type  3   force =    -0.00068655    0.00001473   -0.00005791
     atom    9 type  3   force =    -0.00024963   -0.00018298   -0.00021668
     atom   10 type  3   force =     0.00027832   -0.00010256    0.00033244
     atom   11 type  3   force =     0.00024963    0.00018298    0.00021668
     atom   12 type  3   force =    -0.00027832    0.00010256   -0.00033244
     atom   13 type  1   force =     0.00246518   -0.00006202    0.00143164
     atom   14 type  1   force =    -0.00230245   -0.00012697   -0.00106971
     atom   15 type  1   force =    -0.00246518    0.00006202   -0.00143164
     atom   16 type  1   force =     0.00230245    0.00012697    0.00106971
     atom   17 type  2   force =    -0.00057635    0.00181303   -0.00196844
     atom   18 type  2   force =     0.00055674    0.00181684    0.00186568
     atom   19 type  2   force =     0.00057635   -0.00181303    0.00196844
     atom   20 type  2   force =    -0.00055674   -0.00181684   -0.00186568
     atom   21 type  2   force =     0.00051862    0.00134084    0.00055121
     atom   22 type  2   force =    -0.00052839    0.00138633   -0.00054088
     atom   23 type  2   force =    -0.00051862   -0.00134084   -0.00055121
     atom   24 type  2   force =     0.00052839   -0.00138633    0.00054088
     atom   25 type  1   force =     0.00017637    0.00000316    0.00053802
     atom   26 type  1   force =    -0.00016655   -0.00015227   -0.00056848
     atom   27 type  1   force =    -0.00017637   -0.00000316   -0.00053802
     atom   28 type  1   force =     0.00016655    0.00015227    0.00056848
     atom   29 type  4   force =    -0.00019185    0.00022382   -0.00080887
     atom   30 type  4   force =     0.00015447    0.00029657    0.00077559
     atom   31 type  4   force =     0.00019185   -0.00022382    0.00080887
     atom   32 type  4   force =    -0.00015447   -0.00029657   -0.00077559
     atom   33 type  1   force =    -0.00042544    0.00102670   -0.00290735
     atom   34 type  1   force =     0.00037103    0.00127588    0.00291405
     atom   35 type  1   force =     0.00042544   -0.00102670    0.00290735
     atom   36 type  1   force =    -0.00037103   -0.00127588   -0.00291405
     atom   37 type  2   force =    -0.00010704   -0.00330115    0.00021985
     atom   38 type  2   force =     0.00011027   -0.00334971   -0.00023302
     atom   39 type  2   force =     0.00010704    0.00330115   -0.00021985
     atom   40 type  2   force =    -0.00011027    0.00334971    0.00023302
     atom   41 type  4   force =     0.00106481    0.00015248    0.00133008
     atom   42 type  4   force =    -0.00104960    0.00014855   -0.00131592
     atom   43 type  4   force =    -0.00106481   -0.00015248   -0.00133008
     atom   44 type  4   force =     0.00104960   -0.00014855    0.00131592
     atom   45 type  2   force =    -0.00086971    0.00218645   -0.00089335
     atom   46 type  2   force =     0.00082216    0.00228111    0.00084766
     atom   47 type  2   force =     0.00086971   -0.00218645    0.00089335
     atom   48 type  2   force =    -0.00082216   -0.00228111   -0.00084766
     atom   49 type  1   force =     0.00059525   -0.00085074    0.00198201
     atom   50 type  1   force =    -0.00049031   -0.00115537   -0.00189249
     atom   51 type  1   force =    -0.00059525    0.00085074   -0.00198201
     atom   52 type  1   force =     0.00049031    0.00115537    0.00189249
     atom   53 type  2   force =    -0.00060088   -0.00073555   -0.00100135
     atom   54 type  2   force =     0.00023451    0.00002923    0.00076900
     atom   55 type  2   force =     0.00060088    0.00073555    0.00100135
     atom   56 type  2   force =    -0.00023451   -0.00002923   -0.00076900
     atom   57 type  3   force =    -0.00025372   -0.00025778    0.00017517
     atom   58 type  3   force =     0.00042541   -0.00064154   -0.00026322
     atom   59 type  3   force =     0.00025372    0.00025778   -0.00017517
     atom   60 type  3   force =    -0.00042541    0.00064154    0.00026322
     atom   61 type  3   force =     0.00032465   -0.00007647    0.00082645
     atom   62 type  3   force =    -0.00016228   -0.00033613   -0.00052618
     atom   63 type  3   force =    -0.00032465    0.00007647   -0.00082645
     atom   64 type  3   force =     0.00016228    0.00033613    0.00052618

     Total force =     0.015123     Total SCF correction =     0.000094


     Computing stress (Cartesian axis) and pressure

          total   stress  (Ry/bohr**3)                   (kbar)     P=   -5.52
  -0.00002964  -0.00000002  -0.00000673         -4.36     -0.00     -0.99
  -0.00000002  -0.00003627   0.00000051         -0.00     -5.34      0.07
  -0.00000673   0.00000051  -0.00004661         -0.99      0.07     -6.86


     Writing output data file scf.save
 
     init_run     :     26.01s CPU     26.55s WALL (       1 calls)
     electrons    :    740.72s CPU    761.23s WALL (       1 calls)
     forces       :     13.23s CPU     13.32s WALL (       1 calls)
     stress       :     47.25s CPU     47.39s WALL (       1 calls)

     Called by init_run:
     wfcinit      :     18.66s CPU     19.11s WALL (       1 calls)
     potinit      :      2.57s CPU      2.59s WALL (       1 calls)

     Called by electrons:
     c_bands      :    660.19s CPU    677.88s WALL (      15 calls)
     sum_band     :     71.99s CPU     74.14s WALL (      15 calls)
     v_of_rho     :      1.36s CPU      1.49s WALL (      16 calls)
     newd         :      2.89s CPU      3.35s WALL (      16 calls)
     PAW_pot      :      3.99s CPU      4.01s WALL (      16 calls)
     mix_rho      :      0.30s CPU      0.34s WALL (      15 calls)

     Called by c_bands:
     init_us_2    :      4.19s CPU      4.21s WALL (     264 calls)
     cegterg      :    643.36s CPU    660.93s WALL (     120 calls)

     Called by sum_band:
     sum_band:bec :      0.05s CPU      0.05s WALL (     120 calls)
     addusdens    :      2.91s CPU      3.39s WALL (      15 calls)

     Called by *egterg:
     h_psi        :    366.04s CPU    376.95s WALL (     560 calls)
     s_psi        :     71.62s CPU     71.63s WALL (     560 calls)
     g_psi        :      1.91s CPU      1.91s WALL (     432 calls)
     cdiaghg      :     40.68s CPU     40.67s WALL (     552 calls)

     Called by h_psi:
     h_psi:pot    :    363.22s CPU    374.08s WALL (     560 calls)
     h_psi:calbec :     70.84s CPU     71.04s WALL (     560 calls)
     vloc_psi     :    220.88s CPU    231.55s WALL (     560 calls)
     add_vuspsi   :     71.50s CPU     71.49s WALL (     560 calls)

     General routines
     calbec       :    105.17s CPU    105.43s WALL (     720 calls)
     fft          :      1.20s CPU      1.40s WALL (     232 calls)
     fftw         :    238.05s CPU    249.52s WALL (  117350 calls)
 
     Parallel routines
     fft_scatter  :     54.23s CPU     61.15s WALL (  117582 calls)
 
     PWSCF        : 13m53.83s CPU    14m50.90s WALL

 
   This run was terminated on:   7:47:19  21Dec2017            

=------------------------------------------------------------------------------=
   JOB DONE.
=------------------------------------------------------------------------------=
