
     Program PWSCF v.6.1 (svn rev. 13369) starts on 21Dec2017 at  4:51:46 

     This program is part of the open-source Quantum ESPRESSO suite
     for quantum simulation of materials; please cite
         "P. Giannozzi et al., J. Phys.:Condens. Matter 21 395502 (2009);
          URL http://www.quantum-espresso.org", 
     in publications or presentations arising from this work. More details at
     http://www.quantum-espresso.org/quote

     Parallel version (MPI), running on     8 processors
     R & G space division:  proc/nbgrp/npool/nimage =       8
     Waiting for input...
     Reading input from standard input

     Current dimensions of program PWSCF are:
     Max number of different atomic species (ntypx) = 10
     Max number of k-points (npk) =  40000
     Max angular momentum in pseudopotentials (lmaxx) =  3
               file C.pbe-n-kjpaw_psl.0.1.UPF: wavefunction(s)  2P renormalized
               file N.pbe-n-kjpaw_psl.0.1.UPF: wavefunction(s)  2P renormalized
               file H.pbe-kjpaw_psl.0.1.UPF: wavefunction(s)  1S renormalized
               file O.pbe-n-kjpaw_psl.0.1.UPF: wavefunction(s)  2P renormalized

     -------------------------------------
     Parameters for Dispersion Correction:
     -------------------------------------
       atom      VdW radius       C_6     

        C          2.744         60.710
        N          2.640         42.670
        H          1.892          4.857
        O          2.536         24.284

     Subspace diagonalization in iterative solution of the eigenvalue problem:
     a serial algorithm will be used

 
     Parallelization info
     --------------------
     sticks:   dense  smooth     PW     G-vecs:    dense   smooth      PW
     Min        1214    1214    321               125682   125682   17092
     Max        1215    1215    323               125687   125687   17093
     Sum        9719    9719   2573              1005485  1005485  136743
 


     bravais-lattice index     =            0
     lattice parameter (alat)  =      16.4669  a.u.
     unit-cell volume          =    7442.7091 (a.u.)^3
     number of atoms/cell      =          104
     number of atomic types    =            4
     number of electrons       =       384.00
     number of Kohn-Sham states=          230
     kinetic-energy cutoff     =     100.0000  Ry
     charge density cutoff     =     400.0000  Ry
     convergence threshold     =      1.0E-08
     mixing beta               =       0.5000
     number of iterations used =            8  plain     mixing
     Exchange-correlation      =  SLA  PW   PBX  PBC ( 1  4  3  4 0 0)

     celldm(1)=  16.466885  celldm(2)=   0.000000  celldm(3)=   0.000000
     celldm(4)=   0.000000  celldm(5)=   0.000000  celldm(6)=   0.000000

     crystal axes: (cart. coord. in units of alat)
               a(1) = (   1.000000   0.000000   0.000000 )  
               a(2) = (   0.000000   1.126912   0.000000 )  
               a(3) = (   0.000000   0.000000   1.479131 )  

     reciprocal axes: (cart. coord. in units 2 pi/alat)
               b(1) = (  1.000000  0.000000  0.000000 )  
               b(2) = (  0.000000  0.887381  0.000000 )  
               b(3) = (  0.000000  0.000000  0.676073 )  


     PseudoPot. # 1 for  C read from file:
     /scratch/ahofstet/pseudo/C.pbe-n-kjpaw_psl.0.1.UPF
     MD5 check sum: 430fe95172b1e11ef3f8ed03bac87931
     Pseudo is Projector augmented-wave + core cor, Zval =  4.0
     Generated using "atomic" code by A. Dal Corso  v.5.0.99 svn rev. 10869
     Shape of augmentation charge: BESSEL
     Using radial grid of 1073 points,  4 beta functions with: 
                l(1) =   0
                l(2) =   0
                l(3) =   1
                l(4) =   1
     Q(r) pseudized with 0 coefficients 


     PseudoPot. # 2 for  N read from file:
     /scratch/ahofstet/pseudo/N.pbe-n-kjpaw_psl.0.1.UPF
     MD5 check sum: f73187c8b701007e77325f868c9291d7
     Pseudo is Projector augmented-wave + core cor, Zval =  5.0
     Generated using "atomic" code by A. Dal Corso  v.5.0.99 svn rev. 10869
     Shape of augmentation charge: PSQ
     Using radial grid of 1085 points,  4 beta functions with: 
                l(1) =   0
                l(2) =   0
                l(3) =   1
                l(4) =   1
     Q(r) pseudized with 0 coefficients 


     PseudoPot. # 3 for  H read from file:
     /scratch/ahofstet/pseudo/H.pbe-kjpaw_psl.0.1.UPF
     MD5 check sum: 94e484f906d9e9773b2f6e52662335b2
     Pseudo is Projector augmented-wave, Zval =  1.0
     Generated using "atomic" code by A. Dal Corso  v.5.0.99 svn rev. 10869
     Shape of augmentation charge: PSQ
     Using radial grid of  929 points,  2 beta functions with: 
                l(1) =   0
                l(2) =   0
     Q(r) pseudized with 0 coefficients 


     PseudoPot. # 4 for  O read from file:
     /scratch/ahofstet/pseudo/O.pbe-n-kjpaw_psl.0.1.UPF
     MD5 check sum: 3f94a2996a3169367d6eb21d9b593f20
     Pseudo is Projector augmented-wave + core cor, Zval =  6.0
     Generated using "atomic" code by A. Dal Corso  v.5.0.99 svn rev. 10869
     Shape of augmentation charge: BESSEL
     Using radial grid of 1095 points,  4 beta functions with: 
                l(1) =   0
                l(2) =   0
                l(3) =   1
                l(4) =   1
     Q(r) pseudized with 0 coefficients 


     atomic species   valence    mass     pseudopotential
        C              4.00    12.01070      C( 1.00)
        N              5.00    14.00670      N( 1.00)
        H              1.00     1.00794      H( 1.00)
        O              6.00    15.99940      O( 1.00)

      2 Sym. Ops., with inversion, found



   Cartesian axes

     site n.     atom                  positions (alat units)
         1           N   tau(   1) = (   0.5118059   0.4635473   1.2402185  )
         2           N   tau(   2) = (   0.9911174   0.6638363   0.4990284  )
         3           N   tau(   3) = (   0.4880744   1.0272010   0.9784589  )
         4           N   tau(   4) = (   0.0087095   0.1005016   0.2405619  )
         5           N   tau(   5) = (   0.4881941   0.6633649   0.2389126  )
         6           N   tau(   6) = (   0.0088826   0.4630759   0.9801026  )
         7           N   tau(   7) = (   0.5119256   0.0997112   0.5006721  )
         8           N   tau(   8) = (   0.9912905   1.0264105   1.2385692  )
         9           N   tau(   9) = (   0.3124381   0.3018287   1.1396282  )
        10           N   tau(  10) = (   0.1878884   0.8285774   0.3978652  )
        11           N   tau(  11) = (   0.6873341   0.8653552   1.0794163  )
        12           N   tau(  12) = (   0.8119699   0.2653452   0.3415507  )
        13           N   tau(  13) = (   0.6875619   0.8250835   0.3395029  )
        14           N   tau(  14) = (   0.8121116   0.2983348   1.0812659  )
        15           N   tau(  15) = (   0.3126659   0.2615570   0.3997147  )
        16           N   tau(  16) = (   0.1880301   0.8615670   1.1375804  )
        17           N   tau(  17) = (   0.2465514   0.1773980   1.1917982  )
        18           N   tau(  18) = (   0.2525727   0.9535357   0.4502951  )
        19           N   tau(  19) = (   0.7534002   0.7409897   1.0272251  )
        20           N   tau(  20) = (   0.7474677   0.3903603   0.2890732  )
        21           N   tau(  21) = (   0.7534486   0.9495141   0.2873328  )
        22           N   tau(  22) = (   0.7474273   0.1733765   1.0288360  )
        23           N   tau(  23) = (   0.2465998   0.3859224   0.4519059  )
        24           N   tau(  24) = (   0.2525323   0.7365519   1.1900579  )
        25           H   tau(  25) = (   0.1642620   0.1176986   1.1315579  )
        26           H   tau(  26) = (   0.3351611   1.0134902   0.3906850  )
        27           H   tau(  27) = (   0.8356131   0.6810800   1.0873609  )
        28           H   tau(  28) = (   0.6650947   0.4504929   0.3487823  )
        29           H   tau(  29) = (   0.8357380   1.0092135   0.3475731  )
        30           H   tau(  30) = (   0.6648389   0.1134220   1.0884460  )
        31           H   tau(  31) = (   0.1643869   0.4458322   0.3917701  )
        32           H   tau(  32) = (   0.3349053   0.6764193   1.1303487  )
        33           N   tau(  33) = (   0.2932374   0.1242047   1.3276500  )
        34           N   tau(  34) = (   0.2059358   1.0055628   0.5866090  )
        35           N   tau(  35) = (   0.7070555   0.6879850   0.8911879  )
        36           N   tau(  36) = (   0.7942838   0.4423616   0.1527873  )
        37           N   tau(  37) = (   0.7067626   1.0027075   0.1514811  )
        38           N   tau(  38) = (   0.7940642   0.1213493   0.8925221  )
        39           N   tau(  39) = (   0.2929445   0.4389272   0.5879432  )
        40           N   tau(  40) = (   0.2057162   0.6845506   1.3263437  )
        41           O   tau(  41) = (   0.4981217   0.5482515   1.1251706  )
        42           O   tau(  42) = (   1.0057802   0.5793350   0.3839691  )
        43           O   tau(  43) = (   0.5019051  -0.0147348   1.0932759  )
        44           O   tau(  44) = (  -0.0060832   1.1429233   0.3556179  )
        45           O   tau(  45) = (   0.5018783   0.5786607   0.3539604  )
        46           O   tau(  46) = (  -0.0057802   0.5475771   1.0951619  )
        47           O   tau(  47) = (   0.4980949   1.1416470   0.3858551  )
        48           O   tau(  48) = (   1.0060832  -0.0160112   1.1235132  )
        49           O   tau(  49) = (   0.6064044   0.4845489   1.3431394  )
        50           O   tau(  50) = (   0.8972442   0.6413732   0.6023325  )
        51           O   tau(  51) = (   0.3932329   1.0479999   0.8757144  )
        52           O   tau(  52) = (   0.1027158   0.0780530   0.1373740  )
        53           O   tau(  53) = (   0.3935956   0.6423633   0.1359917  )
        54           O   tau(  54) = (   0.1027558   0.4855390   0.8767985  )
        55           O   tau(  55) = (   0.6067671   0.0789122   0.6034166  )
        56           O   tau(  56) = (   0.8972842   1.0488592   1.3417571  )
        57           C   tau(  57) = (   0.4132594   0.3333523   1.2522107  )
        58           C   tau(  58) = (   0.0877002   0.7955703   0.5106266  )
        59           C   tau(  59) = (   0.5866949   0.8969597   0.9666524  )
        60           C   tau(  60) = (   0.9120921   0.2321572   0.2287811  )
        61           C   tau(  61) = (   0.5867406   0.7935599   0.2269203  )
        62           C   tau(  62) = (   0.9122998   0.3313418   0.9685045  )
        63           C   tau(  63) = (   0.4133051   0.2299525   0.5124786  )
        64           C   tau(  64) = (   0.0879079   0.8947550   1.2503499  )
        65           C   tau(  65) = (   0.4023186   0.2235185   1.3717150  )
        66           C   tau(  66) = (   0.0979646   0.9049821   0.6305820  )
        67           C   tau(  67) = (   0.5979851   0.7872843   0.8470581  )
        68           C   tau(  68) = (   0.9020596   0.3415621   0.1088126  )
        69           C   tau(  69) = (   0.5976814   0.9033937   0.1074160  )
        70           C   tau(  70) = (   0.9020354   0.2219301   0.8485490  )
        71           C   tau(  71) = (   0.4020149   0.3396279   0.6320729  )
        72           C   tau(  72) = (   0.0979404   0.7853501   1.3703185  )
        73           C   tau(  73) = (   0.4844329   0.2100294   1.5200108  )
        74           C   tau(  74) = (   1.0164656   0.9167376   0.7793254  )
        75           C   tau(  75) = (   0.5156801   0.7737746   0.6988859  )
        76           C   tau(  76) = (  -0.0161514   0.3533217  -0.0398113  )
        77           C   tau(  77) = (   0.5155671   0.9168828  -0.0408797  )
        78           C   tau(  78) = (  -0.0164656   0.2101746   0.6998057  )
        79           C   tau(  79) = (   0.4843199   0.3531375   0.7802451  )
        80           C   tau(  80) = (   1.0161514   0.7735905   1.5189423  )
        81           H   tau(  81) = (   0.4994448   0.3240234   1.5710549  )
        82           H   tau(  82) = (   1.0028303   0.8023227   0.8298171  )
        83           H   tau(  83) = (   0.5000223   0.8877489   0.6480247  )
        84           H   tau(  84) = (  -0.0025089   0.2389463  -0.0904112  )
        85           H   tau(  85) = (   0.5005552   0.8028888  -0.0919239  )
        86           H   tau(  86) = (  -0.0028303   0.3245895   0.6493139  )
        87           H   tau(  87) = (   0.4999777   0.2391633   0.8311063  )
        88           H   tau(  88) = (   1.0025089   0.8879659   1.5695423  )
        89           H   tau(  89) = (   0.5993829   0.1600618   1.5038266  )
        90           H   tau(  90) = (   0.9008696   0.9654331   0.7639641  )
        91           H   tau(  91) = (   0.4009031   0.7234946   0.7153888  )
        92           H   tau(  92) = (   0.0994723   0.4019239  -0.0242257  )
        93           H   tau(  93) = (   0.4006171   0.9668504  -0.0246956  )
        94           H   tau(  94) = (   0.0991304   0.1614791   0.7151669  )
        95           H   tau(  95) = (   0.5990969   0.4034176   0.7637422  )
        96           H   tau(  96) = (   0.9005277   0.7249882   1.5033567  )
        97           H   tau(  97) = (   0.4196010   0.1365590   1.5987089  )
        98           H   tau(  98) = (   0.0809995   0.9902702   0.8582095  )
        99           H   tau(  99) = (   0.5806483   0.7007432   0.6198840  )
       100           H   tau( 100) = (   0.9195645   0.4269932  -0.1187575  )
       101           H   tau( 101) = (   0.5803990   0.9903531  -0.1195778  )
       102           H   tau( 102) = (   0.9190005   0.1366419   0.6209215  )
       103           H   tau( 103) = (   0.4193517   0.4261690   0.8592471  )
       104           H   tau( 104) = (   0.0804355   0.6999190   1.5978885  )

     number of k points=     8
                       cart. coord. in units 2pi/alat
        k(    1) = (   0.0000000   0.0000000   0.0000000), wk =   0.2500000
        k(    2) = (   0.0000000   0.0000000  -0.3380363), wk =   0.2500000
        k(    3) = (   0.0000000  -0.4436903   0.0000000), wk =   0.2500000
        k(    4) = (   0.0000000  -0.4436903  -0.3380363), wk =   0.2500000
        k(    5) = (  -0.5000000   0.0000000   0.0000000), wk =   0.2500000
        k(    6) = (  -0.5000000   0.0000000  -0.3380363), wk =   0.2500000
        k(    7) = (  -0.5000000  -0.4436903   0.0000000), wk =   0.2500000
        k(    8) = (  -0.5000000  -0.4436903  -0.3380363), wk =   0.2500000

     Dense  grid:  1005485 G-vectors     FFT dimensions: ( 108, 120, 160)

     Estimated max dynamical RAM per process >    1192.68MB

     Estimated total allocated dynamical RAM >    9541.41MB

     Check: negative/imaginary core charge=   -0.000002    0.000000

     Initial potential from superposition of free atoms

     starting charge  383.99844, renormalised to  384.00000
     Starting wfc are  320 randomized atomic wfcs
     Checking if some PAW data can be deallocated... 

     total cpu time spent up to now is       52.7 secs

     per-process dynamical memory:   799.3 Mb

     Self-consistent Calculation

     iteration #  1     ecut=   100.00 Ry     beta=0.50
     Davidson diagonalization with overlap
     ethr =  1.00E-02,  avg # of iterations =  4.0

     total cpu time spent up to now is      212.3 secs

     total energy              =   -2045.83317063 Ry
     Harris-Foulkes estimate   =   -2051.47349340 Ry
     estimated scf accuracy    <      10.36698205 Ry

     iteration #  2     ecut=   100.00 Ry     beta=0.50
     Davidson diagonalization with overlap
     ethr =  2.70E-03,  avg # of iterations =  4.2

     total cpu time spent up to now is      329.1 secs

     total energy              =   -2047.39864482 Ry
     Harris-Foulkes estimate   =   -2048.46816031 Ry
     estimated scf accuracy    <       2.23770392 Ry

     iteration #  3     ecut=   100.00 Ry     beta=0.50
     Davidson diagonalization with overlap
     ethr =  5.83E-04,  avg # of iterations =  7.6

     total cpu time spent up to now is      471.8 secs

     total energy              =   -2047.97282266 Ry
     Harris-Foulkes estimate   =   -2048.19465154 Ry
     estimated scf accuracy    <       0.54003848 Ry

     iteration #  4     ecut=   100.00 Ry     beta=0.50
     Davidson diagonalization with overlap
     ethr =  1.41E-04,  avg # of iterations =  3.5

     total cpu time spent up to now is      572.2 secs

     total energy              =   -2048.02527133 Ry
     Harris-Foulkes estimate   =   -2048.09166638 Ry
     estimated scf accuracy    <       0.15822676 Ry

     iteration #  5     ecut=   100.00 Ry     beta=0.50
     Davidson diagonalization with overlap
     ethr =  4.12E-05,  avg # of iterations = 10.1

     total cpu time spent up to now is      720.2 secs

     total energy              =   -2048.06522264 Ry
     Harris-Foulkes estimate   =   -2048.09144730 Ry
     estimated scf accuracy    <       0.08221534 Ry

     iteration #  6     ecut=   100.00 Ry     beta=0.50
     Davidson diagonalization with overlap
     ethr =  2.14E-05,  avg # of iterations =  2.0

     total cpu time spent up to now is      811.0 secs

     total energy              =   -2048.07632543 Ry
     Harris-Foulkes estimate   =   -2048.07804907 Ry
     estimated scf accuracy    <       0.00457429 Ry

     iteration #  7     ecut=   100.00 Ry     beta=0.50
     Davidson diagonalization with overlap
     ethr =  1.19E-06,  avg # of iterations = 10.2

     total cpu time spent up to now is     1016.1 secs

     total energy              =   -2048.07813776 Ry
     Harris-Foulkes estimate   =   -2048.07843108 Ry
     estimated scf accuracy    <       0.00078931 Ry

     iteration #  8     ecut=   100.00 Ry     beta=0.50
     Davidson diagonalization with overlap
     ethr =  2.06E-07,  avg # of iterations =  3.0

     total cpu time spent up to now is     1116.0 secs

     total energy              =   -2048.07820710 Ry
     Harris-Foulkes estimate   =   -2048.07835773 Ry
     estimated scf accuracy    <       0.00043439 Ry

     iteration #  9     ecut=   100.00 Ry     beta=0.50
     Davidson diagonalization with overlap
     ethr =  1.13E-07,  avg # of iterations =  3.8

     total cpu time spent up to now is     1220.1 secs

     total energy              =   -2048.07828893 Ry
     Harris-Foulkes estimate   =   -2048.07834596 Ry
     estimated scf accuracy    <       0.00017981 Ry

     iteration # 10     ecut=   100.00 Ry     beta=0.50
     Davidson diagonalization with overlap
     ethr =  4.68E-08,  avg # of iterations =  2.8

     total cpu time spent up to now is     1310.4 secs

     total energy              =   -2048.07830681 Ry
     Harris-Foulkes estimate   =   -2048.07831936 Ry
     estimated scf accuracy    <       0.00002458 Ry

     iteration # 11     ecut=   100.00 Ry     beta=0.50
     Davidson diagonalization with overlap
     ethr =  6.40E-09,  avg # of iterations =  4.0

     total cpu time spent up to now is     1452.4 secs

     total energy              =   -2048.07831742 Ry
     Harris-Foulkes estimate   =   -2048.07832052 Ry
     estimated scf accuracy    <       0.00000847 Ry

     iteration # 12     ecut=   100.00 Ry     beta=0.50
     Davidson diagonalization with overlap
     ethr =  2.21E-09,  avg # of iterations =  2.0

     total cpu time spent up to now is     1538.0 secs

     total energy              =   -2048.07831815 Ry
     Harris-Foulkes estimate   =   -2048.07831840 Ry
     estimated scf accuracy    <       0.00000066 Ry

     iteration # 13     ecut=   100.00 Ry     beta=0.50
     Davidson diagonalization with overlap
     ethr =  1.72E-10,  avg # of iterations =  4.0

     total cpu time spent up to now is     1701.5 secs

     total energy              =   -2048.07831882 Ry
     Harris-Foulkes estimate   =   -2048.07831907 Ry
     estimated scf accuracy    <       0.00000089 Ry

     iteration # 14     ecut=   100.00 Ry     beta=0.50
     Davidson diagonalization with overlap
     ethr =  1.72E-10,  avg # of iterations =  1.9

     total cpu time spent up to now is     1786.3 secs

     total energy              =   -2048.07831877 Ry
     Harris-Foulkes estimate   =   -2048.07831888 Ry
     estimated scf accuracy    <       0.00000032 Ry

     iteration # 15     ecut=   100.00 Ry     beta=0.50
     Davidson diagonalization with overlap
     ethr =  8.46E-11,  avg # of iterations =  4.0

     total cpu time spent up to now is     1886.9 secs

     total energy              =   -2048.07831883 Ry
     Harris-Foulkes estimate   =   -2048.07831884 Ry
     estimated scf accuracy    <       0.00000002 Ry

     iteration # 16     ecut=   100.00 Ry     beta=0.50
     Davidson diagonalization with overlap
     ethr =  6.35E-12,  avg # of iterations =  4.0

     total cpu time spent up to now is     2035.8 secs

     End of self-consistent calculation

          k = 0.0000 0.0000 0.0000 (125727 PWs)   bands (ev):

   -24.4875 -24.4811 -24.4808 -24.4764 -24.4748 -24.4741 -24.4706 -24.4680
   -21.7874 -21.7871 -21.7795 -21.7790 -21.7770 -21.7762 -21.7704 -21.7696
   -20.0028 -20.0007 -19.9956 -19.9931 -19.9921 -19.9866 -19.9834 -19.9743
   -16.3559 -16.3551 -16.3491 -16.3470 -16.3443 -16.3432 -16.3416 -16.3288
   -15.0721 -15.0665 -15.0488 -15.0413 -15.0121 -15.0021 -14.9585 -14.9476
   -12.6087 -12.6066 -12.5892 -12.5641 -12.4434 -12.4328 -12.4270 -12.3902
   -11.5126 -11.4956 -11.4937 -11.4832 -11.4825 -11.4819 -11.4440 -11.4417
    -8.7937  -8.7217  -8.7208  -8.7041  -8.5752  -8.5596  -8.5493  -8.5150
    -8.4958  -8.4910  -8.4807  -8.4196  -8.3681  -8.3412  -8.2583  -8.2205
    -7.5643  -7.5543  -7.4995  -7.4931  -7.4155  -7.3962  -7.3758  -7.3422
    -7.2465  -7.2375  -7.1674  -7.0915  -7.0242  -7.0168  -7.0083  -6.9651
    -6.9520  -6.8242  -6.7132  -6.6571  -6.3744  -6.3524  -6.3449  -6.3292
    -6.1736  -6.1338  -6.1112  -6.1016  -6.0526  -5.9634  -5.9366  -5.8090
    -5.4790  -5.4468  -5.4263  -5.3739  -5.3720  -5.3647  -5.3203  -5.2989
    -3.9525  -3.9318  -3.8712  -3.8652  -3.8259  -3.8098  -3.7949  -3.7883
    -3.6686  -3.5771  -3.5304  -3.4775  -3.4356  -3.3530  -3.3486  -3.3480
    -3.0712  -3.0137  -3.0117  -3.0016  -2.9996  -2.9801  -2.9223  -2.9049
    -1.9721  -1.8660  -1.8231  -1.7907  -1.7821  -1.7807  -1.7762  -1.7305
    -1.4787  -1.4550  -1.4410  -1.3970  -1.3715  -1.3077  -1.2938  -1.2607
    -1.2468  -1.2395  -1.2327  -1.1906  -1.1897  -1.1304  -1.0932  -1.0879
    -1.0516  -0.9914  -0.9410  -0.9321  -0.8913  -0.8792  -0.8450  -0.8168
    -0.8025  -0.7442  -0.7360  -0.7212  -0.7179  -0.6765  -0.6447  -0.5674
    -0.5243  -0.5144  -0.4836  -0.4305  -0.4169  -0.4124  -0.3745  -0.3180
    -0.2891  -0.2303  -0.2174  -0.2027  -0.1641  -0.1022  -0.0989  -0.0910
     2.8592   2.8608   2.8639   2.8983   2.9641   3.0120   3.0122   3.1098
     5.0101   5.0264   5.0291   5.1170   5.1727   5.1877   5.1954   5.1996
     6.6267   6.7171   6.7203   6.7254   6.7735   6.7787   6.9081   7.0010
     7.0462   7.1620   7.4326   7.5203   7.5565   7.7331   8.0754   8.0885
     8.2383   8.2837   8.5798   8.7347   8.7892   8.7970

          k = 0.0000 0.0000-0.3380 (125682 PWs)   bands (ev):

   -24.4856 -24.4852 -24.4777 -24.4776 -24.4745 -24.4740 -24.4694 -24.4692
   -21.7873 -21.7873 -21.7795 -21.7791 -21.7768 -21.7763 -21.7700 -21.7700
   -20.0020 -20.0014 -19.9934 -19.9933 -19.9918 -19.9917 -19.9775 -19.9772
   -16.3555 -16.3547 -16.3489 -16.3489 -16.3449 -16.3448 -16.3340 -16.3335
   -15.0700 -15.0696 -15.0448 -15.0443 -15.0077 -15.0074 -14.9527 -14.9524
   -12.6086 -12.6084 -12.5759 -12.5759 -12.4426 -12.4420 -12.4048 -12.4041
   -11.5039 -11.5035 -11.4903 -11.4901 -11.4810 -11.4807 -11.4429 -11.4428
    -8.7596  -8.7592  -8.7153  -8.7144  -8.5391  -8.5387  -8.5370  -8.5355
    -8.5181  -8.5179  -8.4502  -8.4491  -8.3562  -8.3556  -8.2369  -8.2369
    -7.5579  -7.5577  -7.4971  -7.4966  -7.4134  -7.4126  -7.3456  -7.3451
    -7.2441  -7.2435  -7.1351  -7.1347  -7.0209  -7.0206  -6.9855  -6.9855
    -6.8985  -6.8984  -6.6734  -6.6732  -6.3687  -6.3686  -6.3298  -6.3294
    -6.1512  -6.1500  -6.1136  -6.1132  -6.0145  -6.0136  -5.8732  -5.8722
    -5.4617  -5.4616  -5.3780  -5.3777  -5.3689  -5.3688  -5.3272  -5.3270
    -3.8954  -3.8941  -3.8615  -3.8607  -3.8488  -3.8476  -3.8314  -3.8309
    -3.5965  -3.5962  -3.5241  -3.5235  -3.3809  -3.3806  -3.3406  -3.3402
    -3.0414  -3.0398  -3.0200  -3.0189  -2.9572  -2.9571  -2.9552  -2.9551
    -1.9079  -1.9068  -1.8199  -1.8197  -1.7854  -1.7851  -1.7318  -1.7313
    -1.4825  -1.4815  -1.4337  -1.4334  -1.3381  -1.3379  -1.2710  -1.2701
    -1.2528  -1.2522  -1.1936  -1.1928  -1.1241  -1.1232  -1.1128  -1.1126
    -1.0410  -1.0410  -0.9443  -0.9443  -0.8794  -0.8790  -0.8350  -0.8350
    -0.7585  -0.7583  -0.7194  -0.7190  -0.6989  -0.6982  -0.6133  -0.6130
    -0.5087  -0.5063  -0.4743  -0.4727  -0.3892  -0.3883  -0.3628  -0.3619
    -0.2616  -0.2605  -0.2257  -0.2247  -0.1243  -0.1242  -0.0928  -0.0925
     2.8616   2.8617   2.8732   2.8736   2.9876   2.9883   3.0662   3.0663
     5.0147   5.0153   5.0874   5.0885   5.1588   5.1589   5.2055   5.2060
     6.6546   6.6584   6.7129   6.7166   6.8465   6.8497   6.8998   6.9024
     7.0380   7.0381   7.4475   7.4501   7.9366   7.9369   7.9753   7.9768
     8.2525   8.2532   8.5994   8.6011   8.8151   8.8173

          k = 0.0000-0.4437 0.0000 (125656 PWs)   bands (ev):

   -24.4841 -24.4835 -24.4781 -24.4774 -24.4756 -24.4755 -24.4696 -24.4695
   -21.7845 -21.7842 -21.7822 -21.7817 -21.7738 -21.7737 -21.7730 -21.7730
   -20.0001 -19.9994 -19.9933 -19.9933 -19.9894 -19.9889 -19.9821 -19.9820
   -16.3543 -16.3523 -16.3489 -16.3473 -16.3443 -16.3436 -16.3375 -16.3372
   -15.0457 -15.0457 -15.0323 -15.0322 -15.0068 -15.0066 -14.9933 -14.9931
   -12.5194 -12.5190 -12.5108 -12.5101 -12.5037 -12.5036 -12.4975 -12.4973
   -11.5148 -11.5143 -11.5022 -11.5021 -11.4592 -11.4592 -11.4472 -11.4472
    -8.6408  -8.6389  -8.6295  -8.6287  -8.6096  -8.6095  -8.5530  -8.5526
    -8.4758  -8.4747  -8.4614  -8.4610  -8.3901  -8.3901  -8.3724  -8.3722
    -7.5557  -7.5547  -7.4970  -7.4968  -7.4844  -7.4834  -7.4617  -7.4617
    -7.1123  -7.1120  -7.0206  -7.0205  -7.0172  -7.0170  -7.0039  -7.0039
    -6.6636  -6.6635  -6.6227  -6.6224  -6.5972  -6.5970  -6.5223  -6.5223
    -6.1336  -6.1322  -6.0172  -6.0162  -5.9880  -5.9873  -5.8877  -5.8872
    -5.4278  -5.4272  -5.4197  -5.4189  -5.4032  -5.4027  -5.3013  -5.3005
    -3.9230  -3.9219  -3.9009  -3.9008  -3.8186  -3.8182  -3.7825  -3.7825
    -3.6325  -3.6322  -3.5163  -3.5157  -3.3891  -3.3888  -3.3417  -3.3410
    -3.0508  -3.0493  -3.0189  -3.0175  -2.9701  -2.9689  -2.8948  -2.8943
    -1.8927  -1.8925  -1.8390  -1.8379  -1.7663  -1.7658  -1.7439  -1.7436
    -1.4580  -1.4576  -1.4144  -1.4136  -1.3215  -1.3209  -1.3021  -1.3019
    -1.2701  -1.2691  -1.2245  -1.2243  -1.1424  -1.1414  -0.9967  -0.9965
    -0.9847  -0.9844  -0.9762  -0.9758  -0.9380  -0.9376  -0.8761  -0.8757
    -0.7672  -0.7671  -0.7211  -0.7208  -0.6822  -0.6819  -0.6390  -0.6385
    -0.5011  -0.4993  -0.4500  -0.4492  -0.3751  -0.3746  -0.3058  -0.3044
    -0.2622  -0.2612  -0.2581  -0.2569  -0.2109  -0.2107  -0.0821  -0.0812
     2.9050   2.9051   2.9262   2.9264   2.9526   2.9531   3.0030   3.0043
     5.0282   5.0290   5.0866   5.0869   5.1413   5.1423   5.2135   5.2139
     6.6588   6.6593   6.7301   6.7307   6.9383   6.9385   6.9507   6.9510
     7.1865   7.1870   7.3223   7.3234   7.7607   7.7621   7.8385   7.8391
     8.4238   8.4250   8.6134   8.6167   8.7234   8.7276

          k = 0.0000-0.4437-0.3380 (125672 PWs)   bands (ev):

   -24.4838 -24.4831 -24.4794 -24.4789 -24.4744 -24.4740 -24.4700 -24.4698
   -21.7844 -21.7843 -21.7820 -21.7819 -21.7735 -21.7733 -21.7733 -21.7733
   -19.9997 -19.9990 -19.9947 -19.9947 -19.9879 -19.9874 -19.9827 -19.9825
   -16.3541 -16.3517 -16.3495 -16.3476 -16.3433 -16.3424 -16.3386 -16.3381
   -15.0411 -15.0403 -15.0399 -15.0391 -14.9994 -14.9991 -14.9987 -14.9980
   -12.5136 -12.5128 -12.5113 -12.5109 -12.5051 -12.5042 -12.5020 -12.5016
   -11.5139 -11.5133 -11.5029 -11.5027 -11.4588 -11.4587 -11.4480 -11.4480
    -8.6296  -8.6280  -8.6267  -8.6240  -8.5933  -8.5922  -8.5917  -8.5911
    -8.4674  -8.4664  -8.4599  -8.4594  -8.3867  -8.3862  -8.3812  -8.3807
    -7.5353  -7.5335  -7.5289  -7.5282  -7.4711  -7.4703  -7.4643  -7.4639
    -7.0720  -7.0719  -7.0708  -7.0704  -7.0066  -7.0060  -7.0056  -7.0044
    -6.6557  -6.6549  -6.6494  -6.6487  -6.5515  -6.5507  -6.5479  -6.5473
    -6.0786  -6.0772  -6.0764  -6.0763  -5.9431  -5.9424  -5.9395  -5.9380
    -5.4268  -5.4257  -5.4236  -5.4228  -5.3479  -5.3470  -5.3453  -5.3446
    -3.8788  -3.8761  -3.8730  -3.8715  -3.8467  -3.8457  -3.8428  -3.8418
    -3.5716  -3.5704  -3.5652  -3.5651  -3.3595  -3.3586  -3.3581  -3.3579
    -3.0432  -3.0405  -3.0344  -3.0340  -2.9438  -2.9430  -2.9325  -2.9318
    -1.8603  -1.8593  -1.8585  -1.8578  -1.7601  -1.7595  -1.7537  -1.7527
    -1.4439  -1.4435  -1.4430  -1.4417  -1.3078  -1.3072  -1.3021  -1.3013
    -1.2368  -1.2353  -1.2337  -1.2327  -1.0931  -1.0916  -1.0901  -1.0895
    -0.9895  -0.9890  -0.9875  -0.9868  -0.9043  -0.9041  -0.9016  -0.9011
    -0.7228  -0.7227  -0.7221  -0.7218  -0.6773  -0.6767  -0.6739  -0.6730
    -0.4500  -0.4476  -0.4413  -0.4402  -0.3938  -0.3922  -0.3901  -0.3885
    -0.2336  -0.2335  -0.2327  -0.2322  -0.1495  -0.1485  -0.1417  -0.1407
     2.9080   2.9088   2.9130   2.9134   2.9800   2.9812   2.9839   2.9850
     5.0535   5.0539   5.0575   5.0586   5.1768   5.1772   5.1806   5.1817
     6.6882   6.6888   6.6922   6.6925   6.9475   6.9497   6.9499   6.9510
     7.2092   7.2113   7.2133   7.2168   7.9050   7.9055   7.9142   7.9147
     8.4676   8.4702   8.4821   8.4860   8.7021   8.7024

          k =-0.5000 0.0000 0.0000 (125700 PWs)   bands (ev):

   -24.4854 -24.4810 -24.4797 -24.4792 -24.4742 -24.4735 -24.4723 -24.4679
   -21.7848 -21.7843 -21.7789 -21.7787 -21.7777 -21.7773 -21.7728 -21.7717
   -20.0030 -19.9988 -19.9985 -19.9966 -19.9854 -19.9838 -19.9831 -19.9791
   -16.3544 -16.3539 -16.3507 -16.3475 -16.3441 -16.3413 -16.3401 -16.3334
   -15.0602 -15.0596 -15.0572 -15.0569 -14.9802 -14.9800 -14.9780 -14.9772
   -12.6005 -12.5985 -12.5928 -12.5921 -12.4294 -12.4287 -12.4100 -12.4095
   -11.5116 -11.5007 -11.4985 -11.4878 -11.4644 -11.4636 -11.4543 -11.4533
    -8.7691  -8.7660  -8.7173  -8.7167  -8.5615  -8.5591  -8.5215  -8.5209
    -8.4999  -8.4995  -8.4531  -8.4508  -8.3110  -8.3109  -8.2871  -8.2871
    -7.5593  -7.5549  -7.5265  -7.5241  -7.3669  -7.3646  -7.3463  -7.3418
    -7.2138  -7.2106  -7.1739  -7.1679  -7.0490  -7.0488  -7.0163  -7.0136
    -6.7691  -6.7640  -6.7483  -6.7458  -6.3547  -6.3514  -6.3339  -6.3334
    -6.1632  -6.1623  -6.1490  -6.1459  -5.9615  -5.9571  -5.8933  -5.8868
    -5.4928  -5.4892  -5.4442  -5.4436  -5.3445  -5.3337  -5.2830  -5.2784
    -3.9367  -3.9332  -3.8829  -3.8777  -3.8366  -3.8322  -3.7855  -3.7797
    -3.5645  -3.5484  -3.4740  -3.4702  -3.4600  -3.4553  -3.3975  -3.3870
    -3.0569  -3.0435  -2.9801  -2.9668  -2.9651  -2.9570  -2.9527  -2.9409
    -1.9217  -1.9138  -1.7883  -1.7821  -1.7797  -1.7794  -1.7706  -1.7700
    -1.4612  -1.4581  -1.4427  -1.4424  -1.3264  -1.3205  -1.3028  -1.2978
    -1.2108  -1.2108  -1.2043  -1.2041  -1.1843  -1.1800  -1.0664  -1.0637
    -1.0575  -1.0555  -1.0009  -0.9911  -0.8589  -0.8543  -0.8378  -0.8351
    -0.7730  -0.7678  -0.7407  -0.7382  -0.6882  -0.6877  -0.6476  -0.6417
    -0.4437  -0.4390  -0.4151  -0.4045  -0.3419  -0.3419  -0.3167  -0.3111
    -0.2561  -0.2481  -0.2283  -0.2214  -0.2044  -0.2040  -0.1560  -0.1529
     2.8538   2.8555   2.8649   2.8713   2.9918   2.9927   3.0528   3.0637
     5.0058   5.0137   5.1056   5.1094   5.1538   5.1614   5.1932   5.1965
     6.7573   6.7633   6.7863   6.7869   6.8533   6.8574   6.8587   6.8609
     7.1599   7.1716   7.4759   7.4865   7.7305   7.7451   7.8047   7.8109
     8.2048   8.2174   8.5249   8.5397   8.7834   8.7951

          k =-0.5000 0.0000-0.3380 (125688 PWs)   bands (ev):

   -24.4842 -24.4836 -24.4784 -24.4783 -24.4752 -24.4748 -24.4694 -24.4693
   -21.7847 -21.7844 -21.7788 -21.7786 -21.7778 -21.7775 -21.7722 -21.7721
   -20.0015 -20.0008 -19.9976 -19.9974 -19.9850 -19.9846 -19.9808 -19.9806
   -16.3551 -16.3539 -16.3488 -16.3483 -16.3432 -16.3424 -16.3369 -16.3367
   -15.0599 -15.0599 -15.0571 -15.0570 -14.9802 -14.9800 -14.9777 -14.9776
   -12.5968 -12.5967 -12.5954 -12.5952 -12.4200 -12.4198 -12.4189 -12.4189
   -11.5055 -11.5050 -11.4945 -11.4944 -11.4639 -11.4638 -11.4536 -11.4535
    -8.7464  -8.7463  -8.7443  -8.7440  -8.5358  -8.5353  -8.5323  -8.5315
    -8.4830  -8.4822  -8.4786  -8.4783  -8.2997  -8.2996  -8.2995  -8.2991
    -7.5442  -7.5430  -7.5411  -7.5402  -7.3517  -7.3513  -7.3496  -7.3493
    -7.1968  -7.1965  -7.1927  -7.1926  -7.0313  -7.0307  -7.0297  -7.0287
    -6.7598  -6.7595  -6.7556  -6.7556  -6.3471  -6.3467  -6.3433  -6.3429
    -6.1556  -6.1541  -6.1505  -6.1497  -5.9335  -5.9327  -5.9274  -5.9273
    -5.4611  -5.4606  -5.4591  -5.4587  -5.3183  -5.3181  -5.3106  -5.3104
    -3.8888  -3.8881  -3.8776  -3.8768  -3.8486  -3.8472  -3.8367  -3.8360
    -3.5075  -3.5070  -3.4908  -3.4901  -3.4302  -3.4301  -3.4172  -3.4171
    -3.0152  -3.0132  -3.0026  -3.0026  -2.9735  -2.9731  -2.9626  -2.9621
    -1.8668  -1.8658  -1.8593  -1.8583  -1.7698  -1.7687  -1.7627  -1.7624
    -1.4556  -1.4554  -1.4540  -1.4532  -1.3080  -1.3078  -1.3012  -1.3004
    -1.2096  -1.2085  -1.2009  -1.2005  -1.1233  -1.1222  -1.1140  -1.1136
    -1.0382  -1.0376  -1.0345  -1.0342  -0.8579  -0.8576  -0.8563  -0.8557
    -0.7467  -0.7456  -0.7405  -0.7404  -0.6629  -0.6627  -0.6574  -0.6571
    -0.4091  -0.4080  -0.3994  -0.3991  -0.3693  -0.3679  -0.3578  -0.3577
    -0.2374  -0.2369  -0.2326  -0.2317  -0.1749  -0.1741  -0.1720  -0.1719
     2.8588   2.8591   2.8602   2.8603   3.0228   3.0234   3.0298   3.0303
     5.0517   5.0521   5.0587   5.0596   5.1757   5.1758   5.1823   5.1834
     6.7860   6.7862   6.7879   6.7882   6.8544   6.8554   6.8566   6.8575
     7.2574   7.2576   7.2698   7.2708   7.7648   7.7661   7.7769   7.7779
     8.5103   8.5126   8.5311   8.5332   8.6912   8.6929

          k =-0.5000-0.4437 0.0000 (125688 PWs)   bands (ev):

   -24.4833 -24.4826 -24.4773 -24.4766 -24.4764 -24.4763 -24.4704 -24.4703
   -21.7832 -21.7824 -21.7800 -21.7793 -21.7761 -21.7755 -21.7752 -21.7745
   -19.9993 -19.9986 -19.9939 -19.9937 -19.9888 -19.9882 -19.9830 -19.9828
   -16.3532 -16.3515 -16.3476 -16.3461 -16.3445 -16.3443 -16.3393 -16.3391
   -15.0300 -15.0282 -15.0231 -15.0217 -15.0176 -15.0159 -15.0106 -15.0092
   -12.5172 -12.5170 -12.5126 -12.5124 -12.5028 -12.5027 -12.4984 -12.4979
   -11.5129 -11.5123 -11.5007 -11.5006 -11.4605 -11.4605 -11.4488 -11.4487
    -8.6454  -8.6427  -8.6392  -8.6388  -8.5710  -8.5688  -8.5634  -8.5628
    -8.4784  -8.4778  -8.4718  -8.4715  -8.3922  -8.3916  -8.3847  -8.3845
    -7.5231  -7.5216  -7.5205  -7.5203  -7.4716  -7.4708  -7.4700  -7.4698
    -7.0589  -7.0588  -7.0573  -7.0566  -7.0124  -7.0121  -7.0114  -7.0102
    -6.6433  -6.6432  -6.6370  -6.6366  -6.5829  -6.5828  -6.5798  -6.5792
    -6.0275  -6.0273  -6.0256  -6.0255  -5.9766  -5.9764  -5.9738  -5.9732
    -5.4298  -5.4288  -5.4272  -5.4267  -5.3546  -5.3540  -5.3511  -5.3506
    -3.9182  -3.9179  -3.9072  -3.9070  -3.8075  -3.8069  -3.7975  -3.7975
    -3.5426  -3.5422  -3.5269  -3.5264  -3.4196  -3.4196  -3.4059  -3.4055
    -3.0319  -3.0297  -3.0145  -3.0139  -2.9418  -2.9406  -2.9259  -2.9251
    -1.8723  -1.8710  -1.8631  -1.8621  -1.7537  -1.7526  -1.7468  -1.7460
    -1.4380  -1.4379  -1.4363  -1.4356  -1.3116  -1.3101  -1.3053  -1.3049
    -1.2580  -1.2575  -1.2520  -1.2511  -1.1034  -1.1028  -1.0961  -1.0953
    -0.9649  -0.9640  -0.9592  -0.9592  -0.9134  -0.9123  -0.9039  -0.9034
    -0.7438  -0.7435  -0.7374  -0.7371  -0.6760  -0.6757  -0.6677  -0.6673
    -0.4215  -0.4196  -0.4139  -0.4137  -0.3386  -0.3376  -0.3307  -0.3297
    -0.2562  -0.2548  -0.2508  -0.2501  -0.1913  -0.1899  -0.1823  -0.1819
     2.9132   2.9141   2.9213   2.9215   2.9627   2.9635   2.9727   2.9735
     5.0590   5.0593   5.0662   5.0673   5.1681   5.1685   5.1755   5.1766
     6.8031   6.8036   6.8087   6.8088   6.8522   6.8528   6.8553   6.8562
     7.3753   7.3764   7.3915   7.3922   7.6491   7.6501   7.6595   7.6606
     8.4826   8.4828   8.5015   8.5021   8.8207   8.8241

          k =-0.5000-0.4437-0.3380 (125672 PWs)   bands (ev):

   -24.4833 -24.4826 -24.4773 -24.4765 -24.4765 -24.4763 -24.4704 -24.4703
   -21.7832 -21.7824 -21.7800 -21.7793 -21.7761 -21.7753 -21.7753 -21.7746
   -19.9993 -19.9986 -19.9939 -19.9937 -19.9888 -19.9882 -19.9830 -19.9828
   -16.3527 -16.3501 -16.3489 -16.3464 -16.3440 -16.3436 -16.3401 -16.3397
   -15.0300 -15.0282 -15.0230 -15.0216 -15.0177 -15.0160 -15.0106 -15.0091
   -12.5129 -12.5122 -12.5105 -12.5098 -12.5050 -12.5046 -12.5034 -12.5028
   -11.5126 -11.5121 -11.5005 -11.5004 -11.4608 -11.4607 -11.4490 -11.4489
    -8.6439  -8.6410  -8.6373  -8.6366  -8.5796  -8.5768  -8.5714  -8.5706
    -8.4632  -8.4622  -8.4553  -8.4545  -8.4028  -8.4020  -8.3952  -8.3950
    -7.5098  -7.5082  -7.5000  -7.4995  -7.4916  -7.4902  -7.4829  -7.4827
    -7.0578  -7.0576  -7.0554  -7.0548  -7.0159  -7.0154  -7.0137  -7.0125
    -6.6256  -6.6251  -6.6172  -6.6165  -6.6025  -6.6019  -6.5965  -6.5955
    -6.0077  -6.0069  -6.0049  -6.0034  -6.0008  -5.9988  -5.9976  -5.9966
    -5.4032  -5.4018  -5.3950  -5.3944  -5.3852  -5.3843  -5.3757  -5.3751
    -3.8764  -3.8746  -3.8652  -3.8639  -3.8615  -3.8588  -3.8486  -3.8474
    -3.5084  -3.5071  -3.4908  -3.4899  -3.4392  -3.4388  -3.4258  -3.4255
    -3.0266  -3.0236  -3.0110  -3.0102  -2.9584  -2.9564  -2.9396  -2.9386
    -1.8474  -1.8461  -1.8400  -1.8387  -1.7825  -1.7814  -1.7718  -1.7709
    -1.4449  -1.4443  -1.4421  -1.4413  -1.3086  -1.3072  -1.3009  -1.2996
    -1.1840  -1.1826  -1.1778  -1.1764  -1.1706  -1.1696  -1.1601  -1.1597
    -0.9597  -0.9589  -0.9535  -0.9531  -0.9296  -0.9288  -0.9158  -0.9155
    -0.7129  -0.7124  -0.7070  -0.7068  -0.7031  -0.7027  -0.6943  -0.6936
    -0.4076  -0.4051  -0.3971  -0.3956  -0.3507  -0.3494  -0.3430  -0.3417
    -0.2379  -0.2364  -0.2316  -0.2311  -0.2079  -0.2066  -0.1989  -0.1986
     2.9140   2.9150   2.9228   2.9229   2.9607   2.9617   2.9713   2.9721
     5.0707   5.0710   5.0808   5.0820   5.1532   5.1537   5.1638   5.1650
     6.8269   6.8291   6.8324   6.8331   6.8338   6.8351   6.8375   6.8395
     7.4125   7.4143   7.4328   7.4340   7.5540   7.5562   7.5631   7.5633
     8.5869   8.5888   8.6009   8.6036   8.7367   8.7382

     highest occupied, lowest unoccupied level (ev):    -0.0812    2.8538

!    total energy              =   -2048.07831884 Ry
     Harris-Foulkes estimate   =   -2048.07831884 Ry
     estimated scf accuracy    <          3.8E-09 Ry

     total all-electron energy =     -7777.528528 Ry

     The total energy is the sum of the following terms:

     one-electron contribution =   -1172.75875975 Ry
     hartree contribution      =     732.66697371 Ry
     xc contribution           =    -412.81522709 Ry
     ewald contribution        =    -617.73678636 Ry
     Dispersion Correction     =      -0.43336972 Ry
     one-center paw contrib.   =    -577.00114964 Ry

     convergence has been achieved in  16 iterations

     Forces acting on atoms (cartesian axes, Ry/au):

     atom    1 type  2   force =     0.00019275    0.00018145    0.00023099
     atom    2 type  2   force =    -0.00015000    0.00004428    0.00010236
     atom    3 type  2   force =    -0.00020858    0.00001254   -0.00003987
     atom    4 type  2   force =     0.00008236   -0.00030721   -0.00023756
     atom    5 type  2   force =    -0.00019275   -0.00018145   -0.00023099
     atom    6 type  2   force =     0.00015000   -0.00004428   -0.00010236
     atom    7 type  2   force =     0.00020858   -0.00001254    0.00003987
     atom    8 type  2   force =    -0.00008236    0.00030721    0.00023756
     atom    9 type  2   force =    -0.00043324   -0.00091962   -0.00003256
     atom   10 type  2   force =     0.00040413    0.00082211    0.00000233
     atom   11 type  2   force =     0.00051013   -0.00105935   -0.00005570
     atom   12 type  2   force =    -0.00042143    0.00061748   -0.00020687
     atom   13 type  2   force =     0.00043324    0.00091962    0.00003256
     atom   14 type  2   force =    -0.00040413   -0.00082211   -0.00000233
     atom   15 type  2   force =    -0.00051013    0.00105935    0.00005570
     atom   16 type  2   force =     0.00042143   -0.00061748    0.00020687
     atom   17 type  2   force =    -0.00017004    0.00042660   -0.00113339
     atom   18 type  2   force =     0.00022048   -0.00086444   -0.00102717
     atom   19 type  2   force =     0.00000019    0.00061250    0.00069100
     atom   20 type  2   force =    -0.00012476   -0.00052040    0.00085044
     atom   21 type  2   force =     0.00017004   -0.00042660    0.00113339
     atom   22 type  2   force =    -0.00022048    0.00086444    0.00102717
     atom   23 type  2   force =    -0.00000019   -0.00061250   -0.00069100
     atom   24 type  2   force =     0.00012476    0.00052040   -0.00085044
     atom   25 type  3   force =     0.00002286    0.00008280    0.00037563
     atom   26 type  3   force =    -0.00047105    0.00019507    0.00007955
     atom   27 type  3   force =    -0.00002207    0.00049208    0.00007062
     atom   28 type  3   force =     0.00031380    0.00021741   -0.00011862
     atom   29 type  3   force =    -0.00002286   -0.00008280   -0.00037563
     atom   30 type  3   force =     0.00047105   -0.00019507   -0.00007955
     atom   31 type  3   force =     0.00002207   -0.00049208   -0.00007062
     atom   32 type  3   force =    -0.00031380   -0.00021741    0.00011862
     atom   33 type  2   force =     0.00064740    0.00024886    0.00047668
     atom   34 type  2   force =    -0.00071090   -0.00036718    0.00053877
     atom   35 type  2   force =    -0.00102602    0.00031554   -0.00064860
     atom   36 type  2   force =     0.00040046   -0.00059117   -0.00057580
     atom   37 type  2   force =    -0.00064740   -0.00024886   -0.00047668
     atom   38 type  2   force =     0.00071090    0.00036718   -0.00053877
     atom   39 type  2   force =     0.00102602   -0.00031554    0.00064860
     atom   40 type  2   force =    -0.00040046    0.00059117    0.00057580
     atom   41 type  4   force =     0.00019595    0.00018982    0.00043046
     atom   42 type  4   force =     0.00013442    0.00006927    0.00040263
     atom   43 type  4   force =    -0.00008977    0.00006626   -0.00013118
     atom   44 type  4   force =     0.00013647    0.00014058   -0.00031200
     atom   45 type  4   force =    -0.00019595   -0.00018982   -0.00043046
     atom   46 type  4   force =    -0.00013442   -0.00006927   -0.00040263
     atom   47 type  4   force =     0.00008977   -0.00006626    0.00013118
     atom   48 type  4   force =    -0.00013647   -0.00014058    0.00031200
     atom   49 type  4   force =    -0.00027551    0.00030055   -0.00010103
     atom   50 type  4   force =     0.00023058   -0.00022442   -0.00029015
     atom   51 type  4   force =     0.00073377   -0.00012255    0.00001955
     atom   52 type  4   force =    -0.00017722   -0.00030113    0.00030431
     atom   53 type  4   force =     0.00027551   -0.00030055    0.00010103
     atom   54 type  4   force =    -0.00023058    0.00022442    0.00029015
     atom   55 type  4   force =    -0.00073377    0.00012255   -0.00001955
     atom   56 type  4   force =     0.00017722    0.00030113   -0.00030431
     atom   57 type  1   force =     0.00024812   -0.00058095    0.00002794
     atom   58 type  1   force =     0.00006498    0.00041042    0.00025401
     atom   59 type  1   force =    -0.00005933   -0.00035078    0.00009312
     atom   60 type  1   force =     0.00012721    0.00051627   -0.00005412
     atom   61 type  1   force =    -0.00024812    0.00058095   -0.00002794
     atom   62 type  1   force =    -0.00006498   -0.00041042   -0.00025401
     atom   63 type  1   force =     0.00005933    0.00035078   -0.00009312
     atom   64 type  1   force =    -0.00012721   -0.00051627    0.00005412
     atom   65 type  1   force =    -0.00012486    0.00002163   -0.00031940
     atom   66 type  1   force =     0.00039993   -0.00013442   -0.00026089
     atom   67 type  1   force =    -0.00033529    0.00000368    0.00039104
     atom   68 type  1   force =    -0.00013128    0.00018072    0.00027751
     atom   69 type  1   force =     0.00012486   -0.00002163    0.00031940
     atom   70 type  1   force =    -0.00039993    0.00013442    0.00026089
     atom   71 type  1   force =     0.00033529   -0.00000368   -0.00039104
     atom   72 type  1   force =     0.00013128   -0.00018072   -0.00027751
     atom   73 type  1   force =     0.00024434   -0.00040143   -0.00021457
     atom   74 type  1   force =    -0.00025670    0.00022247    0.00011117
     atom   75 type  1   force =    -0.00010915   -0.00036331    0.00001424
     atom   76 type  1   force =     0.00024240    0.00017843    0.00005951
     atom   77 type  1   force =    -0.00024434    0.00040143    0.00021457
     atom   78 type  1   force =     0.00025670   -0.00022247   -0.00011117
     atom   79 type  1   force =     0.00010915    0.00036331   -0.00001424
     atom   80 type  1   force =    -0.00024240   -0.00017843   -0.00005951
     atom   81 type  3   force =     0.00018575   -0.00010949    0.00036449
     atom   82 type  3   force =    -0.00000251   -0.00012015    0.00007636
     atom   83 type  3   force =    -0.00002067    0.00010190   -0.00027198
     atom   84 type  3   force =    -0.00008577   -0.00004402    0.00006223
     atom   85 type  3   force =    -0.00018575    0.00010949   -0.00036449
     atom   86 type  3   force =     0.00000251    0.00012015   -0.00007636
     atom   87 type  3   force =     0.00002067   -0.00010190    0.00027198
     atom   88 type  3   force =     0.00008577    0.00004402   -0.00006223
     atom   89 type  3   force =     0.00014719    0.00040299   -0.00017510
     atom   90 type  3   force =    -0.00002917    0.00001241   -0.00009168
     atom   91 type  3   force =     0.00000901    0.00011566   -0.00006325
     atom   92 type  3   force =    -0.00013892   -0.00007538    0.00016153
     atom   93 type  3   force =    -0.00014719   -0.00040299    0.00017510
     atom   94 type  3   force =     0.00002917   -0.00001241    0.00009168
     atom   95 type  3   force =    -0.00000901   -0.00011566    0.00006325
     atom   96 type  3   force =     0.00013892    0.00007538   -0.00016153
     atom   97 type  3   force =    -0.00019148    0.00016872    0.00006733
     atom   98 type  3   force =    -0.00009379    0.00014081   -0.00013191
     atom   99 type  3   force =    -0.00005409   -0.00003081    0.00000296
     atom  100 type  3   force =    -0.00001402    0.00016127    0.00009778
     atom  101 type  3   force =     0.00019148   -0.00016872   -0.00006733
     atom  102 type  3   force =     0.00009379   -0.00014081    0.00013191
     atom  103 type  3   force =     0.00005409    0.00003081   -0.00000296
     atom  104 type  3   force =     0.00001402   -0.00016127   -0.00009778

     Total force =     0.006203     Total SCF correction =     0.000136


     Computing stress (Cartesian axis) and pressure

          total   stress  (Ry/bohr**3)                   (kbar)     P=    1.68
   0.00001427   0.00000106   0.00000136          2.10      0.16      0.20
   0.00000106  -0.00000219   0.00000061          0.16     -0.32      0.09
   0.00000136   0.00000061   0.00002227          0.20      0.09      3.28


     Writing output data file scf.save
 
     init_run     :     49.32s CPU     52.13s WALL (       1 calls)
     electrons    :   1885.92s CPU   1983.27s WALL (       1 calls)
     forces       :     22.33s CPU     22.58s WALL (       1 calls)
     stress       :    197.75s CPU    198.21s WALL (       1 calls)

     Called by init_run:
     wfcinit      :     42.76s CPU     45.42s WALL (       1 calls)
     potinit      :      2.31s CPU      2.34s WALL (       1 calls)

     Called by electrons:
     c_bands      :   1696.08s CPU   1779.64s WALL (      16 calls)
     sum_band     :    176.06s CPU    188.17s WALL (      16 calls)
     v_of_rho     :      2.23s CPU      2.48s WALL (      17 calls)
     newd         :      4.63s CPU      6.06s WALL (      17 calls)
     PAW_pot      :      6.27s CPU      6.28s WALL (      17 calls)
     mix_rho      :      0.66s CPU      0.69s WALL (      16 calls)

     Called by c_bands:
     init_us_2    :     11.68s CPU     11.74s WALL (     280 calls)
     cegterg      :   1651.21s CPU   1734.70s WALL (     128 calls)

     Called by sum_band:
     sum_band:bec :      0.13s CPU      0.13s WALL (     128 calls)
     addusdens    :      5.14s CPU      6.54s WALL (      16 calls)

     Called by *egterg:
     h_psi        :    908.93s CPU    975.54s WALL (     705 calls)
     s_psi        :    178.72s CPU    178.75s WALL (     705 calls)
     g_psi        :      5.64s CPU      5.64s WALL (     569 calls)
     cdiaghg      :    122.38s CPU    122.45s WALL (     697 calls)

     Called by h_psi:
     h_psi:pot    :    900.59s CPU    967.08s WALL (     705 calls)
     h_psi:calbec :    170.09s CPU    170.47s WALL (     705 calls)
     vloc_psi     :    551.18s CPU    617.26s WALL (     705 calls)
     add_vuspsi   :    179.32s CPU    179.35s WALL (     705 calls)

     General routines
     calbec       :    250.46s CPU    251.00s WALL (     873 calls)
     fft          :      2.30s CPU      2.69s WALL (     245 calls)
     fftw         :    591.04s CPU    666.20s WALL (  194480 calls)
 
     Parallel routines
     fft_scatter  :    110.66s CPU    179.57s WALL (  194725 calls)
 
     PWSCF        : 36m 8.92s CPU    39m 4.82s WALL

 
   This run was terminated on:   5:30:50  21Dec2017            

=------------------------------------------------------------------------------=
   JOB DONE.
=------------------------------------------------------------------------------=
