
     Program PWSCF v.6.1 (svn rev. 13369) starts on 12Nov2017 at 10: 2:32 

     This program is part of the open-source Quantum ESPRESSO suite
     for quantum simulation of materials; please cite
         "P. Giannozzi et al., J. Phys.:Condens. Matter 21 395502 (2009);
          URL http://www.quantum-espresso.org", 
     in publications or presentations arising from this work. More details at
     http://www.quantum-espresso.org/quote

     Parallel version (MPI), running on     8 processors
     R & G space division:  proc/nbgrp/npool/nimage =       8
     Waiting for input...
     Reading input from standard input

     Current dimensions of program PWSCF are:
     Max number of different atomic species (ntypx) = 10
     Max number of k-points (npk) =  40000
     Max angular momentum in pseudopotentials (lmaxx) =  3
               file C.pbe-n-kjpaw_psl.0.1.UPF: wavefunction(s)  2P renormalized
               file N.pbe-n-kjpaw_psl.0.1.UPF: wavefunction(s)  2P renormalized
               file H.pbe-kjpaw_psl.0.1.UPF: wavefunction(s)  1S renormalized
               file O.pbe-n-kjpaw_psl.0.1.UPF: wavefunction(s)  2P renormalized

     -------------------------------------
     Parameters for Dispersion Correction:
     -------------------------------------
       atom      VdW radius       C_6     

        C          2.744         60.710
        N          2.640         42.670
        H          1.892          4.857
        O          2.536         24.284

     Subspace diagonalization in iterative solution of the eigenvalue problem:
     a serial algorithm will be used

 
     Parallelization info
     --------------------
     sticks:   dense  smooth     PW     G-vecs:    dense   smooth      PW
     Min        2192    2192    580               127164   127164   17279
     Max        2193    2193    581               127166   127166   17280
     Sum       17539   17539   4643              1017315  1017315  138235
 


     bravais-lattice index     =            0
     lattice parameter (alat)  =      12.5421  a.u.
     unit-cell volume          =    7530.5662 (a.u.)^3
     number of atoms/cell      =          104
     number of atomic types    =            4
     number of electrons       =       480.00
     number of Kohn-Sham states=          288
     kinetic-energy cutoff     =     100.0000  Ry
     charge density cutoff     =     400.0000  Ry
     convergence threshold     =      1.0E-08
     mixing beta               =       0.5000
     number of iterations used =            8  plain     mixing
     Exchange-correlation      =  SLA  PW   PBX  PBC ( 1  4  3  4 0 0)

     celldm(1)=  12.542112  celldm(2)=   0.000000  celldm(3)=   0.000000
     celldm(4)=   0.000000  celldm(5)=   0.000000  celldm(6)=   0.000000

     crystal axes: (cart. coord. in units of alat)
               a(1) = (   1.000000   0.000000   0.000000 )  
               a(2) = (   0.000000   3.506856   0.000000 )  
               a(3) = (  -0.466724   0.000000   1.088423 )  

     reciprocal axes: (cart. coord. in units 2 pi/alat)
               b(1) = (  1.000000  0.000000  0.428807 )  
               b(2) = (  0.000000  0.285156  0.000000 )  
               b(3) = (  0.000000  0.000000  0.918760 )  


     PseudoPot. # 1 for  C read from file:
     /scratch/ahofstet/pseudo/C.pbe-n-kjpaw_psl.0.1.UPF
     MD5 check sum: 430fe95172b1e11ef3f8ed03bac87931
     Pseudo is Projector augmented-wave + core cor, Zval =  4.0
     Generated using "atomic" code by A. Dal Corso  v.5.0.99 svn rev. 10869
     Shape of augmentation charge: BESSEL
     Using radial grid of 1073 points,  4 beta functions with: 
                l(1) =   0
                l(2) =   0
                l(3) =   1
                l(4) =   1
     Q(r) pseudized with 0 coefficients 


     PseudoPot. # 2 for  N read from file:
     /scratch/ahofstet/pseudo/N.pbe-n-kjpaw_psl.0.1.UPF
     MD5 check sum: f73187c8b701007e77325f868c9291d7
     Pseudo is Projector augmented-wave + core cor, Zval =  5.0
     Generated using "atomic" code by A. Dal Corso  v.5.0.99 svn rev. 10869
     Shape of augmentation charge: PSQ
     Using radial grid of 1085 points,  4 beta functions with: 
                l(1) =   0
                l(2) =   0
                l(3) =   1
                l(4) =   1
     Q(r) pseudized with 0 coefficients 


     PseudoPot. # 3 for  H read from file:
     /scratch/ahofstet/pseudo/H.pbe-kjpaw_psl.0.1.UPF
     MD5 check sum: 94e484f906d9e9773b2f6e52662335b2
     Pseudo is Projector augmented-wave, Zval =  1.0
     Generated using "atomic" code by A. Dal Corso  v.5.0.99 svn rev. 10869
     Shape of augmentation charge: PSQ
     Using radial grid of  929 points,  2 beta functions with: 
                l(1) =   0
                l(2) =   0
     Q(r) pseudized with 0 coefficients 


     PseudoPot. # 4 for  O read from file:
     /scratch/ahofstet/pseudo/O.pbe-n-kjpaw_psl.0.1.UPF
     MD5 check sum: 3f94a2996a3169367d6eb21d9b593f20
     Pseudo is Projector augmented-wave + core cor, Zval =  6.0
     Generated using "atomic" code by A. Dal Corso  v.5.0.99 svn rev. 10869
     Shape of augmentation charge: BESSEL
     Using radial grid of 1095 points,  4 beta functions with: 
                l(1) =   0
                l(2) =   0
                l(3) =   1
                l(4) =   1
     Q(r) pseudized with 0 coefficients 


     atomic species   valence    mass     pseudopotential
        C              4.00    12.01070      C( 1.00)
        N              5.00    14.00670      N( 1.00)
        H              1.00     1.00794      H( 1.00)
        O              6.00    15.99940      O( 1.00)

      2 Sym. Ops., with inversion, found



   Cartesian axes

     site n.     atom                  positions (alat units)
         1           C   tau(   1) = (   0.3324338   1.3766365   0.4178736  )
         2           C   tau(   2) = (   0.4341953   3.1300363   0.1263167  )
         3           C   tau(   3) = (   0.2008426   2.1302190   0.6705493  )
         4           C   tau(   4) = (   0.0990811   0.3768192   0.9621063  )
         5           N   tau(   5) = (   0.4394057   1.4349668   0.6038748  )
         6           N   tau(   6) = (  -0.1394965   3.1883866   1.0287397  )
         7           N   tau(   7) = (   0.0938707   2.0718888   0.4845482  )
         8           N   tau(   8) = (   0.6727729   0.3184689   0.0596833  )
         9           O   tau(   9) = (   0.4165093   1.6090688   0.6609073  )
        10           O   tau(  10) = (  -0.1165746   3.3624883   0.9717147  )
        11           O   tau(  11) = (   0.1167671   1.8977867   0.4275157  )
        12           O   tau(  12) = (   0.6498510   0.1443672   0.1167083  )
        13           O   tau(  13) = (   0.5336575   1.3002953   0.6896235  )
        14           O   tau(  14) = (  -0.2337694   3.0537341   0.9429889  )
        15           O   tau(  15) = (  -0.0003811   2.2065602   0.3987994  )
        16           O   tau(  16) = (   0.7670458   0.4531214   0.1454340  )
        17           C   tau(  17) = (   0.3894916   1.1941065   0.2787557  )
        18           C   tau(  18) = (   0.3771437   2.9475065   0.2654232  )
        19           C   tau(  19) = (   0.1437848   2.3127490   0.8096672  )
        20           C   tau(  20) = (   0.1561328   0.5593490   0.8229997  )
        21           N   tau(  21) = (   0.5719785   1.0687187   0.3059272  )
        22           N   tau(  22) = (   0.1946549   2.8221208   0.2382634  )
        23           N   tau(  23) = (  -0.0387021   2.4381368   0.7824958  )
        24           N   tau(  24) = (   0.3386216   0.6847347   0.8501596  )
        25           O   tau(  25) = (   0.7312977   1.1635309   0.2889141  )
        26           O   tau(  26) = (   0.0353422   2.9169348   0.2552787  )
        27           O   tau(  27) = (  -0.1980213   2.3433246   0.7995089  )
        28           O   tau(  28) = (   0.4979343   0.5899207   0.8331442  )
        29           O   tau(  29) = (   0.5534676   0.8899587   0.3422400  )
        30           O   tau(  30) = (   0.2131644   2.6433542   0.2019598  )
        31           O   tau(  31) = (  -0.0201912   2.6168968   0.7461829  )
        32           O   tau(  32) = (   0.3201121   0.8635013   0.8864632  )
        33           C   tau(  33) = (   0.3406053   1.3320306   0.0922399  )
        34           C   tau(  34) = (   0.4260256   3.0854258   0.4519411  )
        35           C   tau(  35) = (   0.1926712   2.1748249   0.9961831  )
        36           C   tau(  36) = (   0.1072508   0.4214297   0.6364819  )
        37           N   tau(  37) = (  -0.0085627   1.3603965   0.9930667  )
        38           N   tau(  38) = (   0.3084784   3.1137953   0.6395459  )
        39           N   tau(  39) = (   0.5418391   2.1464590   0.0953563  )
        40           N   tau(  40) = (   0.2247980   0.3930602   0.4488770  )
        41           O   tau(  41) = (   0.1381807   1.2523855   0.9614331  )
        42           O   tau(  42) = (   0.1617332   3.0057802   0.6711906  )
        43           O   tau(  43) = (   0.3950957   2.2544700   0.1269898  )
        44           O   tau(  44) = (   0.3715432   0.5010753   0.4172324  )
        45           O   tau(  45) = (  -0.0729189   1.4934820   0.8810292  )
        46           O   tau(  46) = (   0.3728347   3.2468815   0.7515739  )
        47           O   tau(  47) = (   0.6061954   2.0133735   0.2073938  )
        48           O   tau(  48) = (   0.1604417   0.2599740   0.3368490  )
        49           C   tau(  49) = (   0.1166391   1.2563163   0.0917525  )
        50           C   tau(  50) = (   0.6499968   3.0097298   0.4524253  )
        51           C   tau(  51) = (   0.4166374   2.2505392   0.9966705  )
        52           C   tau(  52) = (  -0.1167203   0.4971257   0.6359976  )
        53           H   tau(  53) = (  -0.4333282   1.2123659   1.0454490  )
        54           H   tau(  54) = (   0.7332431   2.9657778   0.5871491  )
        55           H   tau(  55) = (   0.9666046   2.2944896   0.0429739  )
        56           H   tau(  56) = (  -0.1999666   0.5410777   0.5012739  )
        57           C   tau(  57) = (   0.1613009   1.1239556   0.2809956  )
        58           C   tau(  58) = (   0.6053389   2.8773611   0.2631837  )
        59           C   tau(  59) = (   0.3719755   2.3828999   0.8074274  )
        60           C   tau(  60) = (  -0.0720625   0.6294944   0.8252393  )
        61           N   tau(  61) = (   0.1027246   0.9128212   0.3226170  )
        62           N   tau(  62) = (   0.6639203   2.6662306   0.2215813  )
        63           N   tau(  63) = (   0.4305518   2.5940343   0.7658060  )
        64           N   tau(  64) = (  -0.1306438   0.8406249   0.8668417  )
        65           O   tau(  65) = (   0.0351696   0.8072122   0.1877336  )
        66           O   tau(  66) = (   0.7314718   2.5606393   0.3564772  )
        67           O   tau(  67) = (   0.4981068   2.6996433   0.9006894  )
        68           O   tau(  68) = (  -0.1981953   0.9462162   0.7319458  )
        69           O   tau(  69) = (   0.1334460   0.8605867   0.4981750  )
        70           O   tau(  70) = (   0.6332015   2.6139795   0.0460270  )
        71           O   tau(  71) = (   0.3998304   2.6462688   0.5902480  )
        72           O   tau(  72) = (  -0.0999251   0.8928760   1.0423960  )
        73           C   tau(  73) = (   0.1081228   1.3022479   0.4263098  )
        74           C   tau(  74) = (   0.6585096   3.0556625   0.1178692  )
        75           C   tau(  75) = (   0.4251537   2.2046076   0.6621132  )
        76           C   tau(  76) = (  -0.1252332   0.4511930   0.9705538  )
        77           H   tau(  77) = (   0.0177549   1.2930418   0.5631147  )
        78           H   tau(  78) = (   0.7488738   3.0464625  -0.0189369  )
        79           H   tau(  79) = (   0.5155216   2.2138137   0.5253082  )
        80           H   tau(  80) = (  -0.2155973   0.4603930   1.1073598  )
        81           C   tau(  81) = (   0.0617426   1.4333008   0.2378750  )
        82           C   tau(  82) = (   0.7048859   3.1867184   0.3063045  )
        83           C   tau(  83) = (   0.4715338   2.0735547   0.8505479  )
        84           C   tau(  84) = (  -0.1716094   0.3201371   0.7821185  )
        85           N   tau(  85) = (   0.8760635   1.5539868   0.2133346  )
        86           N   tau(  86) = (  -0.1094340   3.3074078   0.3308595  )
        87           N   tau(  87) = (  -0.3427870   1.9528687   0.8750883  )
        88           N   tau(  88) = (   0.6427105   0.1994477   0.7575635  )
        89           O   tau(  89) = (   0.7765166   1.5892604   0.3650061  )
        90           O   tau(  90) = (  -0.0098693   3.3426695   0.1791964  )
        91           O   tau(  91) = (  -0.2432402   1.9175952   0.7234169  )
        92           O   tau(  92) = (   0.5431457   0.1641860   0.9092266  )
        93           O   tau(  93) = (   0.8327263   1.6021871   0.0394478  )
        94           O   tau(  94) = (  -0.0661159   3.3556173   0.5047465  )
        95           O   tau(  95) = (  -0.2994498   1.9046684   1.0489752  )
        96           O   tau(  96) = (   0.5993924   0.1512382   0.5836765  )
        97           C   tau(  97) = (   0.2848137   1.5133271   0.2328079  )
        98           C   tau(  98) = (   0.4818083   3.2667271   0.3113812  )
        99           C   tau(  99) = (   0.2484628   1.9935284   0.8556151  )
       100           C   tau( 100) = (   0.0514681   0.2401284   0.7770417  )
       101           H   tau( 101) = (   0.3324136   1.6689607   0.2121497  )
       102           H   tau( 102) = (   0.4341917   3.4223572   0.3320436  )
       103           H   tau( 103) = (   0.2008629   1.8378948   0.8762732  )
       104           H   tau( 104) = (   0.0990847   0.0844983   0.7563794  )

     number of k points=     5
                       cart. coord. in units 2pi/alat
        k(    1) = (   0.0000000   0.0000000   0.0000000), wk =   0.2222222
        k(    2) = (   0.0000000   0.0000000   0.3062535), wk =   0.4444444
        k(    3) = (   0.3333333   0.0000000   0.1429357), wk =   0.4444444
        k(    4) = (   0.3333333   0.0000000   0.4491892), wk =   0.4444444
        k(    5) = (   0.3333333   0.0000000  -0.1633178), wk =   0.4444444

     Dense  grid:  1017315 G-vectors     FFT dimensions: (  80, 288,  96)

     Estimated max dynamical RAM per process >    1281.90MB

     Estimated total allocated dynamical RAM >   10255.18MB

     Check: negative/imaginary core charge=   -0.000003    0.000000

     Initial potential from superposition of free atoms

     starting charge  479.99835, renormalised to  480.00000
     Starting wfc are  380 randomized atomic wfcs
     Checking if some PAW data can be deallocated... 

     total cpu time spent up to now is       63.9 secs

     per-process dynamical memory:   742.0 Mb

     Self-consistent Calculation

     iteration #  1     ecut=   100.00 Ry     beta=0.50
     Davidson diagonalization with overlap
     ethr =  1.00E-02,  avg # of iterations =  3.0

     total cpu time spent up to now is      246.7 secs

     total energy              =   -2826.17982990 Ry
     Harris-Foulkes estimate   =   -2832.51900672 Ry
     estimated scf accuracy    <      11.08671861 Ry

     iteration #  2     ecut=   100.00 Ry     beta=0.50
     Davidson diagonalization with overlap
     ethr =  2.31E-03,  avg # of iterations =  3.6

     total cpu time spent up to now is      402.4 secs

     total energy              =   -2828.50592174 Ry
     Harris-Foulkes estimate   =   -2830.61387693 Ry
     estimated scf accuracy    <       4.77910870 Ry

     iteration #  3     ecut=   100.00 Ry     beta=0.50
     Davidson diagonalization with overlap
     ethr =  9.96E-04,  avg # of iterations =  3.2

     total cpu time spent up to now is      515.3 secs

     total energy              =   -2829.23832893 Ry
     Harris-Foulkes estimate   =   -2829.38919033 Ry
     estimated scf accuracy    <       0.37208789 Ry

     iteration #  4     ecut=   100.00 Ry     beta=0.50
     Davidson diagonalization with overlap
     ethr =  7.75E-05,  avg # of iterations =  7.6

     total cpu time spent up to now is      782.2 secs

     total energy              =   -2829.39768101 Ry
     Harris-Foulkes estimate   =   -2829.56257873 Ry
     estimated scf accuracy    <       0.49853076 Ry

     iteration #  5     ecut=   100.00 Ry     beta=0.50
     Davidson diagonalization with overlap
     ethr =  7.75E-05,  avg # of iterations =  2.4

     total cpu time spent up to now is      892.6 secs

     total energy              =   -2829.45233853 Ry
     Harris-Foulkes estimate   =   -2829.48444567 Ry
     estimated scf accuracy    <       0.09712126 Ry

     iteration #  6     ecut=   100.00 Ry     beta=0.50
     Davidson diagonalization with overlap
     ethr =  2.02E-05,  avg # of iterations = 11.0

     total cpu time spent up to now is     1038.4 secs

     total energy              =   -2829.46652589 Ry
     Harris-Foulkes estimate   =   -2829.47169516 Ry
     estimated scf accuracy    <       0.01248273 Ry

     iteration #  7     ecut=   100.00 Ry     beta=0.50
     Davidson diagonalization with overlap
     ethr =  2.60E-06,  avg # of iterations =  8.0

     total cpu time spent up to now is     1270.8 secs

     total energy              =   -2829.47150981 Ry
     Harris-Foulkes estimate   =   -2829.47323299 Ry
     estimated scf accuracy    <       0.00625591 Ry

     iteration #  8     ecut=   100.00 Ry     beta=0.50
     Davidson diagonalization with overlap
     ethr =  1.30E-06,  avg # of iterations =  2.0

     total cpu time spent up to now is     1373.4 secs

     total energy              =   -2829.47154507 Ry
     Harris-Foulkes estimate   =   -2829.47227294 Ry
     estimated scf accuracy    <       0.00162708 Ry

     iteration #  9     ecut=   100.00 Ry     beta=0.50
     Davidson diagonalization with overlap
     ethr =  3.39E-07,  avg # of iterations =  3.0

     total cpu time spent up to now is     1527.5 secs

     total energy              =   -2829.47205339 Ry
     Harris-Foulkes estimate   =   -2829.47212730 Ry
     estimated scf accuracy    <       0.00031131 Ry

     iteration # 10     ecut=   100.00 Ry     beta=0.50
     Davidson diagonalization with overlap
     ethr =  6.49E-08,  avg # of iterations =  2.0

     total cpu time spent up to now is     1633.0 secs

     total energy              =   -2829.47205618 Ry
     Harris-Foulkes estimate   =   -2829.47209961 Ry
     estimated scf accuracy    <       0.00014494 Ry

     iteration # 11     ecut=   100.00 Ry     beta=0.50
     Davidson diagonalization with overlap
     ethr =  3.02E-08,  avg # of iterations =  2.6

     total cpu time spent up to now is     1739.2 secs

     total energy              =   -2829.47206120 Ry
     Harris-Foulkes estimate   =   -2829.47207243 Ry
     estimated scf accuracy    <       0.00003364 Ry

     iteration # 12     ecut=   100.00 Ry     beta=0.50
     Davidson diagonalization with overlap
     ethr =  7.01E-09,  avg # of iterations =  3.6

     total cpu time spent up to now is     1892.3 secs

     total energy              =   -2829.47207012 Ry
     Harris-Foulkes estimate   =   -2829.47207138 Ry
     estimated scf accuracy    <       0.00000335 Ry

     iteration # 13     ecut=   100.00 Ry     beta=0.50
     Davidson diagonalization with overlap
     ethr =  6.97E-10,  avg # of iterations =  2.4

     total cpu time spent up to now is     2019.1 secs

     total energy              =   -2829.47207069 Ry
     Harris-Foulkes estimate   =   -2829.47207105 Ry
     estimated scf accuracy    <       0.00000107 Ry

     iteration # 14     ecut=   100.00 Ry     beta=0.50
     Davidson diagonalization with overlap
     ethr =  2.22E-10,  avg # of iterations =  2.2

     total cpu time spent up to now is     2135.6 secs

     total energy              =   -2829.47207091 Ry
     Harris-Foulkes estimate   =   -2829.47207098 Ry
     estimated scf accuracy    <       0.00000023 Ry

     iteration # 15     ecut=   100.00 Ry     beta=0.50
     Davidson diagonalization with overlap
     ethr =  4.81E-11,  avg # of iterations =  3.0

     total cpu time spent up to now is     2259.4 secs

     total energy              =   -2829.47207094 Ry
     Harris-Foulkes estimate   =   -2829.47207097 Ry
     estimated scf accuracy    <       0.00000006 Ry

     iteration # 16     ecut=   100.00 Ry     beta=0.50
     Davidson diagonalization with overlap
     ethr =  1.33E-11,  avg # of iterations =  3.0

     total cpu time spent up to now is     2381.2 secs

     total energy              =   -2829.47207096 Ry
     Harris-Foulkes estimate   =   -2829.47207097 Ry
     estimated scf accuracy    <       0.00000003 Ry

     iteration # 17     ecut=   100.00 Ry     beta=0.50
     Davidson diagonalization with overlap
     ethr =  6.02E-12,  avg # of iterations =  2.0

     total cpu time spent up to now is     2488.6 secs

     End of self-consistent calculation

          k = 0.0000 0.0000 0.0000 (127113 PWs)   bands (ev):

   -23.5548 -23.5544 -23.5267 -23.5263 -23.3456 -23.3456 -23.3180 -23.3170
   -23.2914 -23.2888 -23.2781 -23.2763 -23.2309 -23.2307 -23.2242 -23.2240
   -23.0894 -23.0892 -23.0790 -23.0789 -19.1610 -19.1609 -19.1609 -19.1608
   -19.0094 -19.0094 -18.9108 -18.9106 -18.8934 -18.8921 -18.8894 -18.8894
   -18.8792 -18.8775 -18.8775 -18.8773 -18.7226 -18.7225 -18.6902 -18.6901
   -18.0157 -18.0137 -18.0030 -18.0009 -13.2737 -13.2709 -13.2709 -13.2690
   -12.9757 -12.9748 -12.9735 -12.9576 -12.9494 -12.9451 -12.8769 -12.8546
   -11.4739 -11.4737 -11.4732 -11.4731 -10.9343 -10.9250 -10.9054 -10.9000
   -10.1546 -10.0989 -10.0934 -10.0403  -9.9155  -9.9154  -9.9126  -9.9063
    -8.9545  -8.9513  -8.9366  -8.9313  -6.9059  -6.8568  -6.7969  -6.7886
    -6.7842  -6.7073  -6.7009  -6.6989  -6.6622  -6.6520  -6.6358  -6.5935
    -6.5165  -6.5090  -6.4515  -6.4470  -6.2364  -6.1569  -6.1453  -6.1126
    -6.0669  -6.0546  -5.9676  -5.9630  -5.9084  -5.8972  -5.8803  -5.8320
    -5.7659  -5.7601  -5.7120  -5.6877  -5.5927  -5.5845  -5.4969  -5.4843
    -5.4724  -5.4699  -5.3746  -5.3706  -5.3478  -5.3458  -5.3420  -5.2715
    -5.2561  -5.2505  -5.1943  -5.1470  -5.1424  -5.1186  -5.1135  -5.0898
    -5.0673  -5.0540  -5.0300  -5.0178  -4.9810  -4.9384  -4.8846  -4.8727
    -4.8193  -4.7938  -4.7798  -4.7690  -4.7599  -4.7519  -4.7293  -4.7283
    -4.6836  -4.6612  -4.6244  -4.5843  -4.1766  -4.1280  -4.1102  -4.0463
    -3.9633  -3.9578  -3.9436  -3.9407  -2.1504  -2.1367  -2.1206  -2.1026
    -1.1870  -1.1798  -1.1596  -1.1460  -1.1241  -1.1002  -1.0930  -1.0732
    -0.8901  -0.8820  -0.8772  -0.8709  -0.6970  -0.6760  -0.6545  -0.6493
    -0.6350  -0.6161  -0.5537  -0.5342  -0.4398  -0.4360  -0.3151  -0.2889
    -0.2383  -0.2236  -0.1646  -0.1509  -0.1089  -0.0811  -0.0533  -0.0172
    -0.0141   0.0443   0.0799   0.0883   0.0922   0.0991   0.1319   0.1496
     0.1775   0.1973   0.2039   0.2565   0.2695   0.3152   0.3434   0.3694
     0.4800   0.5026   0.5274   0.5591   0.5787   0.6011   0.6356   0.6408
     0.6456   0.6577   0.7151   0.7344   0.7443   0.7591   0.7830   0.7955
     0.8541   0.8549   0.8721   0.9229   0.9257   0.9381   0.9499   0.9517
     1.0812   1.0820   1.0856   1.0945   1.2426   1.2527   1.2876   1.2912
     4.2632   4.2763   4.3444   4.3675   4.3844   4.4197   4.4443   4.4834
     4.5057   4.5184   4.5449   4.5604   4.6185   4.6581   4.7683   4.7735
     4.8695   4.8706   4.8764   4.8777   6.9480   6.9753   7.0576   7.1452
     7.4624   7.5380   7.6679   7.6823   7.8328   7.9181   7.9880   8.0003
     8.0850   8.1059   8.1223   8.2028   9.3319   9.4218   9.5719   9.9290
     9.9294  10.0425  10.0425  10.0660  10.0760  10.1452  10.1786  10.2167

          k = 0.0000 0.0000 0.3063 (127044 PWs)   bands (ev):

   -23.5456 -23.5454 -23.5314 -23.5312 -23.3394 -23.3393 -23.3255 -23.3250
   -23.2887 -23.2868 -23.2822 -23.2808 -23.2312 -23.2310 -23.2243 -23.2241
   -23.0907 -23.0905 -23.0792 -23.0791 -19.1620 -19.1619 -19.1617 -19.1616
   -18.9804 -18.9803 -18.9291 -18.9289 -18.8943 -18.8935 -18.8895 -18.8881
   -18.8874 -18.8842 -18.8769 -18.8761 -18.7181 -18.7180 -18.6943 -18.6942
   -18.0138 -18.0128 -18.0075 -18.0064 -13.2737 -13.2719 -13.2632 -13.2620
   -12.9620 -12.9575 -12.9536 -12.9511 -12.9174 -12.9032 -12.8879 -12.8690
   -11.4865 -11.4861 -11.4712 -11.4711 -10.9243 -10.9129 -10.9112 -10.8990
   -10.1595 -10.1355 -10.1169 -10.0849  -9.9929  -9.9902  -9.9759  -9.9742
    -8.9691  -8.9668  -8.9466  -8.9433  -6.9076  -6.8543  -6.8246  -6.8051
    -6.7983  -6.7769  -6.7617  -6.7024  -6.6000  -6.5919  -6.5228  -6.4908
    -6.4530  -6.4431  -6.3767  -6.3707  -6.1423  -6.1362  -6.0953  -6.0742
    -6.0280  -6.0081  -5.9723  -5.9583  -5.9131  -5.8778  -5.8770  -5.8471
    -5.6921  -5.6799  -5.6152  -5.6030  -5.5666  -5.5558  -5.5089  -5.4739
    -5.4309  -5.4265  -5.4014  -5.3644  -5.3336  -5.3246  -5.3017  -5.2942
    -5.2380  -5.2233  -5.2111  -5.2092  -5.2006  -5.1748  -5.1420  -5.0978
    -5.0491  -5.0433  -5.0321  -4.9978  -4.9316  -4.9286  -4.9010  -4.8872
    -4.8669  -4.8503  -4.8424  -4.8008  -4.7890  -4.7818  -4.7308  -4.7158
    -4.7097  -4.6850  -4.6715  -4.6563  -4.1748  -4.1332  -4.1101  -4.0991
    -3.9862  -3.9675  -3.9604  -3.9551  -2.1363  -2.1291  -2.1139  -2.1052
    -1.3292  -1.3167  -1.3081  -1.2979  -1.2143  -1.2064  -1.1539  -1.1537
    -0.9289  -0.9235  -0.9189  -0.9059  -0.7030  -0.6959  -0.6722  -0.6482
    -0.5994  -0.5939  -0.5673  -0.5542  -0.3733  -0.3471  -0.3128  -0.2852
    -0.1976  -0.1901  -0.1718  -0.1507  -0.1188  -0.0784  -0.0707  -0.0533
    -0.0255  -0.0035   0.0379   0.0531   0.0854   0.1131   0.1162   0.1403
     0.1418   0.1529   0.1941   0.1942   0.2799   0.3282   0.3530   0.3612
     0.5183   0.5271   0.5464   0.5530   0.6279   0.6400   0.6500   0.6521
     0.7027   0.7162   0.7322   0.7467   0.7687   0.8203   0.8329   0.8429
     0.8803   0.8899   0.9119   0.9248   0.9482   0.9678   1.0295   1.0450
     1.0872   1.1027   1.1383   1.1425   1.2551   1.2638   1.2672   1.2872
     4.2494   4.2709   4.2764   4.3041   4.3798   4.3971   4.3985   4.4099
     4.5378   4.5454   4.5785   4.5955   4.6868   4.7004   4.7742   4.7841
     4.8153   4.8388   4.8748   4.8883   7.0886   7.1239   7.1850   7.2032
     7.5750   7.5785   7.6624   7.6753   7.8581   7.8940   7.9506   7.9795
     8.0905   8.1123   8.1160   8.1466   9.5240   9.5638   9.6984   9.8253
     9.9067   9.9286  10.0017  10.0060  10.0339  10.1393  10.1809  10.1839

          k = 0.3333 0.0000 0.1429 (127202 PWs)   bands (ev):

   -23.5377 -23.5375 -23.5223 -23.5221 -23.3644 -23.3644 -23.3173 -23.3169
   -23.2869 -23.2856 -23.2797 -23.2788 -23.2309 -23.2306 -23.2263 -23.2261
   -23.0926 -23.0924 -23.0796 -23.0795 -19.1594 -19.1593 -19.1592 -19.1591
   -19.0095 -19.0094 -18.9177 -18.9149 -18.8986 -18.8922 -18.8859 -18.8831
   -18.8774 -18.8770 -18.8750 -18.8737 -18.7225 -18.7223 -18.6900 -18.6899
   -18.0271 -18.0259 -18.0148 -18.0135 -13.2180 -13.2069 -13.1985 -13.1878
   -12.9718 -12.9714 -12.9574 -12.9503 -12.9457 -12.9357 -12.8813 -12.8615
   -11.4932 -11.4895 -11.4836 -11.4790 -10.9593 -10.9391 -10.9144 -10.8955
   -10.1926 -10.1389 -10.1088 -10.0554  -9.9368  -9.9322  -9.9227  -9.9151
    -9.0676  -9.0618  -9.0280  -9.0212  -6.9529  -6.8724  -6.8504  -6.8193
    -6.7406  -6.7114  -6.6706  -6.6381  -6.6178  -6.5842  -6.5406  -6.4799
    -6.4672  -6.4474  -6.3831  -6.3824  -6.2391  -6.2330  -6.2263  -6.1701
    -5.9951  -5.9932  -5.9580  -5.9519  -5.8917  -5.8586  -5.8193  -5.8082
    -5.7476  -5.7126  -5.7108  -5.6825  -5.6184  -5.5969  -5.5957  -5.5814
    -5.5309  -5.5262  -5.4710  -5.4264  -5.3359  -5.2917  -5.2798  -5.2695
    -5.2523  -5.2126  -5.1914  -5.1690  -5.1097  -5.0909  -5.0838  -5.0819
    -5.0551  -5.0432  -5.0000  -4.9966  -4.9849  -4.9402  -4.9247  -4.9157
    -4.8538  -4.8512  -4.7955  -4.7787  -4.7536  -4.7381  -4.7312  -4.6959
    -4.6621  -4.6577  -4.6269  -4.6144  -4.1656  -4.1294  -4.1243  -4.0829
    -3.8939  -3.8835  -3.8785  -3.8695  -2.1377  -2.1079  -2.1010  -2.0697
    -1.2259  -1.2177  -1.2027  -1.1895  -1.1681  -1.1541  -1.1525  -1.1334
    -0.8933  -0.8894  -0.8819  -0.8794  -0.7524  -0.7470  -0.7345  -0.7248
    -0.6639  -0.6465  -0.6143  -0.5900  -0.4499  -0.4491  -0.3502  -0.3106
    -0.2964  -0.2543  -0.1501  -0.1377  -0.1142  -0.0717  -0.0541  -0.0450
    -0.0003   0.0185   0.0746   0.0820   0.0911   0.1051   0.1220   0.1830
     0.1857   0.1897   0.2628   0.2659   0.3210   0.3377   0.3694   0.4300
     0.5079   0.5414   0.5593   0.6015   0.6161   0.6318   0.6449   0.6758
     0.7080   0.7184   0.7213   0.7323   0.7465   0.7809   0.8001   0.8505
     0.8624   0.8640   0.8826   0.9115   0.9530   0.9631   0.9931   1.0234
     1.0844   1.0880   1.1215   1.1292   1.2322   1.2375   1.2635   1.2705
     4.2332   4.2622   4.3171   4.3684   4.3940   4.4125   4.4936   4.5094
     4.5275   4.5596   4.5838   4.5919   4.6643   4.6903   4.7763   4.8018
     4.9032   4.9167   4.9199   4.9233   6.9897   7.0799   7.0890   7.1510
     7.4738   7.4990   7.5933   7.6583   7.7658   7.7754   7.7834   7.8038
     7.8273   7.8484   7.9923   8.0734   9.5228   9.6007   9.6703   9.9674
     9.9770  10.0595  10.0806  10.1087  10.1706  10.1721  10.2126  10.2382

          k = 0.3333 0.0000 0.4492 (127212 PWs)   bands (ev):

   -23.5296 -23.5296 -23.5282 -23.5281 -23.3562 -23.3561 -23.3245 -23.3243
   -23.2857 -23.2847 -23.2833 -23.2826 -23.2307 -23.2305 -23.2262 -23.2261
   -23.0932 -23.0931 -23.0801 -23.0800 -19.1597 -19.1595 -19.1594 -19.1593
   -18.9810 -18.9809 -18.9325 -18.9315 -18.8994 -18.8940 -18.8938 -18.8890
   -18.8828 -18.8811 -18.8739 -18.8728 -18.7177 -18.7175 -18.6939 -18.6938
   -18.0251 -18.0242 -18.0190 -18.0180 -13.2147 -13.2030 -13.1993 -13.1875
   -12.9570 -12.9568 -12.9514 -12.9491 -12.9150 -12.9002 -12.8977 -12.8787
   -11.4954 -11.4917 -11.4832 -11.4792 -10.9542 -10.9368 -10.9232 -10.9071
   -10.1780 -10.1305 -10.1277 -10.0801  -9.9916  -9.9797  -9.9753  -9.9678
    -9.0624  -9.0607  -9.0332  -9.0322  -6.9386  -6.8982  -6.8361  -6.8342
    -6.7322  -6.7217  -6.6695  -6.6369  -6.5972  -6.5712  -6.4922  -6.4832
    -6.4245  -6.4115  -6.3630  -6.3224  -6.2784  -6.2277  -6.2070  -6.1705
    -5.9893  -5.9510  -5.9307  -5.9244  -5.8825  -5.8607  -5.8596  -5.8224
    -5.7237  -5.6704  -5.6612  -5.6371  -5.6143  -5.5940  -5.5586  -5.5536
    -5.5093  -5.4779  -5.4467  -5.4284  -5.3527  -5.3254  -5.3007  -5.2725
    -5.2474  -5.2149  -5.1927  -5.1582  -5.1281  -5.1199  -5.0780  -5.0528
    -5.0305  -5.0237  -5.0125  -4.9778  -4.9722  -4.9683  -4.9288  -4.9075
    -4.8437  -4.8403  -4.8020  -4.7923  -4.7599  -4.7414  -4.7271  -4.6954
    -4.6576  -4.6528  -4.6250  -4.6161  -4.1852  -4.1658  -4.1576  -4.1316
    -3.9015  -3.8957  -3.8894  -3.8760  -2.1345  -2.1120  -2.1038  -2.0806
    -1.3266  -1.3167  -1.3087  -1.3079  -1.2395  -1.2077  -1.1916  -1.1691
    -0.9363  -0.9221  -0.9165  -0.8957  -0.7584  -0.7457  -0.7359  -0.7308
    -0.6313  -0.6254  -0.6123  -0.6091  -0.3461  -0.3425  -0.3318  -0.3127
    -0.2830  -0.2460  -0.1397  -0.1140  -0.1101  -0.0877  -0.0674  -0.0579
    -0.0034   0.0012   0.0278   0.0635   0.0781   0.0857   0.0959   0.1414
     0.1629   0.1639   0.2738   0.2891   0.3089   0.3238   0.3359   0.3647
     0.5263   0.5654   0.5688   0.5962   0.6499   0.6573   0.6716   0.6890
     0.7182   0.7210   0.7286   0.7351   0.7751   0.8194   0.8467   0.8648
     0.8982   0.9065   0.9327   0.9435   0.9612   0.9949   1.0156   1.0198
     1.0861   1.1087   1.1225   1.1337   1.2537   1.2606   1.2701   1.2759
     4.2579   4.2777   4.3361   4.3585   4.3967   4.4234   4.4296   4.4519
     4.5536   4.5615   4.5779   4.5839   4.6785   4.6972   4.7986   4.8105
     4.8986   4.9037   4.9267   4.9290   7.0599   7.0951   7.1597   7.1911
     7.5474   7.6032   7.6120   7.6622   7.7294   7.7897   7.8049   7.8251
     7.8668   7.9181   7.9222   7.9841   9.7671   9.7937   9.8111   9.8852
     9.8948   9.9127  10.0268  10.0455  10.0470  10.0789  10.0914  10.1752

          k = 0.3333 0.0000-0.1633 (127165 PWs)   bands (ev):

   -23.5375 -23.5373 -23.5236 -23.5234 -23.3464 -23.3464 -23.3298 -23.3296
   -23.2873 -23.2861 -23.2836 -23.2825 -23.2311 -23.2308 -23.2261 -23.2259
   -23.0922 -23.0920 -23.0805 -23.0804 -19.1589 -19.1588 -19.1587 -19.1586
   -18.9821 -18.9820 -18.9313 -18.9307 -18.9008 -18.8970 -18.8945 -18.8904
   -18.8805 -18.8802 -18.8745 -18.8740 -18.7173 -18.7172 -18.6938 -18.6936
   -18.0250 -18.0232 -18.0189 -18.0170 -13.2070 -13.2020 -13.2010 -13.1971
   -12.9674 -12.9601 -12.9570 -12.9563 -12.9211 -12.9099 -12.8968 -12.8790
   -11.4875 -11.4872 -11.4823 -11.4820 -10.9511 -10.9395 -10.9346 -10.9245
   -10.1429 -10.1130 -10.1070 -10.0792  -9.9596  -9.9577  -9.9476  -9.9459
    -9.0506  -9.0477  -9.0320  -9.0285  -6.8877  -6.8635  -6.8454  -6.8027
    -6.7770  -6.7571  -6.7064  -6.6824  -6.5808  -6.5740  -6.5615  -6.5344
    -6.4434  -6.4190  -6.4106  -6.3424  -6.2723  -6.2357  -6.2333  -6.2131
    -6.0227  -5.9802  -5.9703  -5.9429  -5.9175  -5.8788  -5.8516  -5.8351
    -5.6987  -5.6954  -5.6909  -5.6581  -5.6506  -5.6442  -5.5693  -5.5171
    -5.4884  -5.4603  -5.4308  -5.3948  -5.3679  -5.3355  -5.2688  -5.2615
    -5.2200  -5.1970  -5.1585  -5.1541  -5.1183  -5.1149  -5.0840  -5.0794
    -5.0312  -5.0210  -4.9755  -4.9721  -4.9534  -4.9370  -4.9059  -4.8988
    -4.8850  -4.8549  -4.7943  -4.7826  -4.7688  -4.7117  -4.6972  -4.6840
    -4.6502  -4.6445  -4.6410  -4.5821  -4.1981  -4.1741  -4.1299  -4.1013
    -3.8934  -3.8924  -3.8731  -3.8699  -2.1317  -2.1270  -2.1118  -2.1037
    -1.3279  -1.3116  -1.2831  -1.2672  -1.1530  -1.1491  -1.1409  -1.1336
    -0.9341  -0.9202  -0.9145  -0.8983  -0.7432  -0.7356  -0.7193  -0.7090
    -0.6348  -0.6305  -0.5895  -0.5885  -0.3680  -0.3575  -0.3117  -0.2827
    -0.2368  -0.2156  -0.2112  -0.1881  -0.1375  -0.1088  -0.0617  -0.0422
    -0.0159   0.0188   0.0401   0.0520   0.1083   0.1242   0.1259   0.1480
     0.1804   0.2015   0.2664   0.2761   0.3001   0.3302   0.3659   0.4026
     0.5040   0.5475   0.5751   0.5969   0.5979   0.6117   0.6235   0.6447
     0.6926   0.7031   0.7238   0.7337   0.7831   0.8120   0.8337   0.8648
     0.8707   0.8838   0.9220   0.9270   0.9433   0.9673   0.9748   0.9867
     1.0810   1.0914   1.0920   1.1249   1.2601   1.2713   1.2756   1.2968
     4.2892   4.3032   4.3068   4.3239   4.4042   4.4418   4.4586   4.5023
     4.5660   4.5810   4.5953   4.5991   4.7461   4.7629   4.8041   4.8328
     4.8433   4.8476   4.8637   4.8702   7.0130   7.0411   7.1114   7.1407
     7.5677   7.6221   7.6311   7.6614   7.7583   7.7735   7.8106   7.8373
     7.9001   7.9143   7.9400   8.0094   9.4941   9.6078   9.6836   9.9173
     9.9211   9.9654   9.9916  10.0108  10.1066  10.1364  10.2174  10.2279

     highest occupied, lowest unoccupied level (ev):     1.2968    4.2332

!    total energy              =   -2829.47207097 Ry
     Harris-Foulkes estimate   =   -2829.47207096 Ry
     estimated scf accuracy    <          2.9E-09 Ry

     total all-electron energy =    -10657.774983 Ry

     The total energy is the sum of the following terms:

     one-electron contribution =   -1385.66514948 Ry
     hartree contribution      =     903.37558739 Ry
     xc contribution           =    -542.18645335 Ry
     ewald contribution        =   -1044.94708005 Ry
     Dispersion Correction     =      -0.55519553 Ry
     one-center paw contrib.   =    -759.49377995 Ry

     convergence has been achieved in  17 iterations

     Forces acting on atoms (cartesian axes, Ry/au):

     atom    1 type  1   force =    -0.00099560   -0.00205455   -0.00177321
     atom    2 type  1   force =     0.00099441   -0.00200658    0.00171638
     atom    3 type  1   force =     0.00099560    0.00205455    0.00177321
     atom    4 type  1   force =    -0.00099441    0.00200658   -0.00171638
     atom    5 type  2   force =     0.00138887    0.00030248    0.00231956
     atom    6 type  2   force =    -0.00138028    0.00031805   -0.00230341
     atom    7 type  2   force =    -0.00138887   -0.00030248   -0.00231956
     atom    8 type  2   force =     0.00138028   -0.00031805    0.00230341
     atom    9 type  4   force =     0.00011220   -0.00052608   -0.00055702
     atom   10 type  4   force =    -0.00011364   -0.00053887    0.00056278
     atom   11 type  4   force =    -0.00011220    0.00052608    0.00055702
     atom   12 type  4   force =     0.00011364    0.00053887   -0.00056278
     atom   13 type  4   force =    -0.00050292    0.00059397   -0.00191356
     atom   14 type  4   force =     0.00049252    0.00058031    0.00190039
     atom   15 type  4   force =     0.00050292   -0.00059397    0.00191356
     atom   16 type  4   force =    -0.00049252   -0.00058031   -0.00190039
     atom   17 type  1   force =    -0.00706442   -0.00249556   -0.00012183
     atom   18 type  1   force =     0.00706566   -0.00252521    0.00015345
     atom   19 type  1   force =     0.00706442    0.00249556    0.00012183
     atom   20 type  1   force =    -0.00706566    0.00252521   -0.00015345
     atom   21 type  2   force =     0.00242676    0.00997655   -0.00257158
     atom   22 type  2   force =    -0.00237699    0.00990157    0.00255215
     atom   23 type  2   force =    -0.00242676   -0.00997655    0.00257158
     atom   24 type  2   force =     0.00237699   -0.00990157   -0.00255215
     atom   25 type  4   force =    -0.00563108   -0.00553414    0.00117233
     atom   26 type  4   force =     0.00558750   -0.00551165   -0.00117096
     atom   27 type  4   force =     0.00563108    0.00553414   -0.00117233
     atom   28 type  4   force =    -0.00558750    0.00551165    0.00117096
     atom   29 type  4   force =    -0.00114164   -0.00314330    0.00145551
     atom   30 type  4   force =     0.00113326   -0.00308908   -0.00144558
     atom   31 type  4   force =     0.00114164    0.00314330   -0.00145551
     atom   32 type  4   force =    -0.00113326    0.00308908    0.00144558
     atom   33 type  1   force =     0.00126954   -0.00011236    0.00197384
     atom   34 type  1   force =    -0.00125943   -0.00009018   -0.00193343
     atom   35 type  1   force =    -0.00126954    0.00011236   -0.00197384
     atom   36 type  1   force =     0.00125943    0.00009018    0.00193343
     atom   37 type  2   force =     0.00083695    0.00004082   -0.00189645
     atom   38 type  2   force =    -0.00091566   -0.00004065    0.00186440
     atom   39 type  2   force =    -0.00083695   -0.00004082    0.00189645
     atom   40 type  2   force =     0.00091566    0.00004065   -0.00186440
     atom   41 type  4   force =     0.00022608   -0.00063103    0.00082594
     atom   42 type  4   force =    -0.00016602   -0.00058226   -0.00084565
     atom   43 type  4   force =    -0.00022608    0.00063103   -0.00082594
     atom   44 type  4   force =     0.00016602    0.00058226    0.00084565
     atom   45 type  4   force =    -0.00062332   -0.00015412    0.00157919
     atom   46 type  4   force =     0.00064256   -0.00011652   -0.00155303
     atom   47 type  4   force =     0.00062332    0.00015412   -0.00157919
     atom   48 type  4   force =    -0.00064256    0.00011652    0.00155303
     atom   49 type  1   force =    -0.00183793   -0.00070709    0.00332770
     atom   50 type  1   force =     0.00183046   -0.00073595   -0.00333565
     atom   51 type  1   force =     0.00183793    0.00070709   -0.00332770
     atom   52 type  1   force =    -0.00183046    0.00073595    0.00333565
     atom   53 type  3   force =    -0.00010676   -0.00034532   -0.00019168
     atom   54 type  3   force =     0.00010915   -0.00034315    0.00019690
     atom   55 type  3   force =     0.00010676    0.00034532    0.00019168
     atom   56 type  3   force =    -0.00010915    0.00034315   -0.00019690
     atom   57 type  1   force =     0.01531489    0.00410659   -0.00075821
     atom   58 type  1   force =    -0.01531533    0.00416969    0.00076592
     atom   59 type  1   force =    -0.01531489   -0.00410659    0.00075821
     atom   60 type  1   force =     0.01531533   -0.00416969   -0.00076592
     atom   61 type  2   force =     0.00128931    0.00077080   -0.00036886
     atom   62 type  2   force =    -0.00130400    0.00078481    0.00033776
     atom   63 type  2   force =    -0.00128931   -0.00077080    0.00036886
     atom   64 type  2   force =     0.00130400   -0.00078481   -0.00033776
     atom   65 type  4   force =    -0.00105673    0.00219460   -0.00009785
     atom   66 type  4   force =     0.00107548    0.00216194    0.00012169
     atom   67 type  4   force =     0.00105673   -0.00219460    0.00009785
     atom   68 type  4   force =    -0.00107548   -0.00216194   -0.00012169
     atom   69 type  4   force =    -0.00111710   -0.00059985    0.00181391
     atom   70 type  4   force =     0.00111793   -0.00060119   -0.00180158
     atom   71 type  4   force =     0.00111710    0.00059985   -0.00181391
     atom   72 type  4   force =    -0.00111793    0.00060119    0.00180158
     atom   73 type  1   force =    -0.00003804   -0.00252318   -0.00452157
     atom   74 type  1   force =     0.00003361   -0.00253289    0.00455252
     atom   75 type  1   force =     0.00003804    0.00252318    0.00452157
     atom   76 type  1   force =    -0.00003361    0.00253289   -0.00455252
     atom   77 type  3   force =    -0.00003380   -0.00100274    0.00119185
     atom   78 type  3   force =     0.00003758   -0.00100357   -0.00120502
     atom   79 type  3   force =     0.00003380    0.00100274   -0.00119185
     atom   80 type  3   force =    -0.00003758    0.00100357    0.00120502
     atom   81 type  1   force =    -0.00208268   -0.00012634    0.00003610
     atom   82 type  1   force =     0.00208733   -0.00013888   -0.00001421
     atom   83 type  1   force =     0.00208268    0.00012634   -0.00003610
     atom   84 type  1   force =    -0.00208733    0.00013888    0.00001421
     atom   85 type  2   force =     0.00024685   -0.00280162   -0.00079488
     atom   86 type  2   force =    -0.00026590   -0.00281456    0.00077070
     atom   87 type  2   force =    -0.00024685    0.00280162    0.00079488
     atom   88 type  2   force =     0.00026590    0.00281456   -0.00077070
     atom   89 type  4   force =    -0.00113376    0.00455467    0.00126123
     atom   90 type  4   force =     0.00112798    0.00455622   -0.00125682
     atom   91 type  4   force =     0.00113376   -0.00455467   -0.00126123
     atom   92 type  4   force =    -0.00112798   -0.00455622    0.00125682
     atom   93 type  4   force =     0.00113870    0.00222786    0.00041315
     atom   94 type  4   force =    -0.00113425    0.00223123   -0.00040142
     atom   95 type  4   force =    -0.00113870   -0.00222786   -0.00041315
     atom   96 type  4   force =     0.00113425   -0.00223123    0.00040142
     atom   97 type  1   force =    -0.00058026   -0.00153221   -0.00093254
     atom   98 type  1   force =     0.00058474   -0.00149786    0.00092505
     atom   99 type  1   force =     0.00058026    0.00153221    0.00093254
     atom  100 type  1   force =    -0.00058474    0.00149786   -0.00092505
     atom  101 type  3   force =     0.00132555    0.00153445   -0.00068726
     atom  102 type  3   force =    -0.00131732    0.00152170    0.00068154
     atom  103 type  3   force =    -0.00132555   -0.00153445    0.00068726
     atom  104 type  3   force =     0.00131732   -0.00152170   -0.00068154

     Total force =     0.050553     Total SCF correction =     0.000126


     Computing stress (Cartesian axis) and pressure

          total   stress  (Ry/bohr**3)                   (kbar)     P=   -0.65
  -0.00000017  -0.00000004  -0.00000326         -0.03     -0.01     -0.48
  -0.00000004  -0.00000428   0.00000000         -0.01     -0.63      0.00
  -0.00000326   0.00000000  -0.00000889         -0.48      0.00     -1.31


     Writing output data file scf.save
 
     init_run     :     61.23s CPU     63.25s WALL (       1 calls)
     electrons    :   2344.33s CPU   2424.85s WALL (       1 calls)
     forces       :     34.60s CPU     34.87s WALL (       1 calls)
     stress       :    156.43s CPU    156.78s WALL (       1 calls)

     Called by init_run:
     wfcinit      :     49.21s CPU     51.04s WALL (       1 calls)
     potinit      :      4.27s CPU      4.33s WALL (       1 calls)

     Called by electrons:
     c_bands      :   2126.03s CPU   2193.41s WALL (      17 calls)
     sum_band     :    201.62s CPU    213.00s WALL (      17 calls)
     v_of_rho     :      2.51s CPU      2.78s WALL (      18 calls)
     newd         :      6.65s CPU      8.05s WALL (      18 calls)
     PAW_pot      :      7.11s CPU      7.11s WALL (      18 calls)
     mix_rho      :      0.54s CPU      0.59s WALL (      17 calls)

     Called by c_bands:
     init_us_2    :      7.42s CPU      7.47s WALL (     185 calls)
     cegterg      :   2090.75s CPU   2158.08s WALL (      85 calls)

     Called by sum_band:
     sum_band:bec :      0.14s CPU      0.14s WALL (      85 calls)
     addusdens    :      7.14s CPU      8.43s WALL (      17 calls)

     Called by *egterg:
     h_psi        :   1006.50s CPU   1059.79s WALL (     413 calls)
     s_psi        :    269.12s CPU    269.14s WALL (     413 calls)
     g_psi        :      4.05s CPU      4.05s WALL (     323 calls)
     cdiaghg      :    162.26s CPU    162.29s WALL (     408 calls)

     Called by h_psi:
     h_psi:pot    :   1000.55s CPU   1053.76s WALL (     413 calls)
     h_psi:calbec :    266.89s CPU    267.29s WALL (     413 calls)
     vloc_psi     :    464.13s CPU    516.91s WALL (     413 calls)
     add_vuspsi   :    269.53s CPU    269.55s WALL (     413 calls)

     General routines
     calbec       :    394.68s CPU    395.26s WALL (     523 calls)
     fft          :      1.81s CPU      2.27s WALL (     258 calls)
     fftw         :    500.37s CPU    562.79s WALL (  155396 calls)
 
     Parallel routines
     fft_scatter  :     99.55s CPU    158.96s WALL (  155654 calls)
 
     PWSCF        : 43m29.25s CPU    45m37.34s WALL

 
   This run was terminated on:  10:48:10  12Nov2017            

=------------------------------------------------------------------------------=
   JOB DONE.
=------------------------------------------------------------------------------=
