
     Program PWSCF v.6.1 (svn rev. 13369) starts on  4Nov2017 at 18:18:29 

     This program is part of the open-source Quantum ESPRESSO suite
     for quantum simulation of materials; please cite
         "P. Giannozzi et al., J. Phys.:Condens. Matter 21 395502 (2009);
          URL http://www.quantum-espresso.org", 
     in publications or presentations arising from this work. More details at
     http://www.quantum-espresso.org/quote

     Parallel version (MPI), running on     8 processors
     R & G space division:  proc/nbgrp/npool/nimage =       8
     Waiting for input...
     Reading input from standard input

     Current dimensions of program PWSCF are:
     Max number of different atomic species (ntypx) = 10
     Max number of k-points (npk) =  40000
     Max angular momentum in pseudopotentials (lmaxx) =  3
               file C.pbe-n-kjpaw_psl.0.1.UPF: wavefunction(s)  2P renormalized
               file N.pbe-n-kjpaw_psl.0.1.UPF: wavefunction(s)  2P renormalized
               file H.pbe-kjpaw_psl.0.1.UPF: wavefunction(s)  1S renormalized
               file O.pbe-n-kjpaw_psl.0.1.UPF: wavefunction(s)  2P renormalized

     -------------------------------------
     Parameters for Dispersion Correction:
     -------------------------------------
       atom      VdW radius       C_6     

        C          2.744         60.710
        N          2.640         42.670
        H          1.892          4.857
        O          2.536         24.284

     Subspace diagonalization in iterative solution of the eigenvalue problem:
     a serial algorithm will be used

 
     Parallelization info
     --------------------
     sticks:   dense  smooth     PW     G-vecs:    dense   smooth      PW
     Min         807     807    216                44394    44394    6164
     Max         808     808    217                44397    44397    6167
     Sum        6461    6461   1733               355167   355167   49325
 


     bravais-lattice index     =            0
     lattice parameter (alat)  =       9.7340  a.u.
     unit-cell volume          =    2629.8014 (a.u.)^3
     number of atoms/cell      =           48
     number of atomic types    =            4
     number of electrons       =       144.00
     number of Kohn-Sham states=           86
     kinetic-energy cutoff     =     100.0000  Ry
     charge density cutoff     =     400.0000  Ry
     convergence threshold     =      1.0E-08
     mixing beta               =       0.5000
     number of iterations used =            8  plain     mixing
     Exchange-correlation      =  SLA  PW   PBX  PBC ( 1  4  3  4 0 0)

     celldm(1)=   9.733979  celldm(2)=   0.000000  celldm(3)=   0.000000
     celldm(4)=   0.000000  celldm(5)=   0.000000  celldm(6)=   0.000000

     crystal axes: (cart. coord. in units of alat)
               a(1) = (   1.000000   0.000000   0.000000 )  
               a(2) = (   0.000000   2.146573   0.000000 )  
               a(3) = (  -0.325778   0.000000   1.328330 )  

     reciprocal axes: (cart. coord. in units 2 pi/alat)
               b(1) = (  1.000000  0.000000  0.245253 )  
               b(2) = (  0.000000  0.465859  0.000000 )  
               b(3) = (  0.000000  0.000000  0.752825 )  


     PseudoPot. # 1 for  C read from file:
     /scratch/ahofstet/pseudo/C.pbe-n-kjpaw_psl.0.1.UPF
     MD5 check sum: 430fe95172b1e11ef3f8ed03bac87931
     Pseudo is Projector augmented-wave + core cor, Zval =  4.0
     Generated using "atomic" code by A. Dal Corso  v.5.0.99 svn rev. 10869
     Shape of augmentation charge: BESSEL
     Using radial grid of 1073 points,  4 beta functions with: 
                l(1) =   0
                l(2) =   0
                l(3) =   1
                l(4) =   1
     Q(r) pseudized with 0 coefficients 


     PseudoPot. # 2 for  N read from file:
     /scratch/ahofstet/pseudo/N.pbe-n-kjpaw_psl.0.1.UPF
     MD5 check sum: f73187c8b701007e77325f868c9291d7
     Pseudo is Projector augmented-wave + core cor, Zval =  5.0
     Generated using "atomic" code by A. Dal Corso  v.5.0.99 svn rev. 10869
     Shape of augmentation charge: PSQ
     Using radial grid of 1085 points,  4 beta functions with: 
                l(1) =   0
                l(2) =   0
                l(3) =   1
                l(4) =   1
     Q(r) pseudized with 0 coefficients 


     PseudoPot. # 3 for  H read from file:
     /scratch/ahofstet/pseudo/H.pbe-kjpaw_psl.0.1.UPF
     MD5 check sum: 94e484f906d9e9773b2f6e52662335b2
     Pseudo is Projector augmented-wave, Zval =  1.0
     Generated using "atomic" code by A. Dal Corso  v.5.0.99 svn rev. 10869
     Shape of augmentation charge: PSQ
     Using radial grid of  929 points,  2 beta functions with: 
                l(1) =   0
                l(2) =   0
     Q(r) pseudized with 0 coefficients 


     PseudoPot. # 4 for  O read from file:
     /scratch/ahofstet/pseudo/O.pbe-n-kjpaw_psl.0.1.UPF
     MD5 check sum: 3f94a2996a3169367d6eb21d9b593f20
     Pseudo is Projector augmented-wave + core cor, Zval =  6.0
     Generated using "atomic" code by A. Dal Corso  v.5.0.99 svn rev. 10869
     Shape of augmentation charge: BESSEL
     Using radial grid of 1095 points,  4 beta functions with: 
                l(1) =   0
                l(2) =   0
                l(3) =   1
                l(4) =   1
     Q(r) pseudized with 0 coefficients 


     atomic species   valence    mass     pseudopotential
        C              4.00    12.01070      C( 1.00)
        N              5.00    14.00670      N( 1.00)
        H              1.00     1.00794      H( 1.00)
        O              6.00    15.99940      O( 1.00)

      2 Sym. Ops., with inversion, found
          (note:  2 additional sym.ops. were found but ignored
           their fractional translations are incommensurate with FFT grid)


   Cartesian axes

     site n.     atom                  positions (alat units)
         1           O   tau(   1) = (   0.2817198   0.3296118   0.6611319  )
         2           O   tau(   2) = (   0.5553915   1.4028985   0.0030330  )
         3           O   tau(   3) = (   0.3925027   1.8169617   0.6671980  )
         4           O   tau(   4) = (   0.1188310   0.7436750   1.3252968  )
         5           H   tau(   5) = (   0.4406786   0.2671410   0.7490321  )
         6           H   tau(   6) = (   0.0706551   1.3404278   1.2434628  )
         7           H   tau(   7) = (   0.2335439   1.8794325   0.5792978  )
         8           H   tau(   8) = (   0.6035674   0.8061457   0.0848671  )
         9           O   tau(   9) = (  -0.0701540   0.5216437   0.3346917  )
        10           O   tau(  10) = (   0.9072653   1.5949304   0.3294732  )
        11           O   tau(  11) = (   0.7443765   1.6249298   0.9936382  )
        12           O   tau(  12) = (  -0.2330428   0.5516431   0.9988567  )
        13           O   tau(  13) = (   0.8146740   1.0172290   0.2620983  )
        14           O   tau(  14) = (   0.0224372   2.0905157   0.4020666  )
        15           O   tau(  15) = (  -0.1404515   1.1293445   1.0662315  )
        16           O   tau(  16) = (   0.6517853   0.0560578   0.9262633  )
        17           H   tau(  17) = (   0.7970358   1.2027933   0.2183395  )
        18           H   tau(  18) = (   0.0400755   0.1295065   0.4458254  )
        19           H   tau(  19) = (  -0.1228133   0.9437802   1.1099904  )
        20           H   tau(  20) = (   0.6341470   2.0170669   0.8825045  )
        21           C   tau(  21) = (   0.3079482   0.5935689   0.5966657  )
        22           C   tau(  22) = (   0.5291631   1.6668556   0.0674993  )
        23           C   tau(  23) = (   0.3662743   1.5530046   0.7316642  )
        24           C   tau(  24) = (   0.1450594   0.4797179   1.2608306  )
        25           H   tau(  25) = (   0.3242924   0.7202982   0.7686249  )
        26           H   tau(  26) = (   0.1870414   1.7935850   1.2238699  )
        27           H   tau(  27) = (   0.3499301   1.4262753   0.5597050  )
        28           H   tau(  28) = (   0.4871811   0.3529885   0.1044600  )
        29           H   tau(  29) = (   0.4879133   0.6280023   0.4812223  )
        30           H   tau(  30) = (   0.3491980   1.7012890   0.1829426  )
        31           H   tau(  31) = (   0.1863092   1.5185712   0.8471075  )
        32           H   tau(  32) = (   0.3250245   0.4452845   1.1453873  )
        33           C   tau(  33) = (   0.0792552   0.6776225   0.4361136  )
        34           C   tau(  34) = (   0.7578561   1.7509093   0.2280513  )
        35           C   tau(  35) = (   0.5949673   1.4689509   0.8922162  )
        36           C   tau(  36) = (  -0.0836336   0.3956642   1.1002786  )
        37           C   tau(  37) = (   0.0423018   0.9678592   0.4057539  )
        38           C   tau(  38) = (   0.7948094   2.0411459   0.2584110  )
        39           C   tau(  39) = (   0.6319207   1.1787143   0.9225759  )
        40           C   tau(  40) = (  -0.1205869   0.1054276   1.0699189  )
        41           H   tau(  41) = (   0.0328866   1.0540339   0.6021681  )
        42           H   tau(  42) = (   0.8042246   2.1273206   0.0619968  )
        43           H   tau(  43) = (   0.6413359   1.0925396   0.7261617  )
        44           H   tau(  44) = (  -0.1300021   0.0192529   1.2663331  )
        45           H   tau(  45) = (   0.2204483   1.0447611   0.3093883  )
        46           H   tau(  46) = (   0.6166630   2.1180479   0.3547766  )
        47           H   tau(  47) = (   0.4537742   1.1018124   1.0189416  )
        48           H   tau(  48) = (   0.0575595   0.0285256   0.9735532  )

     number of k points=    14
                       cart. coord. in units 2pi/alat
        k(    1) = (   0.0000000   0.0000000   0.0000000), wk =   0.0833333
        k(    2) = (   0.0000000   0.0000000   0.2509417), wk =   0.1666667
        k(    3) = (   0.0000000  -0.2329294   0.0000000), wk =   0.0833333
        k(    4) = (   0.0000000  -0.2329294   0.2509417), wk =   0.1666667
        k(    5) = (   0.2500000   0.0000000   0.0613134), wk =   0.1666667
        k(    6) = (   0.2500000   0.0000000   0.3122550), wk =   0.1666667
        k(    7) = (   0.2500000   0.0000000  -0.1896283), wk =   0.1666667
        k(    8) = (   0.2500000  -0.2329294   0.0613134), wk =   0.1666667
        k(    9) = (   0.2500000  -0.2329294   0.3122550), wk =   0.1666667
        k(   10) = (   0.2500000  -0.2329294  -0.1896283), wk =   0.1666667
        k(   11) = (  -0.5000000   0.0000000  -0.1226267), wk =   0.0833333
        k(   12) = (  -0.5000000   0.0000000   0.1283150), wk =   0.1666667
        k(   13) = (  -0.5000000  -0.2329294  -0.1226267), wk =   0.0833333
        k(   14) = (  -0.5000000  -0.2329294   0.1283150), wk =   0.1666667

     Dense  grid:   355167 G-vectors     FFT dimensions: (  64, 135,  90)

     Estimated max dynamical RAM per process >     218.73MB

     Estimated total allocated dynamical RAM >    1749.83MB

     Check: negative/imaginary core charge=   -0.000003    0.000000

     Initial potential from superposition of free atoms

     starting charge  143.99925, renormalised to  144.00000
     Starting wfc are  120 randomized atomic wfcs
     Checking if some PAW data can be deallocated... 

     total cpu time spent up to now is       14.4 secs

     per-process dynamical memory:   214.8 Mb

     Self-consistent Calculation

     iteration #  1     ecut=   100.00 Ry     beta=0.50
     Davidson diagonalization with overlap
     ethr =  1.00E-02,  avg # of iterations =  3.8

     total cpu time spent up to now is       47.5 secs

     total energy              =    -748.92254399 Ry
     Harris-Foulkes estimate   =    -751.08037559 Ry
     estimated scf accuracy    <       4.18348585 Ry

     iteration #  2     ecut=   100.00 Ry     beta=0.50
     Davidson diagonalization with overlap
     ethr =  2.91E-03,  avg # of iterations =  3.1

     total cpu time spent up to now is       68.6 secs

     total energy              =    -749.50548744 Ry
     Harris-Foulkes estimate   =    -749.82357547 Ry
     estimated scf accuracy    <       0.69364357 Ry

     iteration #  3     ecut=   100.00 Ry     beta=0.50
     Davidson diagonalization with overlap
     ethr =  4.82E-04,  avg # of iterations =  6.1

     total cpu time spent up to now is       96.5 secs

     total energy              =    -749.67823651 Ry
     Harris-Foulkes estimate   =    -749.75744406 Ry
     estimated scf accuracy    <       0.20800264 Ry

     iteration #  4     ecut=   100.00 Ry     beta=0.50
     Davidson diagonalization with overlap
     ethr =  1.44E-04,  avg # of iterations =  2.9

     total cpu time spent up to now is      114.6 secs

     total energy              =    -749.69601259 Ry
     Harris-Foulkes estimate   =    -749.70686978 Ry
     estimated scf accuracy    <       0.03014078 Ry

     iteration #  5     ecut=   100.00 Ry     beta=0.50
     Davidson diagonalization with overlap
     ethr =  2.09E-05,  avg # of iterations =  5.4

     total cpu time spent up to now is      146.6 secs

     total energy              =    -749.70775669 Ry
     Harris-Foulkes estimate   =    -749.71313540 Ry
     estimated scf accuracy    <       0.01539709 Ry

     iteration #  6     ecut=   100.00 Ry     beta=0.50
     Davidson diagonalization with overlap
     ethr =  1.07E-05,  avg # of iterations =  1.0

     total cpu time spent up to now is      162.8 secs

     total energy              =    -749.70573332 Ry
     Harris-Foulkes estimate   =    -749.70862310 Ry
     estimated scf accuracy    <       0.00476787 Ry

     iteration #  7     ecut=   100.00 Ry     beta=0.50
     Davidson diagonalization with overlap
     ethr =  3.31E-06,  avg # of iterations =  4.6

     total cpu time spent up to now is      195.2 secs

     total energy              =    -749.70865795 Ry
     Harris-Foulkes estimate   =    -749.70970746 Ry
     estimated scf accuracy    <       0.00294805 Ry

     iteration #  8     ecut=   100.00 Ry     beta=0.50
     Davidson diagonalization with overlap
     ethr =  2.05E-06,  avg # of iterations =  1.0

     total cpu time spent up to now is      211.6 secs

     total energy              =    -749.70823705 Ry
     Harris-Foulkes estimate   =    -749.70876901 Ry
     estimated scf accuracy    <       0.00100978 Ry

     iteration #  9     ecut=   100.00 Ry     beta=0.50
     Davidson diagonalization with overlap
     ethr =  7.01E-07,  avg # of iterations =  3.9

     total cpu time spent up to now is      240.6 secs

     total energy              =    -749.70883762 Ry
     Harris-Foulkes estimate   =    -749.70888550 Ry
     estimated scf accuracy    <       0.00025022 Ry

     iteration # 10     ecut=   100.00 Ry     beta=0.50
     Davidson diagonalization with overlap
     ethr =  1.74E-07,  avg # of iterations =  1.0

     total cpu time spent up to now is      256.9 secs

     total energy              =    -749.70875922 Ry
     Harris-Foulkes estimate   =    -749.70884077 Ry
     estimated scf accuracy    <       0.00016339 Ry

     iteration # 11     ecut=   100.00 Ry     beta=0.50
     Davidson diagonalization with overlap
     ethr =  1.13E-07,  avg # of iterations =  6.1

     total cpu time spent up to now is      280.2 secs

     total energy              =    -749.70880203 Ry
     Harris-Foulkes estimate   =    -749.70880458 Ry
     estimated scf accuracy    <       0.00000505 Ry

     iteration # 12     ecut=   100.00 Ry     beta=0.50
     Davidson diagonalization with overlap
     ethr =  3.50E-09,  avg # of iterations =  4.1

     total cpu time spent up to now is      309.5 secs

     total energy              =    -749.70880755 Ry
     Harris-Foulkes estimate   =    -749.70880837 Ry
     estimated scf accuracy    <       0.00000137 Ry

     iteration # 13     ecut=   100.00 Ry     beta=0.50
     Davidson diagonalization with overlap
     ethr =  9.52E-10,  avg # of iterations =  5.9

     total cpu time spent up to now is      332.8 secs

     total energy              =    -749.70880793 Ry
     Harris-Foulkes estimate   =    -749.70880796 Ry
     estimated scf accuracy    <       0.00000008 Ry

     iteration # 14     ecut=   100.00 Ry     beta=0.50
     Davidson diagonalization with overlap
     ethr =  5.77E-11,  avg # of iterations =  4.0

     total cpu time spent up to now is      358.7 secs

     total energy              =    -749.70880798 Ry
     Harris-Foulkes estimate   =    -749.70880799 Ry
     estimated scf accuracy    <       0.00000004 Ry

     iteration # 15     ecut=   100.00 Ry     beta=0.50
     Davidson diagonalization with overlap
     ethr =  2.65E-11,  avg # of iterations =  2.4

     total cpu time spent up to now is      377.6 secs

     total energy              =    -749.70880798 Ry
     Harris-Foulkes estimate   =    -749.70880798 Ry
     estimated scf accuracy    <       0.00000001 Ry

     iteration # 16     ecut=   100.00 Ry     beta=0.50
     Davidson diagonalization with overlap
     ethr =  7.96E-12,  avg # of iterations =  4.1

     total cpu time spent up to now is      403.1 secs

     End of self-consistent calculation

          k = 0.0000 0.0000 0.0000 ( 44409 PWs)   bands (ev):

   -19.9532 -19.8326 -19.7525 -19.6761 -19.1830 -18.9153 -18.8947 -18.8049
   -18.6999 -18.6604 -18.5973 -18.5335 -12.2301 -12.1658 -12.1654 -12.0687
   -10.2983 -10.2548 -10.2159 -10.0842  -6.9485  -6.7311  -6.6536  -6.6166
    -6.5899  -6.5607  -6.4731  -6.3100  -6.2956  -5.9756  -5.9374  -5.8160
    -5.6143  -5.4639  -5.1133  -4.9436  -4.6417  -4.4951  -4.4098  -4.3513
    -4.2434  -4.0716  -3.9914  -3.8283  -3.6960  -3.6734  -3.4793  -3.4735
    -2.6300  -2.6030  -2.3296  -2.3175  -2.1531  -2.1106  -2.0511  -1.8388
    -1.6120  -1.5858  -1.5198  -1.4924  -0.7061  -0.3068  -0.2265   0.1475
     0.3120   0.3980   0.4028   0.5713   0.6282   0.6783   0.7451   0.7837
     4.5934   4.8848   5.1398   5.2242   6.1145   7.1445   7.2837   7.9705
     8.3834   8.4037   9.3337   9.3439   9.3496   9.3534

          k = 0.0000 0.0000 0.2509 ( 44460 PWs)   bands (ev):

   -19.9089 -19.8102 -19.7968 -19.7191 -19.1199 -18.9888 -18.8799 -18.8107
   -18.6965 -18.6296 -18.5976 -18.5467 -12.2313 -12.2133 -12.1115 -12.0772
   -10.2850 -10.2404 -10.2070 -10.1255  -6.8352  -6.6984  -6.6441  -6.6327
    -6.5535  -6.5267  -6.5119  -6.3834  -6.2057  -6.1950  -6.0082  -5.9426
    -5.4319  -5.2315  -5.1569  -4.8262  -4.7372  -4.4351  -4.3806  -4.2042
    -4.1682  -4.1442  -3.9380  -3.9233  -3.8285  -3.7093  -3.6800  -3.6055
    -2.5724  -2.4771  -2.4115  -2.2764  -2.2154  -2.1714  -2.0569  -1.9073
    -1.6326  -1.5859  -1.4693  -1.4460  -0.5892  -0.2919  -0.1580  -0.0289
     0.1814   0.3314   0.5244   0.5413   0.6503   0.7134   0.7450   0.7568
     4.7275   5.0037   5.0097   5.1675   6.6241   7.4738   7.6264   7.8697
     7.9434   8.4806   8.8026   9.0521   9.2294   9.4052

          k = 0.0000-0.2329 0.0000 ( 44406 PWs)   bands (ev):

   -19.8994 -19.8994 -19.7163 -19.7163 -19.0644 -19.0644 -18.8230 -18.8230
   -18.6938 -18.6938 -18.5550 -18.5550 -12.1942 -12.1942 -12.1220 -12.1220
   -10.2931 -10.2931 -10.1308 -10.1308  -6.8087  -6.8087  -6.7470  -6.7470
    -6.5314  -6.5314  -6.3299  -6.3299  -6.1890  -6.1890  -5.8960  -5.8960
    -5.5555  -5.5555  -4.9689  -4.9689  -4.5587  -4.5587  -4.3548  -4.3548
    -4.0426  -4.0425  -3.9646  -3.9646  -3.7843  -3.7843  -3.4881  -3.4881
    -2.6268  -2.6268  -2.2565  -2.2565  -2.1849  -2.1849  -1.9635  -1.9635
    -1.5789  -1.5789  -1.4810  -1.4810  -0.6071  -0.6071   0.0903   0.0903
     0.3036   0.3036   0.5129   0.5129   0.6311   0.6311   0.7659   0.7659
     4.7288   4.7288   5.2023   5.2023   6.4350   6.4350   7.9280   7.9280
     8.3538   8.3538   9.1125   9.1125   9.5328   9.5328

          k = 0.0000-0.2329 0.2509 ( 44414 PWs)   bands (ev):

   -19.8599 -19.8599 -19.7658 -19.7658 -19.0185 -19.0185 -18.8906 -18.8906
   -18.6486 -18.6486 -18.5691 -18.5691 -12.2072 -12.2072 -12.1107 -12.1107
   -10.2541 -10.2541 -10.1732 -10.1732  -6.7726  -6.7726  -6.6595  -6.6595
    -6.5155  -6.5155  -6.3690  -6.3690  -6.2119  -6.2119  -6.0974  -6.0974
    -5.3598  -5.3598  -4.9758  -4.9758  -4.4768  -4.4768  -4.2715  -4.2715
    -4.0631  -4.0631  -4.0091  -4.0091  -3.8217  -3.8217  -3.6780  -3.6780
    -2.5287  -2.5287  -2.3068  -2.3068  -2.1798  -2.1798  -2.0518  -2.0518
    -1.6053  -1.6053  -1.4221  -1.4221  -0.4867  -0.4867  -0.0709  -0.0709
     0.2768   0.2768   0.5655   0.5656   0.6679   0.6679   0.7266   0.7266
     4.8315   4.8315   5.1294   5.1294   6.9344   6.9344   7.8900   7.8901
     8.1861   8.1861   8.8253   8.8253   9.4028   9.4028

          k = 0.2500 0.0000 0.0613 ( 44412 PWs)   bands (ev):

   -19.9026 -19.7928 -19.7898 -19.7034 -19.0841 -19.0337 -18.8797 -18.8359
   -18.6777 -18.6609 -18.5715 -18.5669 -12.2817 -12.1891 -12.1554 -12.0692
   -10.3306 -10.2471 -10.2262 -10.1258  -6.7270  -6.6999  -6.6688  -6.6148
    -6.5988  -6.4867  -6.4377  -6.3410  -6.2731  -6.1444  -5.9659  -5.8544
    -5.8160  -5.5558  -5.2011  -4.7675  -4.7267  -4.4280  -4.2911  -4.2459
    -4.2164  -4.1056  -4.0476  -3.8303  -3.8209  -3.6114  -3.5808  -3.4836
    -2.5212  -2.4106  -2.3100  -2.2663  -2.2002  -2.0327  -2.0288  -1.9356
    -1.5273  -1.4980  -1.3787  -1.3682  -0.5675  -0.2472  -0.1274   0.1890
     0.3092   0.3460   0.4856   0.5284   0.5881   0.6231   0.6870   0.6961
     4.5835   4.8191   4.8759   5.0385   6.4770   6.9830   7.4371   7.8841
     8.0554   8.6081   8.7134   9.1915   9.2282   9.4482

          k = 0.2500 0.0000 0.3123 ( 44412 PWs)   bands (ev):

   -19.8556 -19.8364 -19.7545 -19.7416 -19.1329 -18.9632 -18.9390 -18.7571
   -18.7167 -18.6370 -18.6295 -18.5369 -12.3115 -12.1487 -12.1422 -12.0911
   -10.3923 -10.3023 -10.1909 -10.0408  -6.9053  -6.6867  -6.6345  -6.5841
    -6.5599  -6.4694  -6.4002  -6.3855  -6.2179  -6.1443  -6.0548  -5.8089
    -5.5507  -5.3475  -5.2456  -4.9164  -4.6105  -4.5648  -4.4713  -4.3259
    -4.3120  -3.9579  -3.9519  -3.8533  -3.8260  -3.6901  -3.6333  -3.5539
    -2.4315  -2.3787  -2.3564  -2.2832  -2.1827  -2.1457  -2.0929  -1.8379
    -1.5893  -1.4210  -1.3977  -1.3935  -0.4261  -0.2154  -0.0781   0.0511
     0.1387   0.3963   0.4696   0.5165   0.5737   0.6686   0.7081   0.7196
     4.6648   4.8126   4.9524   4.9646   6.8803   6.9652   7.9206   7.9375
     8.0734   8.3124   8.8470   8.9543   8.9715   9.3281

          k = 0.2500 0.0000-0.1896 ( 44416 PWs)   bands (ev):

   -19.9093 -19.7970 -19.7759 -19.6937 -19.1607 -18.9328 -18.9226 -18.7952
   -18.7226 -18.6359 -18.6163 -18.5383 -12.2645 -12.1865 -12.1481 -12.1048
   -10.3645 -10.2403 -10.2337 -10.0797  -6.8722  -6.7105  -6.6220  -6.6142
    -6.5696  -6.5485  -6.4378  -6.3398  -6.2708  -6.0028  -5.9457  -5.8126
    -5.5765  -5.3256  -5.2606  -4.9497  -4.7480  -4.5085  -4.4141  -4.3805
    -4.2323  -4.1639  -3.9036  -3.8482  -3.7791  -3.7687  -3.5810  -3.5026
    -2.4412  -2.3654  -2.3018  -2.2937  -2.2435  -2.1402  -2.0204  -1.8531
    -1.5788  -1.4505  -1.4099  -1.3916  -0.4388  -0.1651  -0.1233   0.1258
     0.2449   0.2808   0.5012   0.5265   0.5269   0.6620   0.7020   0.7104
     4.5255   4.8813   4.9295   5.0160   6.7487   7.5327   7.5593   7.8588
     7.9704   8.2853   8.9486   8.9956   9.2307   9.2491

          k = 0.2500-0.2329 0.0613 ( 44402 PWs)   bands (ev):

   -19.8543 -19.8543 -19.7476 -19.7476 -19.0041 -19.0041 -18.9221 -18.9221
   -18.6450 -18.6450 -18.5765 -18.5765 -12.2327 -12.2327 -12.1169 -12.1169
   -10.2945 -10.2944 -10.1670 -10.1670  -6.7826  -6.7826  -6.6312  -6.6312
    -6.4752  -6.4752  -6.3453  -6.3453  -6.1365  -6.1365  -6.0889  -6.0889
    -5.7149  -5.7149  -4.9893  -4.9893  -4.4782  -4.4782  -4.2314  -4.2314
    -4.0816  -4.0816  -3.9772  -3.9772  -3.8285  -3.8285  -3.5168  -3.5168
    -2.4823  -2.4823  -2.2220  -2.2220  -2.1583  -2.1583  -2.0055  -2.0055
    -1.5270  -1.5270  -1.3406  -1.3406  -0.4628  -0.4628   0.1092   0.1092
     0.3019   0.3019   0.5154   0.5154   0.6156   0.6156   0.6750   0.6750
     4.6993   4.6993   4.9588   4.9588   6.7147   6.7147   7.6099   7.6099
     8.3812   8.3812   8.9910   8.9910   9.2288   9.2288

          k = 0.2500-0.2329 0.3123 ( 44428 PWs)   bands (ev):

   -19.8148 -19.8148 -19.7870 -19.7870 -19.0448 -19.0448 -18.8583 -18.8583
   -18.6836 -18.6836 -18.5618 -18.5618 -12.2434 -12.2434 -12.1051 -12.1051
   -10.3560 -10.3560 -10.1043 -10.1043  -6.7982  -6.7982  -6.6240  -6.6240
    -6.5279  -6.5279  -6.3612  -6.3612  -6.1579  -6.1579  -6.0101  -6.0101
    -5.4759  -5.4759  -5.0521  -5.0521  -4.5381  -4.5381  -4.2889  -4.2889
    -4.1460  -4.1460  -3.9733  -3.9732  -3.7537  -3.7537  -3.6398  -3.6398
    -2.4185  -2.4185  -2.2875  -2.2875  -2.1825  -2.1825  -1.9859  -1.9859
    -1.5006  -1.5006  -1.3655  -1.3655  -0.3463  -0.3463  -0.0036  -0.0036
     0.2732   0.2732   0.5494   0.5494   0.5877   0.5877   0.6959   0.6959
     4.7579   4.7579   4.9401   4.9401   7.0154   7.0154   7.7551   7.7551
     8.3911   8.3911   8.6107   8.6107   9.1700   9.1700

          k = 0.2500-0.2329-0.1896 ( 44404 PWs)   bands (ev):

   -19.8588 -19.8588 -19.7375 -19.7375 -19.0528 -19.0528 -18.8526 -18.8526
   -18.6871 -18.6871 -18.5615 -18.5615 -12.2095 -12.2095 -12.1443 -12.1443
   -10.3290 -10.3290 -10.1261 -10.1261  -6.8014  -6.8014  -6.6860  -6.6860
    -6.5104  -6.5104  -6.3101  -6.3101  -6.1859  -6.1859  -5.9332  -5.9332
    -5.4982  -5.4982  -5.0467  -5.0467  -4.5801  -4.5801  -4.3023  -4.3023
    -4.1645  -4.1645  -3.9800  -3.9800  -3.7934  -3.7934  -3.5713  -3.5713
    -2.4044  -2.4043  -2.2969  -2.2969  -2.1621  -2.1621  -1.9759  -1.9759
    -1.5170  -1.5170  -1.3702  -1.3701  -0.3547  -0.3547   0.0388   0.0388
     0.3039   0.3039   0.4895   0.4895   0.6012   0.6012   0.6910   0.6910
     4.6856   4.6856   4.9887   4.9887   7.0601   7.0601   7.6869   7.6869
     8.4257   8.4257   8.8123   8.8123   9.1010   9.1010

          k =-0.5000 0.0000-0.1226 ( 44364 PWs)   bands (ev):

   -19.8418 -19.8209 -19.7482 -19.7278 -19.1386 -18.9706 -18.9492 -18.7681
   -18.6816 -18.6762 -18.6360 -18.5354 -12.3533 -12.1834 -12.1132 -12.0984
   -10.4357 -10.3691 -10.1793 -10.0142  -6.9474  -6.6971  -6.6285  -6.5818
    -6.4675  -6.3596  -6.3037  -6.2848  -6.1952  -6.1826  -6.0583  -6.0093
    -5.7013  -5.6746  -5.2797  -4.8761  -4.6530  -4.5149  -4.5112  -4.3982
    -4.2388  -4.0579  -3.9579  -3.6670  -3.6517  -3.6322  -3.5919  -3.5015
    -2.3485  -2.3452  -2.2802  -2.2250  -2.2126  -2.1598  -1.9500  -1.7849
    -1.5479  -1.3767  -1.3249  -1.3127  -0.2088  -0.0831  -0.0122   0.0187
     0.2310   0.3191   0.4162   0.4931   0.6033   0.6307   0.6555   0.6575
     4.5415   4.6793   4.7851   4.8226   6.5910   6.9535   7.3108   7.8925
     8.0393   8.1696   8.7266   8.9117   9.2169   9.5452

          k =-0.5000 0.0000 0.1283 ( 44396 PWs)   bands (ev):

   -19.8378 -19.8273 -19.7422 -19.7321 -19.1021 -19.0135 -18.9218 -18.8066
   -18.7086 -18.6525 -18.5983 -18.5533 -12.3059 -12.1931 -12.1598 -12.1111
   -10.3946 -10.2606 -10.2516 -10.0814  -6.8124  -6.6456  -6.6387  -6.6032
    -6.5308  -6.4670  -6.4294  -6.3694  -6.1962  -6.1091  -5.9490  -5.7775
    -5.7315  -5.4583  -5.3583  -5.0203  -4.5206  -4.5180  -4.4632  -4.4075
    -4.2957  -4.0813  -3.9184  -3.7786  -3.7620  -3.7173  -3.6870  -3.6253
    -2.3166  -2.2883  -2.2717  -2.1924  -2.1705  -2.0409  -2.0398  -1.8439
    -1.5230  -1.4070  -1.3234  -1.2985  -0.1562  -0.0766   0.0571   0.1020
     0.2704   0.3643   0.3983   0.4472   0.4664   0.5373   0.6461   0.6463
     4.5728   4.6333   4.8246   4.8383   6.9078   7.2219   7.5441   7.8536
     8.1514   8.2738   8.4520   8.8095   9.3158   9.3714

          k =-0.5000-0.2329-0.1226 ( 44368 PWs)   bands (ev):

   -19.8029 -19.8029 -19.7735 -19.7735 -19.0623 -19.0623 -18.8403 -18.8403
   -18.7081 -18.7081 -18.5603 -18.5603 -12.2770 -12.2770 -12.0993 -12.0993
   -10.4096 -10.4096 -10.0853 -10.0853  -6.8450  -6.8450  -6.5759  -6.5759
    -6.4624  -6.4624  -6.3253  -6.3253  -6.1211  -6.1211  -5.9191  -5.9191
    -5.8844  -5.8844  -5.0088  -5.0088  -4.6201  -4.6201  -4.2384  -4.2384
    -4.2080  -4.2080  -3.9201  -3.9201  -3.6597  -3.6597  -3.5435  -3.5435
    -2.3480  -2.3480  -2.2584  -2.2584  -2.1608  -2.1608  -1.8994  -1.8994
    -1.4448  -1.4448  -1.3072  -1.3072  -0.1515  -0.1515   0.0207   0.0207
     0.2724   0.2725   0.4880   0.4880   0.5865   0.5865   0.6419   0.6419
     4.6400   4.6400   4.7714   4.7714   6.8845   6.8845   7.3606   7.3606
     8.1690   8.1690   8.9479   8.9479   9.3880   9.3880

          k =-0.5000-0.2329 0.1283 ( 44376 PWs)   bands (ev):

   -19.7983 -19.7983 -19.7789 -19.7789 -19.0233 -19.0233 -18.9073 -18.9073
   -18.6671 -18.6671 -18.5731 -18.5731 -12.2424 -12.2424 -12.1450 -12.1450
   -10.3542 -10.3542 -10.1349 -10.1349  -6.8109  -6.8109  -6.6131  -6.6131
    -6.4475  -6.4475  -6.2808  -6.2808  -6.1711  -6.1711  -6.0064  -6.0064
    -5.6357  -5.6357  -5.1250  -5.1250  -4.5191  -4.5191  -4.2924  -4.2924
    -4.1369  -4.1368  -3.9804  -3.9804  -3.7762  -3.7762  -3.6532  -3.6532
    -2.2844  -2.2844  -2.2189  -2.2189  -2.1430  -2.1430  -1.9464  -1.9464
    -1.4789  -1.4789  -1.2808  -1.2807  -0.1157  -0.1157   0.0888   0.0888
     0.2994   0.2994   0.4415   0.4415   0.5484   0.5484   0.5904   0.5904
     4.6722   4.6722   4.7574   4.7574   7.1758   7.1758   7.4917   7.4917
     8.4108   8.4108   8.6237   8.6237   9.1998   9.1998

     highest occupied, lowest unoccupied level (ev):     0.7837    4.5255

!    total energy              =    -749.70880798 Ry
     Harris-Foulkes estimate   =    -749.70880798 Ry
     estimated scf accuracy    <          4.2E-10 Ry

     total all-electron energy =     -2749.040630 Ry

     The total energy is the sum of the following terms:

     one-electron contribution =    -335.05697708 Ry
     hartree contribution      =     227.82510656 Ry
     xc contribution           =    -155.90006155 Ry
     ewald contribution        =    -292.41138350 Ry
     Dispersion Correction     =      -0.22593355 Ry
     one-center paw contrib.   =    -193.93955887 Ry

     convergence has been achieved in  16 iterations

     Forces acting on atoms (cartesian axes, Ry/au):

     atom    1 type  4   force =     0.00128699   -0.00260578   -0.00014771
     atom    2 type  4   force =    -0.00128695   -0.00260591    0.00014666
     atom    3 type  4   force =    -0.00128699    0.00260578    0.00014771
     atom    4 type  4   force =     0.00128695    0.00260591   -0.00014666
     atom    5 type  3   force =     0.00277812   -0.00065243    0.00167244
     atom    6 type  3   force =    -0.00277811   -0.00065298   -0.00167249
     atom    7 type  3   force =    -0.00277812    0.00065243   -0.00167244
     atom    8 type  3   force =     0.00277811    0.00065298    0.00167249
     atom    9 type  4   force =     0.00704297    0.00136315    0.00808792
     atom   10 type  4   force =    -0.00704350    0.00136366   -0.00808819
     atom   11 type  4   force =    -0.00704297   -0.00136315   -0.00808792
     atom   12 type  4   force =     0.00704350   -0.00136366    0.00808819
     atom   13 type  4   force =    -0.00170919   -0.00191741    0.00045821
     atom   14 type  4   force =     0.00170910   -0.00191793   -0.00045831
     atom   15 type  4   force =     0.00170919    0.00191741   -0.00045821
     atom   16 type  4   force =    -0.00170910    0.00191793    0.00045831
     atom   17 type  3   force =     0.00132004   -0.00086241    0.00110789
     atom   18 type  3   force =    -0.00132012   -0.00086224   -0.00110790
     atom   19 type  3   force =    -0.00132004    0.00086241   -0.00110789
     atom   20 type  3   force =     0.00132012    0.00086224    0.00110790
     atom   21 type  1   force =     0.01686326    0.00059528   -0.00489262
     atom   22 type  1   force =    -0.01686390    0.00056254    0.00489384
     atom   23 type  1   force =    -0.01686326   -0.00059528    0.00489262
     atom   24 type  1   force =     0.01686390   -0.00056254   -0.00489384
     atom   25 type  3   force =    -0.00270055   -0.00083574    0.00473791
     atom   26 type  3   force =     0.00270055   -0.00083554   -0.00473778
     atom   27 type  3   force =     0.00270055    0.00083574   -0.00473791
     atom   28 type  3   force =    -0.00270055    0.00083554    0.00473778
     atom   29 type  3   force =    -0.00993520    0.00284485    0.00331895
     atom   30 type  3   force =     0.00993539    0.00284480   -0.00331909
     atom   31 type  3   force =     0.00993520   -0.00284485   -0.00331895
     atom   32 type  3   force =    -0.00993539   -0.00284480    0.00331909
     atom   33 type  1   force =    -0.01211038    0.00051922   -0.01328325
     atom   34 type  1   force =     0.01211051    0.00052327    0.01328341
     atom   35 type  1   force =     0.01211038   -0.00051922    0.01328325
     atom   36 type  1   force =    -0.01211051   -0.00052327   -0.01328341
     atom   37 type  1   force =     0.00861426    0.00130991   -0.00505839
     atom   38 type  1   force =    -0.00861435    0.00131354    0.00505849
     atom   39 type  1   force =    -0.00861426   -0.00130991    0.00505839
     atom   40 type  1   force =     0.00861435   -0.00131354   -0.00505849
     atom   41 type  3   force =     0.00137285    0.00052510    0.00134758
     atom   42 type  3   force =    -0.00137286    0.00052536   -0.00134758
     atom   43 type  3   force =    -0.00137285   -0.00052510   -0.00134758
     atom   44 type  3   force =     0.00137286   -0.00052536    0.00134758
     atom   45 type  3   force =    -0.01049286   -0.00250926    0.00425895
     atom   46 type  3   force =     0.01049291   -0.00250951   -0.00425896
     atom   47 type  3   force =     0.01049286    0.00250926   -0.00425895
     atom   48 type  3   force =    -0.01049291    0.00250951    0.00425896

     Total force =     0.068327     Total SCF correction =     0.000033


     Computing stress (Cartesian axis) and pressure

          total   stress  (Ry/bohr**3)                   (kbar)     P=   -8.47
  -0.00011409  -0.00000000   0.00000100        -16.78     -0.00      0.15
  -0.00000000  -0.00003141   0.00000000         -0.00     -4.62      0.00
   0.00000100   0.00000000  -0.00002731          0.15      0.00     -4.02


     Writing output data file scf.save
 
     init_run     :     12.62s CPU     13.53s WALL (       1 calls)
     electrons    :    376.60s CPU    388.74s WALL (       1 calls)
     forces       :      6.20s CPU      6.24s WALL (       1 calls)
     stress       :     16.47s CPU     16.50s WALL (       1 calls)

     Called by init_run:
     wfcinit      :      8.52s CPU      8.89s WALL (       1 calls)
     potinit      :      1.47s CPU      1.49s WALL (       1 calls)

     Called by electrons:
     c_bands      :    332.35s CPU    343.47s WALL (      16 calls)
     sum_band     :     39.33s CPU     40.16s WALL (      16 calls)
     v_of_rho     :      0.82s CPU      0.90s WALL (      17 calls)
     newd         :      1.60s CPU      1.64s WALL (      17 calls)
     PAW_pot      :      2.10s CPU      2.10s WALL (      17 calls)
     mix_rho      :      0.17s CPU      0.18s WALL (      16 calls)

     Called by c_bands:
     init_us_2    :      2.84s CPU      2.85s WALL (     490 calls)
     cegterg      :    322.98s CPU    334.01s WALL (     224 calls)

     Called by sum_band:
     sum_band:bec :      0.04s CPU      0.04s WALL (     224 calls)
     addusdens    :      1.55s CPU      1.58s WALL (      16 calls)

     Called by *egterg:
     h_psi        :    202.42s CPU    210.66s WALL (    1070 calls)
     s_psi        :     28.52s CPU     28.53s WALL (    1070 calls)
     g_psi        :      1.29s CPU      1.29s WALL (     832 calls)
     cdiaghg      :     20.64s CPU     20.72s WALL (    1056 calls)

     Called by h_psi:
     h_psi:pot    :    201.05s CPU    209.26s WALL (    1070 calls)
     h_psi:calbec :     28.48s CPU     28.59s WALL (    1070 calls)
     vloc_psi     :    144.06s CPU    152.15s WALL (    1070 calls)
     add_vuspsi   :     28.51s CPU     28.52s WALL (    1070 calls)

     General routines
     calbec       :     40.72s CPU     40.87s WALL (    1364 calls)
     fft          :      0.47s CPU      1.07s WALL (     245 calls)
     fftw         :    154.23s CPU    162.85s WALL (  131444 calls)
 
     Parallel routines
     fft_scatter  :     35.85s CPU     39.84s WALL (  131689 calls)
 
     PWSCF        :  6m56.37s CPU     7m10.91s WALL

 
   This run was terminated on:  18:25:40   4Nov2017            

=------------------------------------------------------------------------------=
   JOB DONE.
=------------------------------------------------------------------------------=
