
     Program PWSCF v.6.1 (svn rev. 13369) starts on  7Dec2017 at  9:24:14 

     This program is part of the open-source Quantum ESPRESSO suite
     for quantum simulation of materials; please cite
         "P. Giannozzi et al., J. Phys.:Condens. Matter 21 395502 (2009);
          URL http://www.quantum-espresso.org", 
     in publications or presentations arising from this work. More details at
     http://www.quantum-espresso.org/quote

     Parallel version (MPI), running on     8 processors
     R & G space division:  proc/nbgrp/npool/nimage =       8
     Waiting for input...
     Reading input from standard input

     Current dimensions of program PWSCF are:
     Max number of different atomic species (ntypx) = 10
     Max number of k-points (npk) =  40000
     Max angular momentum in pseudopotentials (lmaxx) =  3
               file C.pbe-n-kjpaw_psl.0.1.UPF: wavefunction(s)  2P renormalized
               file N.pbe-n-kjpaw_psl.0.1.UPF: wavefunction(s)  2P renormalized
               file H.pbe-kjpaw_psl.0.1.UPF: wavefunction(s)  1S renormalized
               file O.pbe-n-kjpaw_psl.0.1.UPF: wavefunction(s)  2P renormalized

     -------------------------------------
     Parameters for Dispersion Correction:
     -------------------------------------
       atom      VdW radius       C_6     

        C          2.744         60.710
        N          2.640         42.670
        H          1.892          4.857
        O          2.536         24.284

     Subspace diagonalization in iterative solution of the eigenvalue problem:
     a serial algorithm will be used

 
     Parallelization info
     --------------------
     sticks:   dense  smooth     PW     G-vecs:    dense   smooth      PW
     Min         501     501    135               121079   121079   17037
     Max         502     502    137               121083   121083   17044
     Sum        4011    4011   1087               968647   968647  136327
 


     bravais-lattice index     =            0
     lattice parameter (alat)  =       6.9504  a.u.
     unit-cell volume          =    7171.8492 (a.u.)^3
     number of atoms/cell      =          108
     number of atomic types    =            4
     number of electrons       =       360.00
     number of Kohn-Sham states=          216
     kinetic-energy cutoff     =     100.0000  Ry
     charge density cutoff     =     400.0000  Ry
     convergence threshold     =      1.0E-08
     mixing beta               =       0.5000
     number of iterations used =            8  plain     mixing
     Exchange-correlation      =  SLA  PW   PBX  PBC ( 1  4  3  4 0 0)

     celldm(1)=   6.950413  celldm(2)=   0.000000  celldm(3)=   0.000000
     celldm(4)=   0.000000  celldm(5)=   0.000000  celldm(6)=   0.000000

     crystal axes: (cart. coord. in units of alat)
               a(1) = (   1.000000   0.000000   0.000000 )  
               a(2) = (   0.000000   2.610930   0.000000 )  
               a(3) = (  -0.738767   0.000000   8.180958 )  

     reciprocal axes: (cart. coord. in units 2 pi/alat)
               b(1) = (  1.000000  0.000000  0.090303 )  
               b(2) = (  0.000000  0.383005  0.000000 )  
               b(3) = (  0.000000  0.000000  0.122235 )  


     PseudoPot. # 1 for  C read from file:
     /scratch/ahofstet/pseudo/C.pbe-n-kjpaw_psl.0.1.UPF
     MD5 check sum: 430fe95172b1e11ef3f8ed03bac87931
     Pseudo is Projector augmented-wave + core cor, Zval =  4.0
     Generated using "atomic" code by A. Dal Corso  v.5.0.99 svn rev. 10869
     Shape of augmentation charge: BESSEL
     Using radial grid of 1073 points,  4 beta functions with: 
                l(1) =   0
                l(2) =   0
                l(3) =   1
                l(4) =   1
     Q(r) pseudized with 0 coefficients 


     PseudoPot. # 2 for  N read from file:
     /scratch/ahofstet/pseudo/N.pbe-n-kjpaw_psl.0.1.UPF
     MD5 check sum: f73187c8b701007e77325f868c9291d7
     Pseudo is Projector augmented-wave + core cor, Zval =  5.0
     Generated using "atomic" code by A. Dal Corso  v.5.0.99 svn rev. 10869
     Shape of augmentation charge: PSQ
     Using radial grid of 1085 points,  4 beta functions with: 
                l(1) =   0
                l(2) =   0
                l(3) =   1
                l(4) =   1
     Q(r) pseudized with 0 coefficients 


     PseudoPot. # 3 for  H read from file:
     /scratch/ahofstet/pseudo/H.pbe-kjpaw_psl.0.1.UPF
     MD5 check sum: 94e484f906d9e9773b2f6e52662335b2
     Pseudo is Projector augmented-wave, Zval =  1.0
     Generated using "atomic" code by A. Dal Corso  v.5.0.99 svn rev. 10869
     Shape of augmentation charge: PSQ
     Using radial grid of  929 points,  2 beta functions with: 
                l(1) =   0
                l(2) =   0
     Q(r) pseudized with 0 coefficients 


     PseudoPot. # 4 for  O read from file:
     /scratch/ahofstet/pseudo/O.pbe-n-kjpaw_psl.0.1.UPF
     MD5 check sum: 3f94a2996a3169367d6eb21d9b593f20
     Pseudo is Projector augmented-wave + core cor, Zval =  6.0
     Generated using "atomic" code by A. Dal Corso  v.5.0.99 svn rev. 10869
     Shape of augmentation charge: BESSEL
     Using radial grid of 1095 points,  4 beta functions with: 
                l(1) =   0
                l(2) =   0
                l(3) =   1
                l(4) =   1
     Q(r) pseudized with 0 coefficients 


     atomic species   valence    mass     pseudopotential
        C              4.00    12.01070      C( 1.00)
        N              5.00    14.00670      N( 1.00)
        H              1.00     1.00794      H( 1.00)
        O              6.00    15.99940      O( 1.00)

      2 Sym. Ops., with inversion, found
          (note:  2 additional sym.ops. were found but ignored
           their fractional translations are incommensurate with FFT grid)


   Cartesian axes

     site n.     atom                  positions (alat units)
         1           N   tau(   1) = (   0.3802426   0.9090295   2.0240420  )
         2           N   tau(   2) = (   0.2503738   2.2144944   2.0664370  )
         3           N   tau(   3) = (  -0.1190098   1.7019003   6.1569161  )
         4           N   tau(   4) = (   0.0108590   0.3964354   6.1145210  )
         5           C   tau(   5) = (   0.3015112   1.7637862   1.2701487  )
         6           C   tau(   6) = (   0.3291052   0.4583213   2.8203303  )
         7           C   tau(   7) = (  -0.0402784   0.8471437   6.9108093  )
         8           C   tau(   8) = (  -0.0678724   2.1526086   5.3606278  )
         9           H   tau(   9) = (   1.2753707   2.0433529   1.3686076  )
        10           H   tau(  10) = (  -0.6447543   0.7378880   2.7218715  )
        11           H   tau(  11) = (  -1.0141379   0.5675769   6.8123505  )
        12           H   tau(  12) = (   0.9059871   1.8730419   5.4590866  )
        13           C   tau(  13) = (  -0.0362462   0.6870653   0.8454497  )
        14           C   tau(  14) = (   0.6668626   1.9925302   3.2450293  )
        15           C   tau(  15) = (   0.2974790   1.9238646   7.3355083  )
        16           C   tau(  16) = (  -0.4056297   0.6183996   4.9359287  )
        17           N   tau(  17) = (   0.4009214   0.4923485   1.3802809  )
        18           N   tau(  18) = (   0.2296950   1.7978135   2.7101981  )
        19           N   tau(  19) = (  -0.1396886   2.1185813   6.8006771  )
        20           N   tau(  20) = (   0.0315378   0.8131164   5.4707600  )
        21           N   tau(  21) = (   0.2548765   0.8364555   0.6908869  )
        22           N   tau(  22) = (   0.3757399   2.1419204   3.3995922  )
        23           N   tau(  23) = (   0.0063563   1.7744743   7.4900712  )
        24           N   tau(  24) = (  -0.1145071   0.4690094   4.7813659  )
        25           C   tau(  25) = (   0.6229697   0.9588365   1.7681533  )
        26           C   tau(  26) = (   0.0076467   2.2643014   2.3223258  )
        27           C   tau(  27) = (  -0.3617369   1.6520934   6.4128048  )
        28           C   tau(  28) = (   0.2535861   0.3466284   5.8586323  )
        29           H   tau(  29) = (   0.8527416   1.1308430   1.8303339  )
        30           H   tau(  30) = (  -0.2221252   2.4363079   2.2601451  )
        31           H   tau(  31) = (  -0.5915088   1.4800868   6.3506241  )
        32           H   tau(  32) = (   0.4833580   0.1746219   5.9208129  )
        33           C   tau(  33) = (   0.6095722   0.7842334   1.4222845  )
        34           C   tau(  34) = (   0.0210442   2.0896984   2.6681946  )
        35           C   tau(  35) = (  -0.3483394   1.8266964   6.7586736  )
        36           C   tau(  36) = (   0.2401887   0.5212315   5.5127635  )
        37           N   tau(  37) = (  -0.0428387   0.2482860   0.3527800  )
        38           N   tau(  38) = (   0.6734552   1.5537509   3.7376990  )
        39           N   tau(  39) = (   0.3040716   2.3626439   7.8281780  )
        40           N   tau(  40) = (  -0.4122223   1.0571789   4.4432590  )
        41           N   tau(  41) = (   1.0241100   1.5514896   1.2717257  )
        42           N   tau(  42) = (  -0.3934935   0.2460247   2.8187533  )
        43           N   tau(  43) = (  -0.7628771   1.0594402   6.9092323  )
        44           N   tau(  44) = (   0.6547264   2.3649051   5.3622047  )
        45           C   tau(  45) = (   0.4560513   0.6551888   0.4250834  )
        46           C   tau(  46) = (   0.1745651   1.9606537   3.6653957  )
        47           C   tau(  47) = (  -0.1948184   1.9557411   7.7558747  )
        48           C   tau(  48) = (   0.0866677   0.6502761   4.5155624  )
        49           H   tau(  49) = (   0.6214308   0.8438407   0.2663929  )
        50           H   tau(  50) = (   0.0091856   2.1493056   3.8240861  )
        51           H   tau(  51) = (  -0.3601980   1.7670892   7.9145651  )
        52           H   tau(  52) = (   0.2520472   0.4616242   4.3568720  )
        53           C   tau(  53) = (   0.0719411   1.2048363   1.1390675  )
        54           C   tau(  54) = (   0.5586753   2.5103012   2.9514116  )
        55           C   tau(  55) = (   0.1892917   1.4060936   7.0418906  )
        56           C   tau(  56) = (  -0.2974425   0.1006286   5.2295465  )
        57           C   tau(  57) = (   0.5897054   1.6908756   1.0013357  )
        58           C   tau(  58) = (   0.0409110   0.3854107   3.0891433  )
        59           C   tau(  59) = (  -0.3284726   0.9200542   7.1796224  )
        60           C   tau(  60) = (   0.2203218   2.2255191   5.0918147  )
        61           H   tau(  61) = (   0.7207192   1.9339235   0.8892328  )
        62           H   tau(  62) = (  -0.0901028   0.6284586   3.2012463  )
        63           H   tau(  63) = (  -0.4594864   0.6770063   7.2917253  )
        64           H   tau(  64) = (   0.3513356   1.9824712   4.9797118  )
        65           N   tau(  65) = (   0.5393317   1.4299914   0.7532557  )
        66           N   tau(  66) = (   0.0912847   0.1245265   3.3372233  )
        67           N   tau(  67) = (  -0.2780989   1.1809384   7.4277024  )
        68           N   tau(  68) = (   0.1699481   2.4864034   4.8437347  )
        69           C   tau(  69) = (   0.3408147   1.1554974   0.8815980  )
        70           C   tau(  70) = (   0.2898017   2.4609624   3.2088811  )
        71           C   tau(  71) = (  -0.0795819   1.4554324   7.2993601  )
        72           C   tau(  72) = (  -0.0285689   0.1499675   4.9720770  )
        73           C   tau(  73) = (   0.1798265   0.4164803   1.6542325  )
        74           C   tau(  74) = (   0.4507899   1.7219453   2.4362466  )
        75           C   tau(  75) = (   0.0814063   2.1944495   6.5267256  )
        76           C   tau(  76) = (  -0.1895571   0.8889846   5.7447115  )
        77           H   tau(  77) = (   0.0227867   2.7763426   1.6389758  )
        78           H   tau(  78) = (   0.6078297   1.4708777   2.4515033  )
        79           H   tau(  79) = (   0.2384461  -0.1654128   6.5419823  )
        80           H   tau(  80) = (  -0.3465969   1.1400522   5.7294548  )
        81           C   tau(  81) = (   0.8369857   0.9081078   1.1303078  )
        82           C   tau(  82) = (  -0.2063693   2.2135727   2.9601712  )
        83           C   tau(  83) = (  -0.5757529   1.7028221   7.0506502  )
        84           C   tau(  84) = (   0.4676021   0.3973572   5.2207868  )
        85           C   tau(  85) = (   0.2489525   0.3890405   0.2250233  )
        86           C   tau(  86) = (   0.3816639   1.6945054   3.8654557  )
        87           C   tau(  87) = (   0.0122804   2.2218894   7.9559348  )
        88           C   tau(  88) = (  -0.1204311   0.9164245   4.3155023  )
        89           H   tau(  89) = (  -0.3931809   0.2837061   8.1466428  )
        90           H   tau(  90) = (   0.2850301   1.5891710   4.1247943  )
        91           H   tau(  91) = (   0.6544137   2.3272238   0.0343153  )
        92           H   tau(  92) = (  -0.0237973   1.0217588   4.0561638  )
        93           C   tau(  93) = (  -0.2090175   0.3984516   0.6486791  )
        94           C   tau(  94) = (   0.8396340   1.7039165   3.4418000  )
        95           C   tau(  95) = (   0.4702504   2.2124782   7.5322790  )
        96           C   tau(  96) = (  -0.5784011   0.9070133   4.7391581  )
        97           H   tau(  97) = (  -0.3755683   0.2143306   0.8121796  )
        98           H   tau(  98) = (   1.0061847   1.5197955   3.2782994  )
        99           H   tau(  99) = (   0.6368011   2.3965993   7.3687785  )
       100           H   tau( 100) = (  -0.7449519   1.0911343   4.9026586  )
       101           C   tau( 101) = (   0.1380855   0.6487549   1.9510185  )
       102           C   tau( 102) = (   0.4925309   1.9542199   2.1394605  )
       103           C   tau( 103) = (   0.1231473   1.9621749   6.2299396  )
       104           C   tau( 104) = (  -0.2312981   0.6567100   6.0414975  )
       105           H   tau( 105) = (  -0.0804483   0.6038237   2.1421114  )
       106           H   tau( 106) = (   0.7110648   1.9092886   1.9483676  )
       107           H   tau( 107) = (   0.3416812   2.0071061   6.0388467  )
       108           H   tau( 108) = (  -0.4498319   0.7016412   6.2325904  )

     number of k points=     6
                       cart. coord. in units 2pi/alat
        k(    1) = (   0.0000000   0.0000000   0.0000000), wk =   0.2000000
        k(    2) = (   0.0000000  -0.1915027   0.0000000), wk =   0.2000000
        k(    3) = (   0.2000000   0.0000000   0.0180607), wk =   0.4000000
        k(    4) = (   0.2000000  -0.1915027   0.0180607), wk =   0.4000000
        k(    5) = (   0.4000000   0.0000000   0.0361213), wk =   0.4000000
        k(    6) = (   0.4000000  -0.1915027   0.0361213), wk =   0.4000000

     Dense  grid:   968647 G-vectors     FFT dimensions: (  45, 120, 375)

     Estimated max dynamical RAM per process >    1000.09MB

     Estimated total allocated dynamical RAM >    8000.71MB

     Check: negative/imaginary core charge=   -0.000002    0.000000

     Initial potential from superposition of free atoms

     starting charge  359.99736, renormalised to  360.00000
     Starting wfc are  336 randomized atomic wfcs
     Checking if some PAW data can be deallocated... 

     total cpu time spent up to now is       60.6 secs

     per-process dynamical memory:   631.0 Mb

     Self-consistent Calculation

     iteration #  1     ecut=   100.00 Ry     beta=0.50
     Davidson diagonalization with overlap
     ethr =  1.00E-02,  avg # of iterations =  4.3

     total cpu time spent up to now is      230.4 secs

     total energy              =   -1670.98331583 Ry
     Harris-Foulkes estimate   =   -1676.05216793 Ry
     estimated scf accuracy    <      10.18018726 Ry

     iteration #  2     ecut=   100.00 Ry     beta=0.50
     Davidson diagonalization with overlap
     ethr =  2.83E-03,  avg # of iterations =  2.3

     total cpu time spent up to now is      314.5 secs

     total energy              =   -1671.11988327 Ry
     Harris-Foulkes estimate   =   -1671.92935137 Ry
     estimated scf accuracy    <       1.61277085 Ry

     iteration #  3     ecut=   100.00 Ry     beta=0.50
     Davidson diagonalization with overlap
     ethr =  4.48E-04,  avg # of iterations =  6.5

     total cpu time spent up to now is      502.5 secs

     total energy              =   -1672.07657703 Ry
     Harris-Foulkes estimate   =   -1672.51061740 Ry
     estimated scf accuracy    <       1.15785974 Ry

     iteration #  4     ecut=   100.00 Ry     beta=0.50
     Davidson diagonalization with overlap
     ethr =  3.22E-04,  avg # of iterations =  1.0

     total cpu time spent up to now is      580.3 secs

     total energy              =   -1672.07710279 Ry
     Harris-Foulkes estimate   =   -1672.19940350 Ry
     estimated scf accuracy    <       0.31735194 Ry

     iteration #  5     ecut=   100.00 Ry     beta=0.50
     Davidson diagonalization with overlap
     ethr =  8.82E-05,  avg # of iterations =  6.3

     total cpu time spent up to now is      718.8 secs

     total energy              =   -1672.18726955 Ry
     Harris-Foulkes estimate   =   -1672.21566597 Ry
     estimated scf accuracy    <       0.10802489 Ry

     iteration #  6     ecut=   100.00 Ry     beta=0.50
     Davidson diagonalization with overlap
     ethr =  3.00E-05,  avg # of iterations = 11.2

     total cpu time spent up to now is      825.1 secs

     total energy              =   -1672.19581454 Ry
     Harris-Foulkes estimate   =   -1672.21070597 Ry
     estimated scf accuracy    <       0.03348827 Ry

     iteration #  7     ecut=   100.00 Ry     beta=0.50
     Davidson diagonalization with overlap
     ethr =  9.30E-06,  avg # of iterations =  7.2

     total cpu time spent up to now is      929.8 secs

     total energy              =   -1672.19771870 Ry
     Harris-Foulkes estimate   =   -1672.20185096 Ry
     estimated scf accuracy    <       0.00789993 Ry

     iteration #  8     ecut=   100.00 Ry     beta=0.50
     Davidson diagonalization with overlap
     ethr =  2.19E-06,  avg # of iterations =  8.2

     total cpu time spent up to now is     1113.2 secs

     total energy              =   -1672.20166727 Ry
     Harris-Foulkes estimate   =   -1672.20216804 Ry
     estimated scf accuracy    <       0.00150958 Ry

     iteration #  9     ecut=   100.00 Ry     beta=0.50
     Davidson diagonalization with overlap
     ethr =  4.19E-07,  avg # of iterations =  2.0

     total cpu time spent up to now is     1193.2 secs

     total energy              =   -1672.20163213 Ry
     Harris-Foulkes estimate   =   -1672.20182665 Ry
     estimated scf accuracy    <       0.00047935 Ry

     iteration # 10     ecut=   100.00 Ry     beta=0.50
     Davidson diagonalization with overlap
     ethr =  1.33E-07,  avg # of iterations =  4.0

     total cpu time spent up to now is     1328.0 secs

     total energy              =   -1672.20177182 Ry
     Harris-Foulkes estimate   =   -1672.20194541 Ry
     estimated scf accuracy    <       0.00068236 Ry

     iteration # 11     ecut=   100.00 Ry     beta=0.50
     Davidson diagonalization with overlap
     ethr =  1.33E-07,  avg # of iterations =  1.0

     total cpu time spent up to now is     1405.2 secs

     total energy              =   -1672.20181415 Ry
     Harris-Foulkes estimate   =   -1672.20184747 Ry
     estimated scf accuracy    <       0.00008316 Ry

     iteration # 12     ecut=   100.00 Ry     beta=0.50
     Davidson diagonalization with overlap
     ethr =  2.31E-08,  avg # of iterations =  4.0

     total cpu time spent up to now is     1542.8 secs

     total energy              =   -1672.20185175 Ry
     Harris-Foulkes estimate   =   -1672.20185854 Ry
     estimated scf accuracy    <       0.00002376 Ry

     iteration # 13     ecut=   100.00 Ry     beta=0.50
     Davidson diagonalization with overlap
     ethr =  6.60E-09,  avg # of iterations =  1.5

     total cpu time spent up to now is     1621.8 secs

     total energy              =   -1672.20185129 Ry
     Harris-Foulkes estimate   =   -1672.20185393 Ry
     estimated scf accuracy    <       0.00000706 Ry

     iteration # 14     ecut=   100.00 Ry     beta=0.50
     Davidson diagonalization with overlap
     ethr =  1.96E-09,  avg # of iterations =  4.0

     total cpu time spent up to now is     1753.6 secs

     total energy              =   -1672.20185416 Ry
     Harris-Foulkes estimate   =   -1672.20185449 Ry
     estimated scf accuracy    <       0.00000092 Ry

     iteration # 15     ecut=   100.00 Ry     beta=0.50
     Davidson diagonalization with overlap
     ethr =  2.56E-10,  avg # of iterations =  3.0

     total cpu time spent up to now is     1852.5 secs

     total energy              =   -1672.20185426 Ry
     Harris-Foulkes estimate   =   -1672.20185436 Ry
     estimated scf accuracy    <       0.00000025 Ry

     iteration # 16     ecut=   100.00 Ry     beta=0.50
     Davidson diagonalization with overlap
     ethr =  6.87E-11,  avg # of iterations =  4.0

     total cpu time spent up to now is     1988.0 secs

     total energy              =   -1672.20185436 Ry
     Harris-Foulkes estimate   =   -1672.20185438 Ry
     estimated scf accuracy    <       0.00000008 Ry

     iteration # 17     ecut=   100.00 Ry     beta=0.50
     Davidson diagonalization with overlap
     ethr =  2.09E-11,  avg # of iterations =  1.8

     total cpu time spent up to now is     2067.9 secs

     total energy              =   -1672.20185436 Ry
     Harris-Foulkes estimate   =   -1672.20185437 Ry
     estimated scf accuracy    <       0.00000002 Ry

     iteration # 18     ecut=   100.00 Ry     beta=0.50
     Davidson diagonalization with overlap
     ethr =  5.44E-12,  avg # of iterations =  4.0

     total cpu time spent up to now is     2206.0 secs

     End of self-consistent calculation

          k = 0.0000 0.0000 0.0000 (120889 PWs)   bands (ev):

   -19.2183 -19.2180 -19.2161 -19.2158 -17.7173 -17.7114 -17.7085 -17.7023
   -17.5495 -17.5493 -17.5445 -17.5444 -16.5652 -16.5619 -16.5204 -16.5170
   -15.6465 -15.6461 -15.6334 -15.6329 -15.0658 -15.0644 -15.0632 -15.0618
   -13.5205 -13.5195 -13.5130 -13.5120 -11.8746 -11.8602 -11.8469 -11.8306
   -11.6075 -11.6049 -11.5979 -11.5972 -10.6931 -10.6706 -10.6497 -10.6244
   -10.2728 -10.2602 -10.2598 -10.2501  -9.3158  -9.3127  -9.3107  -9.3075
    -9.1221  -9.1193  -9.0712  -9.0677  -8.6296  -8.6260  -8.5934  -8.5906
    -8.3133  -8.3086  -8.2943  -8.2912  -7.4265  -7.4262  -7.4058  -7.4055
    -6.6068  -6.6012  -6.5108  -6.5031  -6.3848  -6.3797  -6.3644  -6.3593
    -5.8655  -5.8602  -5.7870  -5.7818  -5.6214  -5.5967  -5.5924  -5.5537
    -5.5460  -5.5241  -5.4768  -5.4731  -5.1039  -5.0945  -5.0755  -5.0678
    -4.9428  -4.9409  -4.9079  -4.9075  -4.5004  -4.4981  -4.3228  -4.3011
    -4.1109  -4.0330  -3.9391  -3.8969  -3.8314  -3.7788  -3.7495  -3.7043
    -3.4468  -3.4265  -3.3283  -3.3224  -3.2012  -3.1883  -3.1369  -3.0671
    -3.0507  -2.9510  -2.8355  -2.8094  -2.6555  -2.6328  -2.6325  -2.6111
    -2.4935  -2.4866  -2.4585  -2.4476  -2.3316  -2.3219  -2.2950  -2.2886
    -2.1598  -2.1523  -2.1475  -2.1440  -1.8025  -1.8002  -1.7641  -1.7588
    -1.6047  -1.5910  -1.5075  -1.4915  -1.0850  -1.0619  -1.0607  -1.0439
    -0.7369  -0.7288  -0.7125  -0.6967  -0.3653  -0.3627  -0.3095  -0.3093
    -0.1834  -0.1833  -0.0740  -0.0735   0.0481   0.0519   0.0828   0.0877
     0.7021   0.7030   0.7088   0.7089   1.2238   1.2361   1.2802   1.2924
     1.3924   1.3950   1.5249   1.5736   1.5905   1.6575   1.8244   1.8390
     2.2596   2.2616   2.2667   2.2682   4.3159   4.3174   4.3390   4.3409
     4.5994   4.6489   4.7342   4.8001   5.3296   5.3683   5.4448   5.4667
     6.0158   6.0261   6.1641   6.1724   6.7241   6.7662   6.8537   6.9370
     7.1684   7.1952   7.4787   7.5177   7.5289   7.5374   7.9397   7.9529
     8.0386   8.1705   8.2294   8.3217   8.3837   8.6959   8.7893   9.0623

          k = 0.0000-0.1915 0.0000 (121014 PWs)   bands (ev):

   -19.2179 -19.2178 -19.2161 -19.2160 -17.7134 -17.7133 -17.7066 -17.7066
   -17.5473 -17.5473 -17.5472 -17.5472 -16.5629 -16.5629 -16.5185 -16.5184
   -15.6399 -15.6399 -15.6394 -15.6394 -15.0648 -15.0648 -15.0627 -15.0627
   -13.5195 -13.5195 -13.5128 -13.5127 -11.8678 -11.8677 -11.8373 -11.8372
   -11.6015 -11.6015 -11.5991 -11.5991 -10.6752 -10.6751 -10.6517 -10.6517
   -10.2673 -10.2673 -10.2626 -10.2626  -9.3151  -9.3151  -9.3111  -9.3110
    -9.1009  -9.1009  -9.0961  -9.0960  -8.6002  -8.6001  -8.5959  -8.5959
    -8.2981  -8.2980  -8.2939  -8.2938  -7.4168  -7.4167  -7.4140  -7.4140
    -6.5921  -6.5920  -6.5144  -6.5144  -6.3765  -6.3764  -6.3648  -6.3647
    -5.8507  -5.8507  -5.8466  -5.8466  -5.6235  -5.6235  -5.5801  -5.5801
    -5.4875  -5.4874  -5.4722  -5.4722  -5.0936  -5.0935  -5.0849  -5.0849
    -4.9374  -4.9374  -4.9330  -4.9329  -4.5267  -4.5266  -4.3046  -4.3045
    -4.0548  -4.0547  -3.9105  -3.9104  -3.7788  -3.7787  -3.7187  -3.7186
    -3.3875  -3.3874  -3.3700  -3.3699  -3.1985  -3.1985  -3.0783  -3.0783
    -2.9175  -2.9174  -2.8807  -2.8807  -2.6758  -2.6757  -2.6459  -2.6458
    -2.4619  -2.4619  -2.4544  -2.4543  -2.3466  -2.3465  -2.3426  -2.3425
    -2.1664  -2.1663  -2.1636  -2.1635  -1.7818  -1.7818  -1.7811  -1.7811
    -1.5320  -1.5319  -1.5241  -1.5240  -1.0678  -1.0677  -1.0455  -1.0454
    -0.7166  -0.7166  -0.7143  -0.7143  -0.3287  -0.3287  -0.3260  -0.3259
    -0.1386  -0.1386  -0.1382  -0.1382   0.0714   0.0714   0.0784   0.0784
     0.7108   0.7108   0.7192   0.7192   1.2087   1.2088   1.3053   1.3053
     1.3789   1.3789   1.5672   1.5673   1.7159   1.7159   1.7398   1.7399
     2.2519   2.2519   2.2539   2.2539   4.3330   4.3330   4.3338   4.3338
     4.6568   4.6569   4.7150   4.7151   5.3362   5.3362   5.4413   5.4414
     6.0800   6.0800   6.1308   6.1308   6.6599   6.6599   6.8128   6.8129
     7.4074   7.4074   7.4321   7.4322   7.5661   7.5661   7.8490   7.8490
     8.1879   8.1879   8.2534   8.2534   8.3954   8.3955   8.8282   8.8285

          k = 0.2000 0.0000 0.0181 (121069 PWs)   bands (ev):

   -19.0495 -19.0493 -19.0475 -19.0473 -17.5302 -17.5260 -17.5169 -17.5123
   -17.4161 -17.4156 -17.4136 -17.4135 -16.4646 -16.4627 -16.4210 -16.4191
   -15.5690 -15.5690 -15.5581 -15.5580 -15.2707 -15.2689 -15.2662 -15.2645
   -13.7105 -13.7093 -13.7059 -13.7047 -12.3669 -12.3645 -12.3507 -12.3483
   -11.8705 -11.8649 -11.8330 -11.8274 -10.8369 -10.8331 -10.8285 -10.8253
   -10.2707 -10.2515 -10.2263 -10.2072  -9.4260  -9.4222  -9.3878  -9.3843
    -9.0876  -9.0822  -9.0469  -9.0409  -8.6770  -8.6733  -8.6482  -8.6463
    -8.4902  -8.4815  -8.4618  -8.4547  -7.4663  -7.4603  -7.4483  -7.4426
    -6.6770  -6.6730  -6.6201  -6.6162  -6.3476  -6.3452  -6.3234  -6.3210
    -5.8444  -5.8435  -5.7589  -5.7551  -5.6142  -5.5851  -5.5280  -5.4925
    -5.2949  -5.2924  -5.1876  -5.1707  -5.1291  -5.1178  -5.0852  -5.0760
    -4.8366  -4.8355  -4.8111  -4.8109  -4.5075  -4.4948  -4.4428  -4.4368
    -4.3427  -4.3377  -4.2060  -4.1994  -3.9299  -3.9149  -3.8886  -3.8697
    -3.5563  -3.5467  -3.3802  -3.3764  -3.3148  -3.2927  -3.2788  -3.2596
    -2.9983  -2.9902  -2.9317  -2.9253  -2.8438  -2.8360  -2.8056  -2.7916
    -2.7167  -2.7145  -2.6329  -2.6324  -2.4386  -2.4214  -2.3691  -2.3546
    -2.0682  -2.0472  -2.0342  -2.0205  -1.9712  -1.9486  -1.8774  -1.8503
    -1.0226  -1.0138  -0.9750  -0.9664  -0.7152  -0.7118  -0.6962  -0.6946
    -0.4427  -0.4417  -0.4145  -0.3937  -0.3659  -0.3292  -0.2975  -0.2808
     0.1109   0.1237   0.2142   0.2158   0.3652   0.3723   0.4184   0.4361
     1.0721   1.0734   1.0946   1.0951   1.1601   1.1683   1.4154   1.4329
     1.5871   1.5936   1.6826   1.6832   1.7594   1.7781   1.8515   1.8679
     2.4153   2.4193   2.4705   2.4755   4.5579   4.5582   4.6609   4.6614
     5.0652   5.0704   5.2291   5.2359   5.5572   5.5592   5.6337   5.6540
     5.7649   5.8157   5.9086   5.9358   6.6328   6.6579   6.7221   6.7403
     7.2042   7.2111   7.2379   7.2669   7.4678   7.4807   7.6814   7.7308
     7.8297   7.8688   8.3836   8.4335   8.7087   8.7773   9.1411   9.2373

          k = 0.2000-0.1915 0.0181 (121062 PWs)   bands (ev):

   -19.0493 -19.0492 -19.0476 -19.0475 -17.5242 -17.5242 -17.5186 -17.5185
   -17.4155 -17.4154 -17.4147 -17.4146 -16.4631 -16.4630 -16.4199 -16.4198
   -15.5636 -15.5636 -15.5635 -15.5634 -15.2684 -15.2683 -15.2667 -15.2667
   -13.7100 -13.7099 -13.7054 -13.7053 -12.3646 -12.3646 -12.3482 -12.3482
   -11.8569 -11.8568 -11.8443 -11.8442 -10.8349 -10.8349 -10.8270 -10.8270
   -10.2599 -10.2598 -10.2188 -10.2187  -9.4117  -9.4116  -9.4053  -9.4052
    -9.0665  -9.0664  -9.0592  -9.0591  -8.6666  -8.6666  -8.6580  -8.6580
    -8.4745  -8.4744  -8.4597  -8.4596  -7.4608  -7.4608  -7.4488  -7.4487
    -6.6758  -6.6758  -6.6151  -6.6150  -6.3534  -6.3533  -6.3307  -6.3306
    -5.8109  -5.8108  -5.8098  -5.8098  -5.5494  -5.5494  -5.5190  -5.5190
    -5.2546  -5.2545  -5.2217  -5.2217  -5.1224  -5.1224  -5.0843  -5.0842
    -4.8137  -4.8137  -4.8120  -4.8120  -4.4731  -4.4730  -4.4581  -4.4580
    -4.3557  -4.3556  -4.2074  -4.2073  -3.9429  -3.9428  -3.9159  -3.9158
    -3.5517  -3.5517  -3.3656  -3.3655  -3.2977  -3.2976  -3.2724  -3.2723
    -2.9648  -2.9647  -2.9048  -2.9048  -2.8352  -2.8351  -2.8115  -2.8115
    -2.7022  -2.7021  -2.6590  -2.6590  -2.4180  -2.4179  -2.3853  -2.3853
    -2.0720  -2.0719  -2.0141  -2.0140  -1.9319  -1.9319  -1.8863  -1.8862
    -1.0102  -1.0102  -0.9923  -0.9922  -0.7018  -0.7017  -0.6900  -0.6900
    -0.4502  -0.4501  -0.4140  -0.4140  -0.3315  -0.3314  -0.2947  -0.2947
     0.1455   0.1456   0.1604   0.1604   0.4102   0.4103   0.4169   0.4170
     1.0786   1.0786   1.0853   1.0854   1.1730   1.1731   1.4238   1.4238
     1.6545   1.6545   1.6591   1.6591   1.7737   1.7738   1.8051   1.8052
     2.4506   2.4507   2.4538   2.4539   4.5963   4.5964   4.6071   4.6072
     5.1297   5.1298   5.1741   5.1741   5.5822   5.5823   5.5891   5.5891
     5.8111   5.8111   5.9222   5.9223   6.6648   6.6649   6.6900   6.6900
     7.0649   7.0649   7.2408   7.2409   7.6760   7.6760   7.7557   7.7558
     7.9358   7.9359   8.3046   8.3046   8.6695   8.6695   9.0762   9.0762

          k = 0.4000 0.0000 0.0361 (121240 PWs)   bands (ev):

   -18.7136 -18.7135 -18.7123 -18.7122 -17.2309 -17.2309 -17.2158 -17.2158
   -17.0478 -17.0472 -17.0413 -17.0408 -16.3151 -16.3140 -16.2782 -16.2769
   -15.7849 -15.7837 -15.7804 -15.7793 -15.4034 -15.4034 -15.3915 -15.3915
   -14.2208 -14.2203 -14.2177 -14.2172 -12.7811 -12.7776 -12.7615 -12.7578
   -12.1746 -12.1641 -12.1587 -12.1481 -11.4495 -11.4333 -11.4216 -11.4054
   -10.2019 -10.1857 -10.1698 -10.1528  -9.6010  -9.5875  -9.5595  -9.5469
    -9.2073  -9.1977  -9.1887  -9.1790  -8.6954  -8.6868  -8.6791  -8.6703
    -8.3282  -8.3242  -8.3015  -8.2980  -7.5350  -7.5272  -7.5180  -7.5106
    -6.6372  -6.6340  -6.6091  -6.6074  -6.3368  -6.3308  -6.3243  -6.3185
    -5.8989  -5.8974  -5.8442  -5.8408  -5.7300  -5.7175  -5.7070  -5.6925
    -5.3101  -5.3090  -5.1089  -5.1073  -4.9902  -4.9829  -4.9559  -4.9533
    -4.8511  -4.8474  -4.7703  -4.7674  -4.6269  -4.5865  -4.5465  -4.5381
    -4.3719  -4.3164  -4.2994  -4.2843  -4.1977  -4.1889  -4.1621  -4.1497
    -3.8895  -3.8795  -3.8370  -3.8253  -3.4503  -3.4431  -3.3794  -3.3719
    -3.1476  -3.1456  -3.1092  -3.1091  -2.8787  -2.8714  -2.8223  -2.8067
    -2.7595  -2.7435  -2.6859  -2.6826  -2.5724  -2.5251  -2.4752  -2.4243
    -2.2382  -2.2037  -2.1599  -2.1393  -1.8684  -1.8570  -1.8369  -1.8049
    -0.9250  -0.8976  -0.7936  -0.7881  -0.5613  -0.5302  -0.4728  -0.4571
    -0.0323  -0.0237   0.0111   0.0207   0.2351   0.2441   0.2524   0.2648
     0.5604   0.5660   0.6283   0.6326   0.9595   0.9622   1.0456   1.0580
     1.2845   1.3094   1.3611   1.3965   1.6443   1.6540   1.6970   1.7156
     1.8736   1.8739   1.9136   1.9179   2.5957   2.6009   2.7210   2.7254
     3.1583   3.1654   3.2039   3.2119   4.4804   4.4850   4.5459   4.5561
     5.0383   5.0607   5.1003   5.1278   5.1692   5.1958   5.2694   5.2947
     6.1425   6.1478   6.3216   6.3284   7.0943   7.1023   7.1166   7.1233
     7.4280   7.4358   7.5568   7.5731   8.0743   8.0847   8.1687   8.1764
     8.4818   8.4871   8.6357   8.6529   8.6821   8.7629   8.9712   9.0258

          k = 0.4000-0.1915 0.0361 (121202 PWs)   bands (ev):

   -18.7135 -18.7135 -18.7123 -18.7122 -17.2236 -17.2235 -17.2232 -17.2232
   -17.0472 -17.0471 -17.0417 -17.0416 -16.3143 -16.3143 -16.2774 -16.2774
   -15.7842 -15.7841 -15.7802 -15.7801 -15.3974 -15.3974 -15.3974 -15.3973
   -14.2210 -14.2209 -14.2175 -14.2174 -12.7708 -12.7707 -12.7680 -12.7679
   -12.1693 -12.1693 -12.1539 -12.1538 -11.4340 -11.4339 -11.4195 -11.4194
   -10.1875 -10.1874 -10.1664 -10.1663  -9.5792  -9.5792  -9.5648  -9.5648
    -9.2045  -9.2045  -9.1822  -9.1821  -8.6918  -8.6917  -8.6816  -8.6815
    -8.3170  -8.3169  -8.3140  -8.3139  -7.5290  -7.5289  -7.5171  -7.5171
    -6.6325  -6.6324  -6.6176  -6.6175  -6.3342  -6.3341  -6.3259  -6.3258
    -5.8779  -5.8778  -5.8571  -5.8571  -5.7208  -5.7207  -5.7040  -5.7040
    -5.2213  -5.2213  -5.2044  -5.2044  -4.9806  -4.9805  -4.9537  -4.9537
    -4.7914  -4.7914  -4.7855  -4.7854  -4.6039  -4.6038  -4.5337  -4.5337
    -4.3297  -4.3296  -4.2923  -4.2922  -4.1824  -4.1824  -4.1767  -4.1767
    -3.8723  -3.8722  -3.8520  -3.8520  -3.4546  -3.4546  -3.4239  -3.4238
    -3.1274  -3.1273  -3.1231  -3.1231  -2.8873  -2.8872  -2.8451  -2.8450
    -2.7099  -2.7099  -2.6800  -2.6800  -2.5206  -2.5206  -2.4540  -2.4540
    -2.2382  -2.2382  -2.1645  -2.1644  -1.8440  -1.8439  -1.8156  -1.8155
    -0.8609  -0.8609  -0.8439  -0.8438  -0.5265  -0.5265  -0.5054  -0.5053
    -0.0080  -0.0080   0.0025   0.0025   0.2482   0.2482   0.2557   0.2557
     0.5925   0.5925   0.5982   0.5983   0.9630   0.9631   1.0612   1.0612
     1.3202   1.3202   1.3704   1.3705   1.6819   1.6820   1.7010   1.7011
     1.8724   1.8725   1.8890   1.8890   2.6554   2.6555   2.6598   2.6599
     3.1647   3.1648   3.1763   3.1763   4.5182   4.5182   4.5254   4.5254
     5.0831   5.0832   5.1254   5.1254   5.1821   5.1822   5.2079   5.2079
     6.2451   6.2452   6.2562   6.2563   7.0894   7.0895   7.1164   7.1165
     7.5243   7.5244   7.5507   7.5507   8.1427   8.1427   8.2949   8.2950
     8.4841   8.4841   8.5736   8.5737   8.6800   8.6800   8.8658   8.8658

     highest occupied, lowest unoccupied level (ev):     3.2119    4.3159

!    total energy              =   -1672.20185437 Ry
     Harris-Foulkes estimate   =   -1672.20185437 Ry
     estimated scf accuracy    <          5.6E-09 Ry

     total all-electron energy =     -6627.106216 Ry

     The total energy is the sum of the following terms:

     one-electron contribution =   -1571.06734016 Ry
     hartree contribution      =     930.27261113 Ry
     xc contribution           =    -370.73563593 Ry
     ewald contribution        =    -115.26294558 Ry
     Dispersion Correction     =      -0.65944398 Ry
     one-center paw contrib.   =    -544.74909984 Ry

     convergence has been achieved in  18 iterations

     Forces acting on atoms (cartesian axes, Ry/au):

     atom    1 type  2   force =    -0.01288047   -0.00265728    0.01684424
     atom    2 type  2   force =     0.01287972   -0.00265533   -0.01684809
     atom    3 type  2   force =     0.01288047    0.00265728   -0.01684424
     atom    4 type  2   force =    -0.01287972    0.00265533    0.01684809
     atom    5 type  1   force =     0.05591252    0.04903626   -0.06143963
     atom    6 type  1   force =    -0.05591401    0.04903587    0.06144132
     atom    7 type  1   force =    -0.05591252   -0.04903626    0.06143963
     atom    8 type  1   force =     0.05591401   -0.04903587   -0.06144132
     atom    9 type  3   force =    -0.00312335   -0.00292824    0.00714841
     atom   10 type  3   force =     0.00312321   -0.00292940   -0.00714779
     atom   11 type  3   force =     0.00312335    0.00292824   -0.00714841
     atom   12 type  3   force =    -0.00312321    0.00292940    0.00714779
     atom   13 type  1   force =    -0.01997657   -0.02425954    0.04792636
     atom   14 type  1   force =     0.01997435   -0.02425760   -0.04793299
     atom   15 type  1   force =     0.01997657    0.02425954   -0.04792636
     atom   16 type  1   force =    -0.01997435    0.02425760    0.04793299
     atom   17 type  2   force =     0.01126427   -0.03073986   -0.00351131
     atom   18 type  2   force =    -0.01126294   -0.03073485    0.00350371
     atom   19 type  2   force =    -0.01126427    0.03073986    0.00351131
     atom   20 type  2   force =     0.01126294    0.03073485   -0.00350371
     atom   21 type  2   force =     0.01462318    0.06221858   -0.01678341
     atom   22 type  2   force =    -0.01462328    0.06221667    0.01678278
     atom   23 type  2   force =    -0.01462318   -0.06221858    0.01678341
     atom   24 type  2   force =     0.01462328   -0.06221667   -0.01678278
     atom   25 type  1   force =     0.00074150    0.03937487   -0.05294479
     atom   26 type  1   force =    -0.00074182    0.03937448    0.05295143
     atom   27 type  1   force =    -0.00074150   -0.03937487    0.05294479
     atom   28 type  1   force =     0.00074182   -0.03937448   -0.05295143
     atom   29 type  3   force =    -0.01039113    0.02929994   -0.00826278
     atom   30 type  3   force =     0.01039159    0.02929959    0.00826284
     atom   31 type  3   force =     0.01039113   -0.02929994    0.00826278
     atom   32 type  3   force =    -0.01039159   -0.02929959   -0.00826284
     atom   33 type  1   force =    -0.00009447    0.03187539    0.02218519
     atom   34 type  1   force =     0.00009436    0.03187628   -0.02217242
     atom   35 type  1   force =     0.00009447   -0.03187539   -0.02218519
     atom   36 type  1   force =    -0.00009436   -0.03187628    0.02217242
     atom   37 type  2   force =     0.03451346   -0.05429839   -0.06068689
     atom   38 type  2   force =    -0.03451856   -0.05429014    0.06068228
     atom   39 type  2   force =    -0.03451346    0.05429839    0.06068689
     atom   40 type  2   force =     0.03451856    0.05429014   -0.06068228
     atom   41 type  2   force =    -0.02103643   -0.09521386    0.06816934
     atom   42 type  2   force =     0.02103272   -0.09521528   -0.06816710
     atom   43 type  2   force =     0.02103643    0.09521386   -0.06816934
     atom   44 type  2   force =    -0.02103272    0.09521528    0.06816710
     atom   45 type  1   force =     0.05394479    0.01592162    0.01873040
     atom   46 type  1   force =    -0.05394458    0.01592289   -0.01873337
     atom   47 type  1   force =    -0.05394479   -0.01592162   -0.01873040
     atom   48 type  1   force =     0.05394458   -0.01592289    0.01873337
     atom   49 type  3   force =    -0.00026289    0.00305475   -0.00679821
     atom   50 type  3   force =     0.00026401    0.00305378    0.00679723
     atom   51 type  3   force =     0.00026289   -0.00305475    0.00679821
     atom   52 type  3   force =    -0.00026401   -0.00305378   -0.00679723
     atom   53 type  1   force =     0.01465493    0.05877892    0.03744337
     atom   54 type  1   force =    -0.01465403    0.05878218   -0.03743945
     atom   55 type  1   force =    -0.01465493   -0.05877892   -0.03744337
     atom   56 type  1   force =     0.01465403   -0.05878218    0.03743945
     atom   57 type  1   force =    -0.05857681    0.05228183   -0.01832259
     atom   58 type  1   force =     0.05857936    0.05228189    0.01831639
     atom   59 type  1   force =     0.05857681   -0.05228183    0.01832259
     atom   60 type  1   force =    -0.05857936   -0.05228189   -0.01831639
     atom   61 type  3   force =     0.00544919   -0.00085581    0.01037764
     atom   62 type  3   force =    -0.00544921   -0.00085605   -0.01037793
     atom   63 type  3   force =    -0.00544919    0.00085581   -0.01037764
     atom   64 type  3   force =     0.00544921    0.00085605    0.01037793
     atom   65 type  2   force =     0.02081555    0.00655681   -0.01874953
     atom   66 type  2   force =    -0.02081182    0.00655714    0.01873904
     atom   67 type  2   force =    -0.02081555   -0.00655681    0.01874953
     atom   68 type  2   force =     0.02081182   -0.00655714   -0.01873904
     atom   69 type  1   force =    -0.01513011    0.01243322   -0.07151967
     atom   70 type  1   force =     0.01512941    0.01243338    0.07152714
     atom   71 type  1   force =     0.01513011   -0.01243322    0.07151967
     atom   72 type  1   force =    -0.01512941   -0.01243338   -0.07152714
     atom   73 type  1   force =    -0.00338522   -0.02853358    0.02500205
     atom   74 type  1   force =     0.00338508   -0.02853138   -0.02501645
     atom   75 type  1   force =     0.00338522    0.02853358   -0.02500205
     atom   76 type  1   force =    -0.00338508    0.02853138    0.02501645
     atom   77 type  3   force =    -0.00172610    0.00187340   -0.00068541
     atom   78 type  3   force =     0.00172624    0.00187378    0.00068473
     atom   79 type  3   force =     0.00172610   -0.00187340    0.00068541
     atom   80 type  3   force =    -0.00172624   -0.00187378   -0.00068473
     atom   81 type  1   force =     0.00311921   -0.05650441    0.01643255
     atom   82 type  1   force =    -0.00311912   -0.05650248   -0.01644450
     atom   83 type  1   force =    -0.00311921    0.05650441   -0.01643255
     atom   84 type  1   force =     0.00311912    0.05650248    0.01644450
     atom   85 type  1   force =    -0.02934759   -0.02510581   -0.02028575
     atom   86 type  1   force =     0.02934893   -0.02510566    0.02029220
     atom   87 type  1   force =     0.02934759    0.02510581    0.02028575
     atom   88 type  1   force =    -0.02934893    0.02510566   -0.02029220
     atom   89 type  3   force =     0.00770429   -0.00109855    0.00066274
     atom   90 type  3   force =    -0.00770479   -0.00109859   -0.00066202
     atom   91 type  3   force =    -0.00770429    0.00109855   -0.00066274
     atom   92 type  3   force =     0.00770479    0.00109859    0.00066202
     atom   93 type  1   force =    -0.07568946    0.03314363    0.02927007
     atom   94 type  1   force =     0.07568896    0.03314327   -0.02927709
     atom   95 type  1   force =     0.07568946   -0.03314363   -0.02927007
     atom   96 type  1   force =    -0.07568896   -0.03314327    0.02927709
     atom   97 type  3   force =     0.00137059   -0.00367757    0.00285452
     atom   98 type  3   force =    -0.00137005   -0.00367796   -0.00285487
     atom   99 type  3   force =    -0.00137059    0.00367757   -0.00285452
     atom  100 type  3   force =     0.00137005    0.00367796    0.00285487
     atom  101 type  1   force =     0.01996764   -0.05433437    0.02318462
     atom  102 type  1   force =    -0.01996762   -0.05433430   -0.02318177
     atom  103 type  1   force =    -0.01996764    0.05433437   -0.02318462
     atom  104 type  1   force =     0.01996762    0.05433430    0.02318177
     atom  105 type  3   force =     0.00612935   -0.01329967    0.01786347
     atom  106 type  3   force =    -0.00613029   -0.01329959   -0.01786298
     atom  107 type  3   force =    -0.00612935    0.01329967   -0.01786347
     atom  108 type  3   force =     0.00613029    0.01329959    0.01786298

     Total force =     0.593542     Total SCF correction =     0.000220


     Computing stress (Cartesian axis) and pressure

          total   stress  (Ry/bohr**3)                   (kbar)     P=   90.86
   0.00107629  -0.00000000  -0.00001160        158.33     -0.00     -1.71
  -0.00000000   0.00043492   0.00000000         -0.00     63.98      0.00
  -0.00001160   0.00000000   0.00034184         -1.71      0.00     50.29


     Writing output data file scf.save
 
     init_run     :     58.33s CPU     59.92s WALL (       1 calls)
     electrons    :   2079.93s CPU   2145.51s WALL (       1 calls)
     forces       :     29.68s CPU     29.92s WALL (       1 calls)
     stress       :    129.59s CPU    129.98s WALL (       1 calls)

     Called by init_run:
     wfcinit      :     46.19s CPU     47.62s WALL (       1 calls)
     potinit      :      4.25s CPU      4.28s WALL (       1 calls)

     Called by electrons:
     c_bands      :   1879.58s CPU   1935.21s WALL (      18 calls)
     sum_band     :    182.01s CPU    190.16s WALL (      18 calls)
     v_of_rho     :      2.62s CPU      2.84s WALL (      19 calls)
     newd         :      6.86s CPU      8.41s WALL (      19 calls)
     PAW_pot      :      8.21s CPU      8.22s WALL (      19 calls)
     mix_rho      :      0.64s CPU      0.70s WALL (      18 calls)

     Called by c_bands:
     init_us_2    :      7.93s CPU      7.98s WALL (     234 calls)
     cegterg      :   1839.17s CPU   1894.74s WALL (     108 calls)

     Called by sum_band:
     sum_band:bec :      0.11s CPU      0.11s WALL (     108 calls)
     addusdens    :      7.27s CPU      8.75s WALL (      18 calls)

     Called by *egterg:
     h_psi        :    922.32s CPU    965.22s WALL (     572 calls)
     s_psi        :    235.65s CPU    235.66s WALL (     572 calls)
     g_psi        :      4.01s CPU      4.00s WALL (     458 calls)
     cdiaghg      :    114.02s CPU    114.01s WALL (     566 calls)

     Called by h_psi:
     h_psi:pot    :    916.89s CPU    959.70s WALL (     572 calls)
     h_psi:calbec :    242.93s CPU    243.33s WALL (     572 calls)
     vloc_psi     :    439.03s CPU    481.42s WALL (     572 calls)
     add_vuspsi   :    234.94s CPU    234.95s WALL (     572 calls)

     General routines
     calbec       :    357.19s CPU    357.78s WALL (     710 calls)
     fft          :      4.58s CPU      4.94s WALL (     271 calls)
     fftw         :    479.71s CPU    528.45s WALL (  157836 calls)
 
     Parallel routines
     fft_scatter  :    148.84s CPU    196.89s WALL (  158107 calls)
 
     PWSCF        : 38m28.21s CPU    40m13.17s WALL

 
   This run was terminated on:  10: 4:27   7Dec2017            

=------------------------------------------------------------------------------=
   JOB DONE.
=------------------------------------------------------------------------------=
