
     Program PWSCF v.6.1 (svn rev. 13369) starts on 21Dec2017 at 14:58:32 

     This program is part of the open-source Quantum ESPRESSO suite
     for quantum simulation of materials; please cite
         "P. Giannozzi et al., J. Phys.:Condens. Matter 21 395502 (2009);
          URL http://www.quantum-espresso.org", 
     in publications or presentations arising from this work. More details at
     http://www.quantum-espresso.org/quote

     Parallel version (MPI), running on     8 processors
     R & G space division:  proc/nbgrp/npool/nimage =       8
     Waiting for input...
     Reading input from standard input

     Current dimensions of program PWSCF are:
     Max number of different atomic species (ntypx) = 10
     Max number of k-points (npk) =  40000
     Max angular momentum in pseudopotentials (lmaxx) =  3
               file C.pbe-n-kjpaw_psl.0.1.UPF: wavefunction(s)  2P renormalized
               file N.pbe-n-kjpaw_psl.0.1.UPF: wavefunction(s)  2P renormalized
               file H.pbe-kjpaw_psl.0.1.UPF: wavefunction(s)  1S renormalized
               file O.pbe-n-kjpaw_psl.0.1.UPF: wavefunction(s)  2P renormalized

     -------------------------------------
     Parameters for Dispersion Correction:
     -------------------------------------
       atom      VdW radius       C_6     

        C          2.744         60.710
        N          2.640         42.670
        H          1.892          4.857
        O          2.536         24.284

     Subspace diagonalization in iterative solution of the eigenvalue problem:
     a serial algorithm will be used

 
     Parallelization info
     --------------------
     sticks:   dense  smooth     PW     G-vecs:    dense   smooth      PW
     Min        1401    1401    368                96993    96993   13070
     Max        1402    1402    369                96996    96996   13071
     Sum       11215   11215   2947               775961   775961  104563
 


     bravais-lattice index     =            0
     lattice parameter (alat)  =      13.4303  a.u.
     unit-cell volume          =    5744.1547 (a.u.)^3
     number of atoms/cell      =           96
     number of atomic types    =            4
     number of electrons       =       264.00
     number of Kohn-Sham states=          158
     kinetic-energy cutoff     =     100.0000  Ry
     charge density cutoff     =     400.0000  Ry
     convergence threshold     =      1.0E-08
     mixing beta               =       0.5000
     number of iterations used =            8  plain     mixing
     Exchange-correlation      =  SLA  PW   PBX  PBC ( 1  4  3  4 0 0)

     celldm(1)=  13.430284  celldm(2)=   0.000000  celldm(3)=   0.000000
     celldm(4)=   0.000000  celldm(5)=   0.000000  celldm(6)=   0.000000

     crystal axes: (cart. coord. in units of alat)
               a(1) = (   1.000000   0.000000   0.000000 )  
               a(2) = (   0.000000   1.954833   0.000000 )  
               a(3) = (  -0.260266   0.000000   1.213000 )  

     reciprocal axes: (cart. coord. in units 2 pi/alat)
               b(1) = (  1.000000  0.000000  0.214564 )  
               b(2) = (  0.000000  0.511553  0.000000 )  
               b(3) = (  0.000000  0.000000  0.824402 )  


     PseudoPot. # 1 for  C read from file:
     /scratch/ahofstet/pseudo/C.pbe-n-kjpaw_psl.0.1.UPF
     MD5 check sum: 430fe95172b1e11ef3f8ed03bac87931
     Pseudo is Projector augmented-wave + core cor, Zval =  4.0
     Generated using "atomic" code by A. Dal Corso  v.5.0.99 svn rev. 10869
     Shape of augmentation charge: BESSEL
     Using radial grid of 1073 points,  4 beta functions with: 
                l(1) =   0
                l(2) =   0
                l(3) =   1
                l(4) =   1
     Q(r) pseudized with 0 coefficients 


     PseudoPot. # 2 for  N read from file:
     /scratch/ahofstet/pseudo/N.pbe-n-kjpaw_psl.0.1.UPF
     MD5 check sum: f73187c8b701007e77325f868c9291d7
     Pseudo is Projector augmented-wave + core cor, Zval =  5.0
     Generated using "atomic" code by A. Dal Corso  v.5.0.99 svn rev. 10869
     Shape of augmentation charge: PSQ
     Using radial grid of 1085 points,  4 beta functions with: 
                l(1) =   0
                l(2) =   0
                l(3) =   1
                l(4) =   1
     Q(r) pseudized with 0 coefficients 


     PseudoPot. # 3 for  H read from file:
     /scratch/ahofstet/pseudo/H.pbe-kjpaw_psl.0.1.UPF
     MD5 check sum: 94e484f906d9e9773b2f6e52662335b2
     Pseudo is Projector augmented-wave, Zval =  1.0
     Generated using "atomic" code by A. Dal Corso  v.5.0.99 svn rev. 10869
     Shape of augmentation charge: PSQ
     Using radial grid of  929 points,  2 beta functions with: 
                l(1) =   0
                l(2) =   0
     Q(r) pseudized with 0 coefficients 


     PseudoPot. # 4 for  O read from file:
     /scratch/ahofstet/pseudo/O.pbe-n-kjpaw_psl.0.1.UPF
     MD5 check sum: 3f94a2996a3169367d6eb21d9b593f20
     Pseudo is Projector augmented-wave + core cor, Zval =  6.0
     Generated using "atomic" code by A. Dal Corso  v.5.0.99 svn rev. 10869
     Shape of augmentation charge: BESSEL
     Using radial grid of 1095 points,  4 beta functions with: 
                l(1) =   0
                l(2) =   0
                l(3) =   1
                l(4) =   1
     Q(r) pseudized with 0 coefficients 


     atomic species   valence    mass     pseudopotential
        C              4.00    12.01070      C( 1.00)
        N              5.00    14.00670      N( 1.00)
        H              1.00     1.00794      H( 1.00)
        O              6.00    15.99940      O( 1.00)

      2 Sym. Ops., with inversion, found



   Cartesian axes

     site n.     atom                  positions (alat units)
         1           C   tau(   1) = (   0.1891434   1.8675273   0.1526159  )
         2           C   tau(   2) = (   0.1806753   0.8901705   0.4539970  )
         3           C   tau(   3) = (   0.5505905   0.0873060   1.0603842  )
         4           C   tau(   4) = (   0.5590586   1.0646628   0.7590031  )
         5           C   tau(   5) = (   0.0351391   0.0064669   1.1090874  )
         6           C   tau(   6) = (   0.0744385   0.9841051   0.7104838  )
         7           C   tau(   7) = (   0.7045947   1.9483663   0.1039128  )
         8           C   tau(   8) = (   0.6652954   0.9707281   0.5025164  )
         9           C   tau(   9) = (   0.0589923   0.2921035   0.2919160  )
        10           C   tau(  10) = (   0.3110323   1.2694026   0.3145117  )
        11           C   tau(  11) = (   0.6807416   1.6627298   0.9210841  )
        12           C   tau(  12) = (   0.4287016   0.6854307   0.8984884  )
        13           C   tau(  13) = (   0.0830840   0.2405858   0.8568380  )
        14           C   tau(  14) = (   0.0266370   1.2183275   0.9626200  )
        15           C   tau(  15) = (   0.6566498   1.7142475   0.3561621  )
        16           C   tau(  16) = (   0.7130968   0.7365057   0.2503802  )
        17           O   tau(  17) = (   0.1169516   1.8133395   0.3019504  )
        18           O   tau(  18) = (   0.2528843   0.8358664   0.3047237  )
        19           O   tau(  19) = (   0.6227823   0.1414938   0.9110497  )
        20           O   tau(  20) = (   0.4868496   1.1189668   0.9082765  )
        21           N   tau(  21) = (   0.1585706   0.2677194   0.1128512  )
        22           N   tau(  22) = (   0.2114525   1.2451835   0.4935959  )
        23           N   tau(  23) = (   0.5811632   1.6871139   1.1001490  )
        24           N   tau(  24) = (   0.5282813   0.7096497   0.7194042  )
        25           H   tau(  25) = (  -0.0793549   0.3556874   0.2644490  )
        26           H   tau(  26) = (   0.4493842   1.3330056   0.3419307  )
        27           H   tau(  27) = (   0.8190887   1.5991459   0.9485512  )
        28           H   tau(  28) = (   0.2903497   0.6218277   0.8710694  )
        29           H   tau(  29) = (   0.1383946   0.3882829   0.3836960  )
        30           H   tau(  30) = (   0.2316462   1.3655256   0.2226477  )
        31           H   tau(  31) = (   0.6013392   1.5665504   0.8293042  )
        32           H   tau(  32) = (   0.5080876   0.5893077   0.9903525  )
        33           H   tau(  33) = (   0.1756755   0.5596702   0.1066171  )
        34           H   tau(  34) = (   0.1943645   1.5371440   0.4996914  )
        35           H   tau(  35) = (   0.5640584   1.3951630   1.1063831  )
        36           H   tau(  36) = (   0.5453694   0.4176893   0.7133088  )
        37           H   tau(  37) = (   0.1121220   0.2303552   0.7058373  )
        38           H   tau(  38) = (  -0.0024052   1.2082249   1.1136251  )
        39           H   tau(  39) = (   0.6276119   1.7244781   0.5071628  )
        40           H   tau(  40) = (   0.7421391   0.7466084   0.0993750  )
        41           H   tau(  41) = (  -0.0591547   0.2970508   0.8741032  )
        42           H   tau(  42) = (   0.1689072   1.2746964   0.9453155  )
        43           H   tau(  43) = (   0.7988885   1.6577825   0.3388969  )
        44           H   tau(  44) = (   0.5708267   0.6801369   0.2676846  )
        45           H   tau(  45) = (   0.1908170   1.7302540   0.8893548  )
        46           H   tau(  46) = (  -0.0814159   0.7532248   0.9303223  )
        47           H   tau(  47) = (   0.5489168   0.2245792   0.3236454  )
        48           H   tau(  48) = (   0.8211498   1.2016085   0.2826778  )
        49           C   tau(  49) = (   0.2070860   0.0960358   0.0555407  )
        50           C   tau(  50) = (   0.1628182   1.0735615   0.5509910  )
        51           C   tau(  51) = (   0.5326479   1.8587975   1.1574594  )
        52           C   tau(  52) = (   0.5769156   0.8812718   0.6620092  )
        53           C   tau(  53) = (   0.0314469   1.7770523   1.2062116  )
        54           C   tau(  54) = (   0.0780303   0.7998344   0.6134237  )
        55           C   tau(  55) = (   0.7082869   0.1777810   0.0067885  )
        56           C   tau(  56) = (   0.6617036   1.1549988   0.5995764  )
        57           C   tau(  57) = (   0.1946479   0.4413214   0.0091688  )
        58           C   tau(  58) = (   0.1753948   1.4188286   0.5971884  )
        59           C   tau(  59) = (   0.5450859   1.5135119   1.2038313  )
        60           C   tau(  60) = (   0.5643391   0.5360047   0.6158117  )
        61           C   tau(  61) = (   0.1912456   1.8676181   0.8195958  )
        62           C   tau(  62) = (  -0.0817093   0.8906058   1.0000270  )
        63           C   tau(  63) = (   0.5484883   0.0872152   0.3934044  )
        64           C   tau(  64) = (   0.8214431   1.0642274   0.2129731  )
        65           O   tau(  65) = (   0.0889094   1.6167138   1.1697236  )
        66           O   tau(  66) = (   0.0204446   0.6395435   0.6499473  )
        67           O   tau(  67) = (   0.6508244   0.3381195   0.0432766  )
        68           O   tau(  68) = (   0.7192893   1.3152897   0.5630529  )
        69           N   tau(  69) = (   0.0972910   0.0526449   0.9382467  )
        70           N   tau(  70) = (   0.0123405   1.0303565   0.8813174  )
        71           N   tau(  71) = (   0.6424428   1.9021884   0.2747534  )
        72           N   tau(  72) = (   0.7273934   0.9244767   0.3316827  )
        73           H   tau(  73) = (   0.0397644   0.1554106   0.3604104  )
        74           H   tau(  74) = (   0.3302496   1.1326598   0.2461301  )
        75           H   tau(  75) = (   0.6999694   1.7994226   0.8525897  )
        76           H   tau(  76) = (   0.4094842   0.8221735   0.9668701  )
        77           H   tau(  77) = (   0.0799952   0.4439902   1.1716124  )
        78           H   tau(  78) = (   0.0297882   1.4215230   0.6477536  )
        79           H   tau(  79) = (   0.6597387   1.5108431   0.0413877  )
        80           H   tau(  80) = (   0.7099456   0.5333102   0.5652466  )
        81           H   tau(  81) = (  -0.1641870   0.4559612   1.1035601  )
        82           H   tau(  82) = (   0.2739778   1.4335050   0.7157792  )
        83           H   tau(  83) = (   0.9039209   1.4988720   0.1094400  )
        84           H   tau(  84) = (   0.4657560   0.5213283   0.4972210  )
        85           H   tau(  85) = (   0.1871178   0.3361283   0.9196794  )
        86           H   tau(  86) = (  -0.0773412   1.3138761   0.8997004  )
        87           H   tau(  87) = (   0.5526161   1.6187050   0.2933207  )
        88           H   tau(  88) = (   0.8170750   0.6409572   0.3132998  )
        89           H   tau(  89) = (   0.3372207   1.9123167   0.7938879  )
        90           H   tau(  90) = (  -0.2276402   0.9354401   1.0257672  )
        91           H   tau(  91) = (   0.4025131   0.0425166   0.4191123  )
        92           H   tau(  92) = (   0.9673741   1.0193932   0.1872330  )
        93           H   tau(  93) = (   0.1191894   1.8580828   0.6824002  )
        94           H   tau(  94) = (  -0.0096308   0.8810491   1.1372141  )
        95           H   tau(  95) = (   0.6205445   0.0967505   0.5305999  )
        96           H   tau(  96) = (   0.7493646   1.0737841   0.0757860  )

     number of k points=     8
                       cart. coord. in units 2pi/alat
        k(    1) = (   0.0000000   0.0000000   0.0000000), wk =   0.1666667
        k(    2) = (   0.0000000   0.0000000  -0.4122011), wk =   0.1666667
        k(    3) = (   0.0000000  -0.2557763   0.0000000), wk =   0.1666667
        k(    4) = (   0.0000000  -0.2557763  -0.4122011), wk =   0.1666667
        k(    5) = (   0.3333333   0.0000000   0.0715213), wk =   0.3333333
        k(    6) = (   0.3333333   0.0000000  -0.3406798), wk =   0.3333333
        k(    7) = (   0.3333333  -0.2557763   0.0715213), wk =   0.3333333
        k(    8) = (   0.3333333  -0.2557763  -0.3406798), wk =   0.3333333

     Dense  grid:   775961 G-vectors     FFT dimensions: (  90, 180, 108)

     Estimated max dynamical RAM per process >     657.96MB

     Estimated total allocated dynamical RAM >    5263.68MB

     Check: negative/imaginary core charge=   -0.000002    0.000000

     Initial potential from superposition of free atoms

     starting charge  263.99814, renormalised to  264.00000
     Starting wfc are  240 randomized atomic wfcs
     Checking if some PAW data can be deallocated... 

     total cpu time spent up to now is       43.2 secs

     per-process dynamical memory:   467.0 Mb

     Self-consistent Calculation

     iteration #  1     ecut=   100.00 Ry     beta=0.50
     Davidson diagonalization with overlap
     ethr =  1.00E-02,  avg # of iterations =  3.8

     total cpu time spent up to now is      154.5 secs

     total energy              =   -1204.45592939 Ry
     Harris-Foulkes estimate   =   -1209.08720954 Ry
     estimated scf accuracy    <       9.08975730 Ry

     iteration #  2     ecut=   100.00 Ry     beta=0.50
     Davidson diagonalization with overlap
     ethr =  3.44E-03,  avg # of iterations =  2.0

     total cpu time spent up to now is      213.3 secs

     total energy              =   -1204.81844237 Ry
     Harris-Foulkes estimate   =   -1205.66492555 Ry
     estimated scf accuracy    <       1.64408143 Ry

     iteration #  3     ecut=   100.00 Ry     beta=0.50
     Davidson diagonalization with overlap
     ethr =  6.23E-04,  avg # of iterations =  6.9

     total cpu time spent up to now is      337.8 secs

     total energy              =   -1205.75382364 Ry
     Harris-Foulkes estimate   =   -1206.33135220 Ry
     estimated scf accuracy    <       1.61485892 Ry

     iteration #  4     ecut=   100.00 Ry     beta=0.50
     Davidson diagonalization with overlap
     ethr =  6.12E-04,  avg # of iterations =  2.2

     total cpu time spent up to now is      394.6 secs

     total energy              =   -1205.68757929 Ry
     Harris-Foulkes estimate   =   -1205.88092767 Ry
     estimated scf accuracy    <       0.34231912 Ry

     iteration #  5     ecut=   100.00 Ry     beta=0.50
     Davidson diagonalization with overlap
     ethr =  1.30E-04,  avg # of iterations =  5.4

     total cpu time spent up to now is      515.3 secs

     total energy              =   -1205.91528070 Ry
     Harris-Foulkes estimate   =   -1205.98677743 Ry
     estimated scf accuracy    <       0.28373638 Ry

     iteration #  6     ecut=   100.00 Ry     beta=0.50
     Davidson diagonalization with overlap
     ethr =  1.07E-04,  avg # of iterations =  1.1

     total cpu time spent up to now is      570.1 secs

     total energy              =   -1205.87256564 Ry
     Harris-Foulkes estimate   =   -1205.92457223 Ry
     estimated scf accuracy    <       0.12532712 Ry

     iteration #  7     ecut=   100.00 Ry     beta=0.50
     Davidson diagonalization with overlap
     ethr =  4.75E-05,  avg # of iterations =  5.4

     total cpu time spent up to now is      651.8 secs

     total energy              =   -1205.90551410 Ry
     Harris-Foulkes estimate   =   -1205.90620718 Ry
     estimated scf accuracy    <       0.00174709 Ry

     iteration #  8     ecut=   100.00 Ry     beta=0.50
     Davidson diagonalization with overlap
     ethr =  6.62E-07,  avg # of iterations =  5.0

     total cpu time spent up to now is      787.9 secs

     total energy              =   -1205.90842348 Ry
     Harris-Foulkes estimate   =   -1205.90863948 Ry
     estimated scf accuracy    <       0.00117786 Ry

     iteration #  9     ecut=   100.00 Ry     beta=0.50
     Davidson diagonalization with overlap
     ethr =  4.46E-07,  avg # of iterations =  2.0

     total cpu time spent up to now is      845.4 secs

     total energy              =   -1205.90815263 Ry
     Harris-Foulkes estimate   =   -1205.90853396 Ry
     estimated scf accuracy    <       0.00073805 Ry

     iteration # 10     ecut=   100.00 Ry     beta=0.50
     Davidson diagonalization with overlap
     c_bands:  1 eigenvalues not converged
     ethr =  2.80E-07,  avg # of iterations =  5.9

     total cpu time spent up to now is      928.5 secs

     total energy              =   -1205.90834974 Ry
     Harris-Foulkes estimate   =   -1205.90836548 Ry
     estimated scf accuracy    <       0.00003701 Ry

     iteration # 11     ecut=   100.00 Ry     beta=0.50
     Davidson diagonalization with overlap
     ethr =  1.40E-08,  avg # of iterations =  5.4

     total cpu time spent up to now is     1028.1 secs

     total energy              =   -1205.90837290 Ry
     Harris-Foulkes estimate   =   -1205.90837453 Ry
     estimated scf accuracy    <       0.00000686 Ry

     iteration # 12     ecut=   100.00 Ry     beta=0.50
     Davidson diagonalization with overlap
     ethr =  2.60E-09,  avg # of iterations =  3.0

     total cpu time spent up to now is     1088.6 secs

     total energy              =   -1205.90837221 Ry
     Harris-Foulkes estimate   =   -1205.90837369 Ry
     estimated scf accuracy    <       0.00000473 Ry

     iteration # 13     ecut=   100.00 Ry     beta=0.50
     Davidson diagonalization with overlap
     ethr =  1.79E-09,  avg # of iterations =  3.0

     total cpu time spent up to now is     1154.5 secs

     total energy              =   -1205.90837253 Ry
     Harris-Foulkes estimate   =   -1205.90837296 Ry
     estimated scf accuracy    <       0.00000136 Ry

     iteration # 14     ecut=   100.00 Ry     beta=0.50
     Davidson diagonalization with overlap
     ethr =  5.17E-10,  avg # of iterations =  3.9

     total cpu time spent up to now is     1223.8 secs

     total energy              =   -1205.90837260 Ry
     Harris-Foulkes estimate   =   -1205.90837278 Ry
     estimated scf accuracy    <       0.00000029 Ry

     iteration # 15     ecut=   100.00 Ry     beta=0.50
     Davidson diagonalization with overlap
     ethr =  1.08E-10,  avg # of iterations =  4.0

     total cpu time spent up to now is     1333.4 secs

     total energy              =   -1205.90837274 Ry
     Harris-Foulkes estimate   =   -1205.90837286 Ry
     estimated scf accuracy    <       0.00000027 Ry

     iteration # 16     ecut=   100.00 Ry     beta=0.50
     Davidson diagonalization with overlap
     ethr =  1.02E-10,  avg # of iterations =  3.1

     total cpu time spent up to now is     1393.3 secs

     total energy              =   -1205.90837277 Ry
     Harris-Foulkes estimate   =   -1205.90837277 Ry
     estimated scf accuracy    <       0.00000002 Ry

     iteration # 17     ecut=   100.00 Ry     beta=0.50
     Davidson diagonalization with overlap
     ethr =  6.69E-12,  avg # of iterations =  4.1

     total cpu time spent up to now is     1516.6 secs

     total energy              =   -1205.90837280 Ry
     Harris-Foulkes estimate   =   -1205.90837280 Ry
     estimated scf accuracy    <       0.00000003 Ry

     iteration # 18     ecut=   100.00 Ry     beta=0.50
     Davidson diagonalization with overlap
     ethr =  6.69E-12,  avg # of iterations =  1.0

     total cpu time spent up to now is     1570.0 secs

     total energy              =   -1205.90837279 Ry
     Harris-Foulkes estimate   =   -1205.90837280 Ry
     estimated scf accuracy    <       0.00000002 Ry

     iteration # 19     ecut=   100.00 Ry     beta=0.50
     Davidson diagonalization with overlap
     ethr =  6.00E-12,  avg # of iterations =  3.5

     total cpu time spent up to now is     1630.2 secs

     End of self-consistent calculation

          k = 0.0000 0.0000 0.0000 ( 97091 PWs)   bands (ev):

   -19.4979 -19.4929 -19.4099 -19.4077 -18.9572 -18.9552 -18.9454 -18.9439
   -18.1381 -18.1339 -18.1299 -18.1291 -17.7577 -17.7546 -17.7484 -17.7423
   -15.0742 -15.0547 -15.0171 -15.0074 -11.8850 -11.7877 -11.7748 -11.7435
   -11.6962 -11.6230 -11.6188 -11.5929 -11.3094 -11.3034 -11.2767 -11.2662
   -11.1983 -11.1819 -11.1435 -11.1244  -8.1159  -7.9320  -7.9196  -7.8655
    -7.7348  -7.6798  -7.5650  -7.5323  -6.6673  -6.6572  -6.5859  -6.4936
    -6.3415  -6.2415  -6.1621  -6.1233  -6.0581  -6.0121  -5.9163  -5.9150
    -5.8622  -5.8389  -5.4690  -5.3617  -5.3422  -5.3271  -5.2659  -5.2596
    -5.0969  -5.0299  -4.9457  -4.9218  -4.3667  -4.3224  -4.2478  -4.1811
    -4.1075  -4.1049  -4.0984  -4.0890  -4.0542  -4.0453  -3.9654  -3.8840
    -3.8468  -3.8097  -3.7691  -3.7537  -3.7491  -3.7084  -3.6106  -3.5655
    -3.5341  -3.5156  -3.4833  -3.4090  -3.3859  -3.3135  -3.2898  -3.2878
    -3.2602  -3.2096  -3.1522  -3.0787  -3.0174  -3.0088  -2.9892  -2.9404
    -2.4773  -2.4651  -2.4575  -2.3821  -2.3366  -2.3257  -2.0577  -2.0537
    -1.8050  -1.7378  -1.6984  -1.5823  -0.5802  -0.5744  -0.5546  -0.4965
    -0.3280  -0.3203  -0.3101  -0.3019   1.0918   1.0972   1.1208   1.1239
     1.2911   1.3876   1.6932   1.7826   4.4614   4.4984   4.6036   4.6124
     4.7071   4.7132   4.9551   4.9658   5.8305   6.2801   6.5003   6.9656
     6.9656   7.1973   7.2081   7.2308   7.4396   7.4807   7.4942   7.8154
     7.8364   8.1056   8.1186   8.2356   8.3657   8.3824

          k = 0.0000 0.0000-0.4122 ( 96970 PWs)   bands (ev):

   -19.4950 -19.4939 -19.4090 -19.4077 -18.9578 -18.9565 -18.9458 -18.9445
   -18.1359 -18.1355 -18.1307 -18.1300 -17.7582 -17.7574 -17.7454 -17.7447
   -15.0598 -15.0586 -15.0100 -15.0088 -11.8659 -11.8653 -11.7712 -11.7707
   -11.6389 -11.6382 -11.5871 -11.5862 -11.3339 -11.3333 -11.3075 -11.3069
   -11.1591 -11.1576 -11.1207 -11.1192  -7.9712  -7.9704  -7.8225  -7.8218
    -7.7229  -7.7229  -7.6160  -7.6159  -6.6447  -6.6437  -6.5528  -6.5522
    -6.2815  -6.2803  -6.1813  -6.1810  -6.0959  -6.0954  -5.9656  -5.9650
    -5.9141  -5.9130  -5.4172  -5.4168  -5.2978  -5.2962  -5.0508  -5.0503
    -4.9920  -4.9914  -4.9656  -4.9653  -4.3727  -4.3726  -4.3023  -4.3023
    -4.2008  -4.2007  -4.1204  -4.1204  -4.0730  -4.0716  -4.0184  -4.0183
    -3.8400  -3.8391  -3.6986  -3.6984  -3.6278  -3.6276  -3.6047  -3.6040
    -3.4294  -3.4293  -3.3789  -3.3777  -3.3695  -3.3688  -3.2916  -3.2911
    -3.2339  -3.2336  -3.0107  -3.0099  -2.9939  -2.9937  -2.9455  -2.9452
    -2.5916  -2.5913  -2.4570  -2.4565  -2.3334  -2.3324  -2.0877  -2.0862
    -1.8198  -1.8173  -1.6676  -1.6672  -0.5492  -0.5481  -0.4750  -0.4736
    -0.3320  -0.3307  -0.3180  -0.3166   1.0854   1.0858   1.1333   1.1337
     1.3706   1.3721   1.7590   1.7601   4.4366   4.4380   4.5874   4.5882
     4.6770   4.6790   4.9506   4.9524   6.2977   6.2978   6.5842   6.5845
     6.8355   6.8356   7.1307   7.1313   7.6453   7.6464   7.7185   7.7200
     8.0176   8.0182   8.0643   8.0649   8.3505   8.3513

          k = 0.0000-0.2558 0.0000 ( 97044 PWs)   bands (ev):

   -19.4960 -19.4948 -19.4094 -19.4081 -18.9569 -18.9556 -18.9453 -18.9440
   -18.1345 -18.1339 -18.1318 -18.1308 -17.7566 -17.7558 -17.7457 -17.7449
   -15.0651 -15.0640 -15.0128 -15.0116 -11.8463 -11.8458 -11.7584 -11.7578
   -11.6572 -11.6565 -11.5978 -11.5970 -11.3123 -11.3119 -11.2704 -11.2697
   -11.1901 -11.1896 -11.1332 -11.1326  -8.0307  -8.0296  -7.8837  -7.8824
    -7.6632  -7.6624  -7.6077  -7.6069  -6.6499  -6.6487  -6.5460  -6.5453
    -6.2993  -6.2981  -6.1410  -6.1403  -6.0420  -6.0414  -5.9173  -5.9162
    -5.8552  -5.8541  -5.3798  -5.3794  -5.3344  -5.3331  -5.1482  -5.1482
    -5.1343  -5.1341  -4.9919  -4.9916  -4.3720  -4.3712  -4.2720  -4.2716
    -4.1121  -4.1106  -4.0594  -4.0591  -3.9953  -3.9952  -3.8892  -3.8889
    -3.8465  -3.8461  -3.7457  -3.7451  -3.7101  -3.7099  -3.6664  -3.6661
    -3.5000  -3.5000  -3.4277  -3.4270  -3.3966  -3.3964  -3.2726  -3.2724
    -3.2288  -3.2282  -3.1007  -3.0999  -3.0365  -3.0362  -2.9577  -2.9573
    -2.4728  -2.4725  -2.4156  -2.4152  -2.3263  -2.3252  -2.0571  -2.0555
    -1.7937  -1.7915  -1.6167  -1.6166  -0.5868  -0.5859  -0.5226  -0.5213
    -0.3282  -0.3274  -0.3026  -0.3018   1.0994   1.1005   1.1212   1.1225
     1.3289   1.3303   1.7439   1.7450   4.4863   4.4879   4.5978   4.5986
     4.7124   4.7145   4.9602   4.9620   5.9812   5.9819   6.8719   6.8730
     7.0144   7.0151   7.1495   7.1495   7.4807   7.4830   7.7574   7.7586
     7.8671   7.8677   8.1023   8.1025   8.3585   8.3596

          k = 0.0000-0.2558-0.4122 ( 96976 PWs)   bands (ev):

   -19.4950 -19.4939 -19.4090 -19.4077 -18.9578 -18.9565 -18.9458 -18.9445
   -18.1351 -18.1343 -18.1319 -18.1308 -17.7581 -17.7573 -17.7455 -17.7448
   -15.0598 -15.0586 -15.0100 -15.0088 -11.8544 -11.8537 -11.7860 -11.7854
   -11.6350 -11.6342 -11.5886 -11.5877 -11.3353 -11.3347 -11.3073 -11.3067
   -11.1516 -11.1501 -11.1266 -11.1250  -7.9379  -7.9366  -7.8627  -7.8617
    -7.6698  -7.6687  -7.6649  -7.6639  -6.6716  -6.6708  -6.5372  -6.5363
    -6.2841  -6.2829  -6.1764  -6.1760  -6.0691  -6.0684  -5.9800  -5.9790
    -5.9145  -5.9133  -5.4298  -5.4296  -5.2729  -5.2717  -5.0531  -5.0522
    -4.9955  -4.9947  -4.9693  -4.9684  -4.3681  -4.3672  -4.2850  -4.2843
    -4.1968  -4.1958  -4.1672  -4.1664  -4.0632  -4.0618  -4.0127  -4.0123
    -3.8623  -3.8612  -3.7005  -3.6999  -3.5905  -3.5897  -3.5821  -3.5806
    -3.4536  -3.4534  -3.4373  -3.4367  -3.3339  -3.3333  -3.2914  -3.2908
    -3.2315  -3.2309  -3.0262  -3.0255  -2.9867  -2.9865  -2.9423  -2.9420
    -2.5345  -2.5334  -2.5006  -2.4995  -2.3363  -2.3352  -2.0853  -2.0839
    -1.8225  -1.8200  -1.6694  -1.6690  -0.5472  -0.5459  -0.4767  -0.4753
    -0.3278  -0.3265  -0.3180  -0.3165   1.1100   1.1115   1.1129   1.1144
     1.3629   1.3644   1.7585   1.7595   4.4360   4.4374   4.5923   4.5931
     4.6761   4.6781   4.9484   4.9502   6.3928   6.3934   6.4368   6.4372
     6.9158   6.9163   7.0672   7.0675   7.6946   7.6950   7.7804   7.7821
     8.0281   8.0289   8.0339   8.0347   8.2063   8.2078

          k = 0.3333 0.0000 0.0715 ( 97039 PWs)   bands (ev):

   -19.4747 -19.4704 -19.4300 -19.4271 -18.9543 -18.9526 -18.9485 -18.9469
   -18.1458 -18.1441 -18.1275 -18.1267 -17.7565 -17.7546 -17.7477 -17.7443
   -15.0603 -15.0454 -15.0273 -15.0173 -11.8573 -11.8046 -11.7722 -11.7522
   -11.6778 -11.6383 -11.6111 -11.5953 -11.3084 -11.3018 -11.2758 -11.2679
   -11.1886 -11.1678 -11.1587 -11.1409  -8.0744  -7.9810  -7.9171  -7.8873
    -7.7225  -7.6953  -7.5477  -7.5308  -6.6542  -6.6355  -6.6046  -6.5436
    -6.1504  -6.1399  -6.0963  -6.0588  -6.0268  -5.9892  -5.8867  -5.8664
    -5.8653  -5.8578  -5.5139  -5.4414  -5.3629  -5.3213  -5.2982  -5.2454
    -5.2021  -5.1941  -4.9533  -4.9528  -4.3904  -4.3766  -4.3412  -4.3204
    -4.1435  -4.1365  -4.0804  -4.0674  -4.0417  -4.0076  -3.9230  -3.8629
    -3.8310  -3.8050  -3.7810  -3.7360  -3.7097  -3.6795  -3.6567  -3.6306
    -3.5679  -3.5144  -3.4818  -3.4367  -3.3729  -3.2941  -3.2722  -3.2278
    -3.2167  -3.1989  -3.1398  -3.1179  -3.0333  -3.0181  -2.9982  -2.9717
    -2.4818  -2.4764  -2.4691  -2.4335  -2.2703  -2.2662  -2.1892  -2.1567
    -1.6754  -1.6475  -1.5747  -1.5308  -0.6039  -0.5933  -0.5896  -0.5679
    -0.3170  -0.3119  -0.3062  -0.3028   1.0593   1.0698   1.1110   1.1143
     1.4369   1.4824   1.6509   1.6887   4.5013   4.5210   4.5801   4.5864
     4.7991   4.8133   4.9185   4.9198   6.3798   6.7103   6.7991   6.8443
     6.9372   7.1809   7.1916   7.2342   7.4330   7.5187   7.5912   7.7730
     7.8693   7.9802   8.0161   8.0260   8.1815   8.2371

          k = 0.3333 0.0000-0.3407 ( 96945 PWs)   bands (ev):

   -19.4724 -19.4711 -19.4286 -19.4273 -18.9550 -18.9535 -18.9490 -18.9475
   -18.1457 -18.1428 -18.1311 -18.1256 -17.7581 -17.7548 -17.7470 -17.7461
   -15.0487 -15.0475 -15.0199 -15.0179 -11.8626 -11.8405 -11.7946 -11.7682
   -11.6310 -11.6254 -11.5939 -11.5931 -11.3351 -11.3274 -11.3184 -11.2991
   -11.1686 -11.1426 -11.1402 -11.1138  -7.9862  -7.9463  -7.8618  -7.8235
    -7.7342  -7.7023  -7.6110  -7.6067  -6.6675  -6.6176  -6.5973  -6.5427
    -6.2000  -6.1488  -6.1275  -6.0941  -6.0499  -6.0192  -5.9425  -5.9415
    -5.9141  -5.9115  -5.5032  -5.4962  -5.2563  -5.2320  -5.2290  -5.1257
    -5.0606  -4.9927  -4.9736  -4.9719  -4.4811  -4.4154  -4.3800  -4.3763
    -4.2165  -4.1937  -4.1562  -4.1440  -4.1090  -4.0680  -3.9686  -3.8918
    -3.8504  -3.7844  -3.7431  -3.7282  -3.6567  -3.6219  -3.6198  -3.5959
    -3.5189  -3.4517  -3.4432  -3.4097  -3.4070  -3.3347  -3.2688  -3.2179
    -3.1703  -3.1509  -3.0321  -3.0202  -3.0152  -2.9952  -2.9922  -2.9198
    -2.5969  -2.5857  -2.4767  -2.4725  -2.3157  -2.2733  -2.1987  -2.1849
    -1.6973  -1.6629  -1.6034  -1.5896  -0.6249  -0.5614  -0.5273  -0.4675
    -0.3351  -0.3216  -0.3124  -0.3097   1.0590   1.0830   1.1057   1.1252
     1.4440   1.5258   1.6641   1.7139   4.4660   4.4836   4.5479   4.5605
     4.7755   4.7979   4.9104   4.9331   6.3350   6.5213   6.7153   6.9836
     7.0462   7.0948   7.3181   7.3289   7.4647   7.5082   7.5740   7.5828
     7.7972   7.9535   8.0093   8.1695   8.1779   8.2966

          k = 0.3333-0.2558 0.0715 ( 96978 PWs)   bands (ev):

   -19.4731 -19.4720 -19.4292 -19.4279 -18.9541 -18.9528 -18.9484 -18.9470
   -18.1449 -18.1439 -18.1281 -18.1272 -17.7556 -17.7548 -17.7468 -17.7460
   -15.0530 -15.0518 -15.0233 -15.0221 -11.8260 -11.8255 -11.7757 -11.7751
   -11.6423 -11.6415 -11.6114 -11.6105 -11.3064 -11.3058 -11.2711 -11.2702
   -11.1800 -11.1795 -11.1497 -11.1491  -8.0011  -8.0000  -7.9287  -7.9275
    -7.6457  -7.6448  -7.6160  -7.6151  -6.6329  -6.6318  -6.5792  -6.5784
    -6.1281  -6.1274  -6.0977  -6.0971  -6.0137  -6.0126  -5.8805  -5.8794
    -5.8661  -5.8652  -5.4798  -5.4792  -5.3299  -5.3289  -5.2096  -5.2093
    -5.1053  -5.1041  -5.0901  -5.0890  -4.4069  -4.4061  -4.3868  -4.3860
    -4.1233  -4.1220  -4.0454  -4.0448  -3.9876  -3.9866  -3.8802  -3.8794
    -3.8456  -3.8450  -3.7580  -3.7579  -3.6985  -3.6979  -3.6413  -3.6406
    -3.5425  -3.5418  -3.4669  -3.4659  -3.3176  -3.3166  -3.2551  -3.2545
    -3.2207  -3.2204  -3.1299  -3.1289  -3.0306  -3.0304  -2.9764  -2.9757
    -2.4779  -2.4775  -2.4481  -2.4475  -2.2670  -2.2664  -2.1727  -2.1715
    -1.6693  -1.6666  -1.5462  -1.5450  -0.6077  -0.6069  -0.5774  -0.5765
    -0.3152  -0.3143  -0.3034  -0.3025   1.0842   1.0853   1.0966   1.0978
     1.4528   1.4544   1.6726   1.6737   4.5247   4.5268   4.5689   4.5709
     4.8069   4.8078   4.9195   4.9208   6.4856   6.4860   6.8560   6.8566
     7.0950   7.0954   7.2325   7.2341   7.4589   7.4601   7.6024   7.6033
     7.8840   7.8846   8.0781   8.0787   8.2228   8.2241

          k = 0.3333-0.2558-0.3407 ( 96950 PWs)   bands (ev):

   -19.4723 -19.4711 -19.4286 -19.4273 -18.9549 -18.9537 -18.9489 -18.9476
   -18.1448 -18.1438 -18.1287 -18.1279 -17.7569 -17.7561 -17.7469 -17.7461
   -15.0487 -15.0475 -15.0194 -15.0183 -11.8414 -11.8408 -11.7941 -11.7936
   -11.6229 -11.6220 -11.5985 -11.5976 -11.3328 -11.3324 -11.3088 -11.3082
   -11.1573 -11.1566 -11.1244 -11.1237  -7.9376  -7.9369  -7.8738  -7.8732
    -7.6712  -7.6701  -7.6570  -7.6559  -6.6689  -6.6683  -6.5583  -6.5577
    -6.1675  -6.1671  -6.1034  -6.1029  -6.0272  -6.0261  -5.9439  -5.9429
    -5.9162  -5.9150  -5.4919  -5.4912  -5.2660  -5.2652  -5.1757  -5.1754
    -5.0320  -5.0312  -4.9582  -4.9571  -4.4262  -4.4256  -4.3467  -4.3465
    -4.2343  -4.2335  -4.1814  -4.1810  -4.0913  -4.0901  -3.9110  -3.9100
    -3.8625  -3.8617  -3.7212  -3.7209  -3.6416  -3.6403  -3.5876  -3.5869
    -3.4845  -3.4840  -3.4284  -3.4281  -3.4024  -3.4020  -3.2281  -3.2278
    -3.1557  -3.1550  -3.0299  -3.0291  -3.0097  -3.0093  -2.9427  -2.9425
    -2.5391  -2.5381  -2.5230  -2.5219  -2.2963  -2.2957  -2.1921  -2.1909
    -1.6816  -1.6787  -1.5982  -1.5971  -0.6047  -0.6040  -0.4860  -0.4855
    -0.3228  -0.3219  -0.3137  -0.3128   1.0871   1.0877   1.0979   1.0985
     1.4801   1.4818   1.6897   1.6908   4.4733   4.4753   4.5604   4.5623
     4.7907   4.7917   4.9127   4.9140   6.4078   6.4082   6.8472   6.8476
     7.1444   7.1444   7.2329   7.2335   7.4622   7.4632   7.6138   7.6148
     7.8451   7.8457   8.1156   8.1165   8.3064   8.3075

     highest occupied, lowest unoccupied level (ev):     1.7826    4.4360

!    total energy              =   -1205.90837279 Ry
     Harris-Foulkes estimate   =   -1205.90837279 Ry
     estimated scf accuracy    <          2.2E-09 Ry

     total all-electron energy =     -4575.524959 Ry

     The total energy is the sum of the following terms:

     one-electron contribution =    -735.46427879 Ry
     hartree contribution      =     466.29519964 Ry
     xc contribution           =    -269.77237590 Ry
     ewald contribution        =    -311.32408519 Ry
     Dispersion Correction     =      -0.46688854 Ry
     one-center paw contrib.   =    -355.17594401 Ry

     convergence has been achieved in  19 iterations

     Forces acting on atoms (cartesian axes, Ry/au):

     atom    1 type  1   force =    -0.00182907   -0.00135394    0.00166163
     atom    2 type  1   force =     0.00178960   -0.00131261   -0.00145733
     atom    3 type  1   force =     0.00182907    0.00135394   -0.00166163
     atom    4 type  1   force =    -0.00178960    0.00131261    0.00145733
     atom    5 type  1   force =     0.00324228    0.00151497   -0.00342027
     atom    6 type  1   force =    -0.00316979    0.00149784    0.00331864
     atom    7 type  1   force =    -0.00324228   -0.00151497    0.00342027
     atom    8 type  1   force =     0.00316979   -0.00149784   -0.00331864
     atom    9 type  1   force =     0.00026144   -0.00005407    0.00053781
     atom   10 type  1   force =    -0.00026383    0.00013472   -0.00051543
     atom   11 type  1   force =    -0.00026144    0.00005407   -0.00053781
     atom   12 type  1   force =     0.00026383   -0.00013472    0.00051543
     atom   13 type  1   force =    -0.00024503   -0.00071758   -0.00017394
     atom   14 type  1   force =     0.00026003   -0.00070092    0.00017121
     atom   15 type  1   force =     0.00024503    0.00071758    0.00017394
     atom   16 type  1   force =    -0.00026003    0.00070092   -0.00017121
     atom   17 type  4   force =     0.00383546   -0.00258658   -0.00041002
     atom   18 type  4   force =    -0.00377725   -0.00265292    0.00023582
     atom   19 type  4   force =    -0.00383546    0.00258658    0.00041002
     atom   20 type  4   force =     0.00377725    0.00265292   -0.00023582
     atom   21 type  2   force =     0.00025967    0.00117484    0.00068912
     atom   22 type  2   force =    -0.00032999    0.00105901   -0.00067074
     atom   23 type  2   force =    -0.00025967   -0.00117484   -0.00068912
     atom   24 type  2   force =     0.00032999   -0.00105901    0.00067074
     atom   25 type  3   force =    -0.00028036   -0.00020005    0.00047902
     atom   26 type  3   force =     0.00027302   -0.00021416   -0.00048592
     atom   27 type  3   force =     0.00028036    0.00020005   -0.00047902
     atom   28 type  3   force =    -0.00027302    0.00021416    0.00048592
     atom   29 type  3   force =    -0.00019188    0.00012832    0.00002339
     atom   30 type  3   force =     0.00021020    0.00009324    0.00000467
     atom   31 type  3   force =     0.00019188   -0.00012832   -0.00002339
     atom   32 type  3   force =    -0.00021020   -0.00009324   -0.00000467
     atom   33 type  3   force =     0.00020307    0.00041534   -0.00036999
     atom   34 type  3   force =    -0.00020798    0.00038188    0.00039226
     atom   35 type  3   force =    -0.00020307   -0.00041534    0.00036999
     atom   36 type  3   force =     0.00020798   -0.00038188   -0.00039226
     atom   37 type  3   force =     0.00010047   -0.00033681   -0.00068084
     atom   38 type  3   force =    -0.00011111   -0.00034998    0.00069471
     atom   39 type  3   force =    -0.00010047    0.00033681    0.00068084
     atom   40 type  3   force =     0.00011111    0.00034998   -0.00069471
     atom   41 type  3   force =    -0.00070912    0.00001263    0.00136451
     atom   42 type  3   force =     0.00071831    0.00003460   -0.00135998
     atom   43 type  3   force =     0.00070912   -0.00001263   -0.00136451
     atom   44 type  3   force =    -0.00071831   -0.00003460    0.00135998
     atom   45 type  3   force =     0.00015101    0.00014333    0.00039336
     atom   46 type  3   force =    -0.00014068    0.00007295   -0.00045331
     atom   47 type  3   force =    -0.00015101   -0.00014333   -0.00039336
     atom   48 type  3   force =     0.00014068   -0.00007295    0.00045331
     atom   49 type  1   force =    -0.00003110    0.00166430    0.00047912
     atom   50 type  1   force =     0.00005158    0.00164872   -0.00050007
     atom   51 type  1   force =     0.00003110   -0.00166430   -0.00047912
     atom   52 type  1   force =    -0.00005158   -0.00164872    0.00050007
     atom   53 type  1   force =    -0.00220313   -0.00036368   -0.00106046
     atom   54 type  1   force =     0.00212375   -0.00054993    0.00103571
     atom   55 type  1   force =     0.00220313    0.00036368    0.00106046
     atom   56 type  1   force =    -0.00212375    0.00054993   -0.00103571
     atom   57 type  1   force =    -0.00086477   -0.00081953    0.00099067
     atom   58 type  1   force =     0.00092180   -0.00072912   -0.00104761
     atom   59 type  1   force =     0.00086477    0.00081953   -0.00099067
     atom   60 type  1   force =    -0.00092180    0.00072912    0.00104761
     atom   61 type  1   force =    -0.00147038   -0.00265017   -0.00245370
     atom   62 type  1   force =     0.00147361   -0.00256005    0.00253791
     atom   63 type  1   force =     0.00147038    0.00265017    0.00245370
     atom   64 type  1   force =    -0.00147361    0.00256005   -0.00253791
     atom   65 type  4   force =    -0.00059335   -0.00169380    0.00103559
     atom   66 type  4   force =     0.00061552   -0.00167699   -0.00101574
     atom   67 type  4   force =     0.00059335    0.00169380   -0.00103559
     atom   68 type  4   force =    -0.00061552    0.00167699    0.00101574
     atom   69 type  2   force =    -0.00257376    0.00154387   -0.00022987
     atom   70 type  2   force =     0.00250777    0.00153912    0.00026522
     atom   71 type  2   force =     0.00257376   -0.00154387    0.00022987
     atom   72 type  2   force =    -0.00250777   -0.00153912   -0.00026522
     atom   73 type  3   force =     0.00001604    0.00022286    0.00016261
     atom   74 type  3   force =    -0.00001299    0.00017169   -0.00017799
     atom   75 type  3   force =    -0.00001604   -0.00022286   -0.00016261
     atom   76 type  3   force =     0.00001299   -0.00017169    0.00017799
     atom   77 type  3   force =     0.00020512   -0.00064564   -0.00080220
     atom   78 type  3   force =    -0.00022591   -0.00063880    0.00080696
     atom   79 type  3   force =    -0.00020512    0.00064564    0.00080220
     atom   80 type  3   force =     0.00022591    0.00063880   -0.00080696
     atom   81 type  3   force =    -0.00019029    0.00036227   -0.00017956
     atom   82 type  3   force =     0.00018992    0.00037926    0.00020189
     atom   83 type  3   force =     0.00019029   -0.00036227    0.00017956
     atom   84 type  3   force =    -0.00018992   -0.00037926   -0.00020189
     atom   85 type  3   force =     0.00026652    0.00048813    0.00048646
     atom   86 type  3   force =    -0.00026866    0.00049301   -0.00047226
     atom   87 type  3   force =    -0.00026652   -0.00048813   -0.00048646
     atom   88 type  3   force =     0.00026866   -0.00049301    0.00047226
     atom   89 type  3   force =     0.00037744   -0.00051804   -0.00040401
     atom   90 type  3   force =    -0.00034698   -0.00052650    0.00037960
     atom   91 type  3   force =    -0.00037744    0.00051804    0.00040401
     atom   92 type  3   force =     0.00034698    0.00052650   -0.00037960
     atom   93 type  3   force =    -0.00012303   -0.00020580    0.00321106
     atom   94 type  3   force =     0.00012456   -0.00020732   -0.00323721
     atom   95 type  3   force =     0.00012303    0.00020580   -0.00321106
     atom   96 type  3   force =    -0.00012456    0.00020732    0.00323721

     Total force =     0.021190     Total SCF correction =     0.000141


     Computing stress (Cartesian axis) and pressure

          total   stress  (Ry/bohr**3)                   (kbar)     P=   -5.85
  -0.00002735  -0.00000004   0.00001283         -4.02     -0.01      1.89
  -0.00000004  -0.00003121   0.00000017         -0.01     -4.59      0.03
   0.00001283   0.00000017  -0.00006070          1.89      0.03     -8.93


     Writing output data file scf.save
 
     init_run     :     40.90s CPU     42.57s WALL (       1 calls)
     electrons    :   1524.29s CPU   1587.19s WALL (       1 calls)
     forces       :     20.36s CPU     20.57s WALL (       1 calls)
     stress       :     82.99s CPU     83.35s WALL (       1 calls)

     Called by init_run:
     wfcinit      :     31.14s CPU     32.66s WALL (       1 calls)
     potinit      :      3.41s CPU      3.44s WALL (       1 calls)

     Called by electrons:
     c_bands      :   1366.01s CPU   1419.17s WALL (      19 calls)
     sum_band     :    141.84s CPU    150.03s WALL (      19 calls)
     v_of_rho     :      2.42s CPU      2.66s WALL (      20 calls)
     newd         :      5.59s CPU      6.82s WALL (      20 calls)
     PAW_pot      :      7.62s CPU      7.63s WALL (      20 calls)
     mix_rho      :      0.66s CPU      0.72s WALL (      19 calls)

     Called by c_bands:
     init_us_2    :      8.23s CPU      8.27s WALL (     328 calls)
     cegterg      :   1334.79s CPU   1387.84s WALL (     152 calls)

     Called by sum_band:
     sum_band:bec :      0.08s CPU      0.08s WALL (     152 calls)
     addusdens    :      5.59s CPU      6.79s WALL (      19 calls)

     Called by *egterg:
     h_psi        :    745.01s CPU    787.34s WALL (     725 calls)
     s_psi        :    150.09s CPU    150.13s WALL (     725 calls)
     g_psi        :      3.65s CPU      3.65s WALL (     565 calls)
     cdiaghg      :     65.74s CPU     65.83s WALL (     717 calls)

     Called by h_psi:
     h_psi:pot    :    739.65s CPU    781.89s WALL (     725 calls)
     h_psi:calbec :    151.92s CPU    152.26s WALL (     725 calls)
     vloc_psi     :    437.29s CPU    479.15s WALL (     725 calls)
     add_vuspsi   :    150.43s CPU    150.47s WALL (     725 calls)

     General routines
     calbec       :    223.84s CPU    224.36s WALL (     917 calls)
     fft          :      2.26s CPU      2.64s WALL (     284 calls)
     fftw         :    466.78s CPU    513.39s WALL (  165074 calls)
 
     Parallel routines
     fft_scatter  :     95.79s CPU    135.62s WALL (  165358 calls)
 
     PWSCF        : 27m57.33s CPU    29m43.31s WALL

 
   This run was terminated on:  15:28:16  21Dec2017            

=------------------------------------------------------------------------------=
   JOB DONE.
=------------------------------------------------------------------------------=
