
     Program PWSCF v.6.1 (svn rev. 13369) starts on  4Nov2017 at  6:47:48 

     This program is part of the open-source Quantum ESPRESSO suite
     for quantum simulation of materials; please cite
         "P. Giannozzi et al., J. Phys.:Condens. Matter 21 395502 (2009);
          URL http://www.quantum-espresso.org", 
     in publications or presentations arising from this work. More details at
     http://www.quantum-espresso.org/quote

     Parallel version (MPI), running on     8 processors
     R & G space division:  proc/nbgrp/npool/nimage =       8
     Waiting for input...
     Reading input from standard input

     Current dimensions of program PWSCF are:
     Max number of different atomic species (ntypx) = 10
     Max number of k-points (npk) =  40000
     Max angular momentum in pseudopotentials (lmaxx) =  3
               file C.pbe-n-kjpaw_psl.0.1.UPF: wavefunction(s)  2P renormalized
               file N.pbe-n-kjpaw_psl.0.1.UPF: wavefunction(s)  2P renormalized
               file H.pbe-kjpaw_psl.0.1.UPF: wavefunction(s)  1S renormalized
               file O.pbe-n-kjpaw_psl.0.1.UPF: wavefunction(s)  2P renormalized

     -------------------------------------
     Parameters for Dispersion Correction:
     -------------------------------------
       atom      VdW radius       C_6     

        C          2.744         60.710
        N          2.640         42.670
        H          1.892          4.857
        O          2.536         24.284

     Subspace diagonalization in iterative solution of the eigenvalue problem:
     a serial algorithm will be used

 
     Parallelization info
     --------------------
     sticks:   dense  smooth     PW     G-vecs:    dense   smooth      PW
     Min        1328    1328    348                91517    91517   12333
     Max        1329    1329    349                91519    91519   12334
     Sum       10627   10627   2787               732139   732139   98667
 


     bravais-lattice index     =            0
     lattice parameter (alat)  =      12.8435  a.u.
     unit-cell volume          =    5419.9731 (a.u.)^3
     number of atoms/cell      =           96
     number of atomic types    =            4
     number of electrons       =       264.00
     number of Kohn-Sham states=          158
     kinetic-energy cutoff     =     100.0000  Ry
     charge density cutoff     =     400.0000  Ry
     convergence threshold     =      1.0E-08
     mixing beta               =       0.5000
     number of iterations used =            8  plain     mixing
     Exchange-correlation      =  SLA  PW   PBX  PBC ( 1  4  3  4 0 0)

     celldm(1)=  12.843524  celldm(2)=   0.000000  celldm(3)=   0.000000
     celldm(4)=   0.000000  celldm(5)=   0.000000  celldm(6)=   0.000000

     crystal axes: (cart. coord. in units of alat)
               a(1) = (   1.000000   0.000000   0.000000 )  
               a(2) = (  -0.069316   2.025490   0.000000 )  
               a(3) = (  -0.265941  -0.010228   1.263032 )  

     reciprocal axes: (cart. coord. in units 2 pi/alat)
               b(1) = (  1.000000  0.034222  0.210835 )  
               b(2) = (  0.000000  0.493708  0.003998 )  
               b(3) = (  0.000000  0.000000  0.791745 )  


     PseudoPot. # 1 for  C read from file:
     /scratch/ahofstet/pseudo/C.pbe-n-kjpaw_psl.0.1.UPF
     MD5 check sum: 430fe95172b1e11ef3f8ed03bac87931
     Pseudo is Projector augmented-wave + core cor, Zval =  4.0
     Generated using "atomic" code by A. Dal Corso  v.5.0.99 svn rev. 10869
     Shape of augmentation charge: BESSEL
     Using radial grid of 1073 points,  4 beta functions with: 
                l(1) =   0
                l(2) =   0
                l(3) =   1
                l(4) =   1
     Q(r) pseudized with 0 coefficients 


     PseudoPot. # 2 for  N read from file:
     /scratch/ahofstet/pseudo/N.pbe-n-kjpaw_psl.0.1.UPF
     MD5 check sum: f73187c8b701007e77325f868c9291d7
     Pseudo is Projector augmented-wave + core cor, Zval =  5.0
     Generated using "atomic" code by A. Dal Corso  v.5.0.99 svn rev. 10869
     Shape of augmentation charge: PSQ
     Using radial grid of 1085 points,  4 beta functions with: 
                l(1) =   0
                l(2) =   0
                l(3) =   1
                l(4) =   1
     Q(r) pseudized with 0 coefficients 


     PseudoPot. # 3 for  H read from file:
     /scratch/ahofstet/pseudo/H.pbe-kjpaw_psl.0.1.UPF
     MD5 check sum: 94e484f906d9e9773b2f6e52662335b2
     Pseudo is Projector augmented-wave, Zval =  1.0
     Generated using "atomic" code by A. Dal Corso  v.5.0.99 svn rev. 10869
     Shape of augmentation charge: PSQ
     Using radial grid of  929 points,  2 beta functions with: 
                l(1) =   0
                l(2) =   0
     Q(r) pseudized with 0 coefficients 


     PseudoPot. # 4 for  O read from file:
     /scratch/ahofstet/pseudo/O.pbe-n-kjpaw_psl.0.1.UPF
     MD5 check sum: 3f94a2996a3169367d6eb21d9b593f20
     Pseudo is Projector augmented-wave + core cor, Zval =  6.0
     Generated using "atomic" code by A. Dal Corso  v.5.0.99 svn rev. 10869
     Shape of augmentation charge: BESSEL
     Using radial grid of 1095 points,  4 beta functions with: 
                l(1) =   0
                l(2) =   0
                l(3) =   1
                l(4) =   1
     Q(r) pseudized with 0 coefficients 


     atomic species   valence    mass     pseudopotential
        C              4.00    12.01070      C( 1.00)
        N              5.00    14.00670      N( 1.00)
        H              1.00     1.00794      H( 1.00)
        O              6.00    15.99940      O( 1.00)

      2 Sym. Ops., with inversion, found



   Cartesian axes

     site n.     atom                  positions (alat units)
         1           O   tau(   1) = (   0.0493116   1.8930750   0.3167398  )
         2           O   tau(   2) = (   0.6154314   0.1221868   0.9462926  )
         3           O   tau(   3) = (   0.0188787   1.6614884   1.2237173  )
         4           O   tau(   4) = (   0.6458642   0.3537733   0.0393151  )
         5           O   tau(   5) = (   0.1935761   0.8448692   0.3106279  )
         6           O   tau(   6) = (   0.4711668   1.1703925   0.9524046  )
         7           O   tau(   7) = (  -0.0001617   0.6535219   0.7061568  )
         8           O   tau(   8) = (   0.6649047   1.3617398   0.5568756  )
         9           N   tau(   9) = (   0.1488984   0.2842905   0.0952060  )
        10           N   tau(  10) = (   0.5158445   1.7309712   1.1678264  )
        11           N   tau(  11) = (   0.1039390   0.0328329   0.9676748  )
        12           N   tau(  12) = (   0.5608039   1.9824288   0.2953576  )
        13           N   tau(  13) = (   0.1613265   1.2822391   0.4902496  )
        14           N   tau(  14) = (   0.5034164   0.7330226   0.7727829  )
        15           N   tau(  15) = (  -0.0037226   1.0747296   0.9236553  )
        16           N   tau(  16) = (   0.6684655   0.9405322   0.3393771  )
        17           C   tau(  17) = (   0.1219480   1.9428301   0.1569691  )
        18           C   tau(  18) = (   0.5427949   0.0724317   1.1060634  )
        19           C   tau(  19) = (   0.2071082   0.1037769   0.0459579  )
        20           C   tau(  20) = (   0.4576347   1.9114848   1.2170745  )
        21           C   tau(  21) = (  -0.0362791   2.0182892   1.1460381  )
        22           C   tau(  22) = (   0.7010220  -0.0030275   0.1169944  )
        23           C   tau(  23) = (  -0.0402255   1.8306914   1.2557458  )
        24           C   tau(  24) = (   0.7049684   0.1845704   0.0072866  )
        25           C   tau(  25) = (   0.0708633   0.3228293   0.2924590  )
        26           C   tau(  26) = (   0.5938796   1.6924325   0.9705734  )
        27           C   tau(  27) = (  -0.1033794   0.4459754   1.2305832  )
        28           C   tau(  28) = (   0.7681223   1.5692863   0.0324492  )
        29           C   tau(  29) = (   0.1093098   0.2288754   0.8805249  )
        30           C   tau(  30) = (   0.5554331   1.7863863   0.3825076  )
        31           C   tau(  31) = (   0.1116236   1.9004412   0.8428848  )
        32           C   tau(  32) = (   0.5531193   0.1148206   0.4201476  )
        33           C   tau(  33) = (   0.1335570   0.9086208   0.4705448  )
        34           C   tau(  34) = (   0.5311859   1.1066410   0.7924877  )
        35           C   tau(  35) = (   0.1202118   1.1050848   0.5635509  )
        36           C   tau(  36) = (   0.5445311   0.9101769   0.6994815  )
        37           C   tau(  37) = (   0.0466040   1.0183962   0.7427131  )
        38           C   tau(  38) = (   0.6181389   0.9968655   0.5203194  )
        39           C   tau(  39) = (   0.0479086   0.8206036   0.6522494  )
        40           C   tau(  40) = (   0.6168343   1.1946581   0.6107830  )
        41           C   tau(  41) = (   0.2539778   1.2996635   0.2963751  )
        42           C   tau(  42) = (   0.4107651   0.7155982   0.9666574  )
        43           C   tau(  43) = (   0.1247218   1.4694515   0.5885793  )
        44           C   tau(  44) = (   0.5400211   0.5458102   0.6744531  )
        45           C   tau(  45) = (   0.0248496   1.2719862   1.0016811  )
        46           C   tau(  46) = (   0.6398933   0.7432755   0.2613513  )
        47           C   tau(  47) = (  -0.1002221   0.9370359   1.0582481  )
        48           C   tau(  48) = (   0.7649650   1.0782258   0.2047844  )
        49           H   tau(  49) = (  -0.0791593   0.3814493   0.2786910  )
        50           H   tau(  50) = (   0.7439022   1.6338125   0.9843414  )
        51           H   tau(  51) = (   0.0671438   0.1866243   0.3782940  )
        52           H   tau(  52) = (   0.5975991   1.8286374   0.8847384  )
        53           H   tau(  53) = (   0.1608800   0.4348911   0.3670053  )
        54           H   tau(  54) = (   0.5038629   1.5803706   0.8960271  )
        55           H   tau(  55) = (   0.0507753   0.4906229   1.2109338  )
        56           H   tau(  56) = (   0.6139676   1.5246388   0.0520986  )
        57           H   tau(  57) = (   0.0843495   0.5772162   0.0397582  )
        58           H   tau(  58) = (   0.5803934   1.4380455   1.2232742  )
        59           H   tau(  59) = (  -0.1711428   0.4154227   1.0873431  )
        60           H   tau(  60) = (   0.8358857   1.5998390   0.1756893  )
        61           H   tau(  61) = (   0.1987328   0.2209692   0.7466404  )
        62           H   tau(  62) = (   0.4660101   1.7942925   0.5163920  )
        63           H   tau(  63) = (   0.1789367   0.3337558   0.9813424  )
        64           H   tau(  64) = (   0.4858062   1.6815059   0.2816900  )
        65           H   tau(  65) = (  -0.0388687   0.2799270   0.8411414  )
        66           H   tau(  66) = (   0.7036116   1.7353347   0.4218911  )
        67           H   tau(  67) = (   0.2683532   1.9281883   0.8136538  )
        68           H   tau(  68) = (   0.3963897   0.0870734   0.4493786  )
        69           H   tau(  69) = (   0.0949263   1.7582453   0.9168352  )
        70           H   tau(  70) = (   0.5698166   0.2570164   0.3461973  )
        71           H   tau(  71) = (   0.0340876   1.8994768   0.7003153  )
        72           H   tau(  72) = (   0.6306553   0.1157849   0.5627171  )
        73           H   tau(  73) = (   0.4026389   1.3616176   0.3136638  )
        74           H   tau(  74) = (   0.2621040   0.6536442   0.9493687  )
        75           H   tau(  75) = (   0.2641131   1.1544996   0.2273977  )
        76           H   tau(  76) = (   0.4006299   0.8607621   1.0356347  )
        77           H   tau(  77) = (   0.1682391   1.4009703   0.2036985  )
        78           H   tau(  78) = (   0.4965038   0.6142914   1.0593339  )
        79           H   tau(  79) = (  -0.0125872   1.4630349   0.6721136  )
        80           H   tau(  80) = (   0.6773301   0.5522268   0.5909188  )
        81           H   tau(  81) = (   0.1094155   1.5839938   0.4753550  )
        82           H   tau(  82) = (   0.5553274   0.4312680   0.7876775  )
        83           H   tau(  83) = (   0.2486958   1.5092066   0.6852111  )
        84           H   tau(  84) = (   0.4160472   0.5060551   0.5778213  )
        85           H   tau(  85) = (   0.0456639   1.2612456   1.1611203  )
        86           H   tau(  86) = (   0.6190790   0.7540161   0.1019122  )
        87           H   tau(  87) = (  -0.1042559   1.3654885   0.9743531  )
        88           H   tau(  88) = (   0.7689988   0.6497733   0.2886793  )
        89           H   tau(  89) = (   0.1574207   1.3385617   0.9400816  )
        90           H   tau(  90) = (   0.5073222   0.6767001   0.3229508  )
        91           H   tau(  91) = (  -0.2484872   0.9922092   1.0929122  )
        92           H   tau(  92) = (   0.9132301   1.0230525   0.1701202  )
        93           H   tau(  93) = (  -0.1111119   0.7916636   0.9896063  )
        94           H   tau(  94) = (   0.7758548   1.2235981   0.2734261  )
        95           H   tau(  95) = (  -0.0170299   0.9266295   1.1970360  )
        96           H   tau(  96) = (   0.6817728   1.0886323   0.0659965  )

     number of k points=     8
                       cart. coord. in units 2pi/alat
        k(    1) = (   0.0000000   0.0000000   0.0000000), wk =   0.1666667
        k(    2) = (   0.0000000   0.0000000  -0.3958727), wk =   0.1666667
        k(    3) = (   0.0000000  -0.2468539  -0.0019990), wk =   0.1666667
        k(    4) = (   0.0000000  -0.2468539  -0.3978717), wk =   0.1666667
        k(    5) = (   0.3333333   0.0114073   0.0702783), wk =   0.3333333
        k(    6) = (   0.3333333   0.0114073  -0.3255944), wk =   0.3333333
        k(    7) = (   0.3333333  -0.2354466   0.0682792), wk =   0.3333333
        k(    8) = (   0.3333333  -0.2354466  -0.3275934), wk =   0.3333333

     Dense  grid:   732139 G-vectors     FFT dimensions: (  81, 180, 108)

     Estimated max dynamical RAM per process >     620.87MB

     Estimated total allocated dynamical RAM >    4966.94MB

     Check: negative/imaginary core charge=   -0.000002    0.000000

     Initial potential from superposition of free atoms

     starting charge  263.99814, renormalised to  264.00000
     Starting wfc are  240 randomized atomic wfcs
     Checking if some PAW data can be deallocated... 

     total cpu time spent up to now is       39.4 secs

     per-process dynamical memory:   441.3 Mb

     Self-consistent Calculation

     iteration #  1     ecut=   100.00 Ry     beta=0.50
     Davidson diagonalization with overlap
     ethr =  1.00E-02,  avg # of iterations =  3.2

     total cpu time spent up to now is      138.6 secs

     total energy              =   -1204.48747645 Ry
     Harris-Foulkes estimate   =   -1209.04175583 Ry
     estimated scf accuracy    <       8.99150768 Ry

     iteration #  2     ecut=   100.00 Ry     beta=0.50
     Davidson diagonalization with overlap
     ethr =  3.41E-03,  avg # of iterations =  2.0

     total cpu time spent up to now is      192.3 secs

     total energy              =   -1204.83610325 Ry
     Harris-Foulkes estimate   =   -1205.67531255 Ry
     estimated scf accuracy    <       1.63414623 Ry

     iteration #  3     ecut=   100.00 Ry     beta=0.50
     Davidson diagonalization with overlap
     ethr =  6.19E-04,  avg # of iterations =  7.4

     total cpu time spent up to now is      305.7 secs

     total energy              =   -1205.76367522 Ry
     Harris-Foulkes estimate   =   -1206.33554222 Ry
     estimated scf accuracy    <       1.60314787 Ry

     iteration #  4     ecut=   100.00 Ry     beta=0.50
     Davidson diagonalization with overlap
     ethr =  6.07E-04,  avg # of iterations =  2.5

     total cpu time spent up to now is      357.0 secs

     total energy              =   -1205.69808237 Ry
     Harris-Foulkes estimate   =   -1205.89041326 Ry
     estimated scf accuracy    <       0.33367083 Ry

     iteration #  5     ecut=   100.00 Ry     beta=0.50
     Davidson diagonalization with overlap
     ethr =  1.26E-04,  avg # of iterations =  5.6

     total cpu time spent up to now is      467.1 secs

     total energy              =   -1205.92141094 Ry
     Harris-Foulkes estimate   =   -1206.00325552 Ry
     estimated scf accuracy    <       0.31111001 Ry

     iteration #  6     ecut=   100.00 Ry     beta=0.50
     Davidson diagonalization with overlap
     ethr =  1.18E-04,  avg # of iterations =  1.0

     total cpu time spent up to now is      516.2 secs

     total energy              =   -1205.88038254 Ry
     Harris-Foulkes estimate   =   -1205.93187081 Ry
     estimated scf accuracy    <       0.12999894 Ry

     iteration #  7     ecut=   100.00 Ry     beta=0.50
     Davidson diagonalization with overlap
     ethr =  4.92E-05,  avg # of iterations =  5.0

     total cpu time spent up to now is      587.2 secs

     total energy              =   -1205.91401713 Ry
     Harris-Foulkes estimate   =   -1205.91466112 Ry
     estimated scf accuracy    <       0.00159684 Ry

     iteration #  8     ecut=   100.00 Ry     beta=0.50
     Davidson diagonalization with overlap
     ethr =  6.05E-07,  avg # of iterations =  5.4

     total cpu time spent up to now is      714.5 secs

     total energy              =   -1205.91742329 Ry
     Harris-Foulkes estimate   =   -1205.91783826 Ry
     estimated scf accuracy    <       0.00189884 Ry

     iteration #  9     ecut=   100.00 Ry     beta=0.50
     Davidson diagonalization with overlap
     c_bands:  1 eigenvalues not converged
     ethr =  6.05E-07,  avg # of iterations = 10.9

     total cpu time spent up to now is      774.7 secs

     total energy              =   -1205.91714739 Ry
     Harris-Foulkes estimate   =   -1205.91754335 Ry
     estimated scf accuracy    <       0.00089982 Ry

     iteration # 10     ecut=   100.00 Ry     beta=0.50
     Davidson diagonalization with overlap
     ethr =  3.41E-07,  avg # of iterations =  3.1

     total cpu time spent up to now is      838.5 secs

     total energy              =   -1205.91733284 Ry
     Harris-Foulkes estimate   =   -1205.91734444 Ry
     estimated scf accuracy    <       0.00006080 Ry

     iteration # 11     ecut=   100.00 Ry     beta=0.50
     Davidson diagonalization with overlap
     ethr =  2.30E-08,  avg # of iterations =  4.0

     total cpu time spent up to now is      929.4 secs

     total energy              =   -1205.91737505 Ry
     Harris-Foulkes estimate   =   -1205.91738217 Ry
     estimated scf accuracy    <       0.00001477 Ry

     iteration # 12     ecut=   100.00 Ry     beta=0.50
     Davidson diagonalization with overlap
     ethr =  5.60E-09,  avg # of iterations =  3.8

     total cpu time spent up to now is      987.0 secs

     total energy              =   -1205.91737793 Ry
     Harris-Foulkes estimate   =   -1205.91737802 Ry
     estimated scf accuracy    <       0.00000047 Ry

     iteration # 13     ecut=   100.00 Ry     beta=0.50
     Davidson diagonalization with overlap
     ethr =  1.78E-10,  avg # of iterations =  4.6

     total cpu time spent up to now is     1101.5 secs

     total energy              =   -1205.91737891 Ry
     Harris-Foulkes estimate   =   -1205.91737968 Ry
     estimated scf accuracy    <       0.00000205 Ry

     iteration # 14     ecut=   100.00 Ry     beta=0.50
     Davidson diagonalization with overlap
     ethr =  1.78E-10,  avg # of iterations =  5.0

     total cpu time spent up to now is     1178.3 secs

     total energy              =   -1205.91737908 Ry
     Harris-Foulkes estimate   =   -1205.91737914 Ry
     estimated scf accuracy    <       0.00000015 Ry

     iteration # 15     ecut=   100.00 Ry     beta=0.50
     Davidson diagonalization with overlap
     ethr =  5.73E-11,  avg # of iterations =  4.6

     total cpu time spent up to now is     1243.3 secs

     total energy              =   -1205.91737911 Ry
     Harris-Foulkes estimate   =   -1205.91737912 Ry
     estimated scf accuracy    <       0.00000002 Ry

     iteration # 16     ecut=   100.00 Ry     beta=0.50
     Davidson diagonalization with overlap
     ethr =  5.85E-12,  avg # of iterations =  4.6

     total cpu time spent up to now is     1333.2 secs

     total energy              =   -1205.91737913 Ry
     Harris-Foulkes estimate   =   -1205.91737913 Ry
     estimated scf accuracy    <       0.00000001 Ry

     iteration # 17     ecut=   100.00 Ry     beta=0.50
     Davidson diagonalization with overlap
     ethr =  4.32E-12,  avg # of iterations =  1.4

     total cpu time spent up to now is     1382.6 secs

     End of self-consistent calculation

          k = 0.0000 0.0000 0.0000 ( 91595 PWs)   bands (ev):

   -19.1523 -19.1382 -19.0431 -19.0329 -18.5990 -18.5947 -18.5798 -18.5708
   -17.7711 -17.7671 -17.7286 -17.7203 -17.3872 -17.3817 -17.3549 -17.3455
   -14.7462 -14.6943 -14.6294 -14.6081 -11.5274 -11.4046 -11.3944 -11.3580
   -11.3249 -11.2396 -11.2383 -11.2009 -10.9216 -10.8954 -10.8919 -10.8872
   -10.8316 -10.8067 -10.7468 -10.7235  -7.7874  -7.5701  -7.5663  -7.4610
    -7.3628  -7.3220  -7.1786  -7.1366  -6.3065  -6.2831  -6.2054  -6.1150
    -6.0541  -5.9230  -5.7833  -5.7357  -5.6807  -5.6102  -5.5360  -5.5300
    -5.5110  -5.4746  -5.1423  -5.0336  -5.0296  -4.9669  -4.8941  -4.7958
    -4.7785  -4.6169  -4.5676  -4.5384  -4.0249  -3.9227  -3.8766  -3.8124
    -3.8000  -3.7209  -3.6890  -3.6593  -3.6428  -3.5731  -3.5660  -3.5232
    -3.5055  -3.4450  -3.4288  -3.3937  -3.3292  -3.3201  -3.2598  -3.2010
    -3.1574  -3.1377  -3.0605  -2.9984  -2.9428  -2.9171  -2.8758  -2.8582
    -2.8424  -2.7753  -2.7534  -2.6909  -2.6389  -2.6008  -2.5807  -2.5442
    -2.1262  -2.1183  -2.0658  -1.9942  -1.9108  -1.8744  -1.6799  -1.6659
    -1.4429  -1.3000  -1.2759  -1.1652  -0.2981  -0.1575  -0.1363  -0.0922
     0.0339   0.0545   0.0644   0.0646   1.4766   1.4772   1.4984   1.5103
     1.6867   1.8784   2.0068   2.1763   4.8090   4.9197   4.9284   5.0199
     5.1063   5.1425   5.1932   5.4133   6.3493   6.7442   7.0183   7.4578
     7.4789   7.5433   7.6887   7.7329   7.8383   8.0176   8.0186   8.2439
     8.3108   8.5703   8.6110   8.6538   8.6868   8.8074

          k = 0.0000 0.0000-0.3959 ( 91540 PWs)   bands (ev):

   -19.1503 -19.1376 -19.0425 -19.0325 -18.6001 -18.5963 -18.5804 -18.5714
   -17.7707 -17.7658 -17.7308 -17.7208 -17.3906 -17.3822 -17.3565 -17.3440
   -14.7349 -14.6907 -14.6235 -14.6070 -11.5048 -11.5039 -11.3856 -11.3447
   -11.2861 -11.2538 -11.2120 -11.1926 -11.0002 -10.9621 -10.9145 -10.8801
   -10.7915 -10.7730 -10.7219 -10.7208  -7.6090  -7.6059  -7.4425  -7.3949
    -7.3698  -7.3674  -7.2393  -7.2158  -6.2835  -6.2565  -6.2017  -6.1544
    -6.0025  -5.9376  -5.8449  -5.7846  -5.7210  -5.7186  -5.6160  -5.5983
    -5.5731  -5.5631  -5.0737  -5.0410  -5.0313  -4.9363  -4.7071  -4.6968
    -4.6032  -4.5726  -4.5423  -4.5192  -4.0426  -4.0141  -3.9456  -3.9416
    -3.8550  -3.8316  -3.7797  -3.7400  -3.6688  -3.6425  -3.5632  -3.5300
    -3.5042  -3.4471  -3.3580  -3.3425  -3.2424  -3.2275  -3.1504  -3.1336
    -3.0537  -3.0136  -3.0129  -2.9723  -2.9153  -2.9100  -2.8989  -2.8658
    -2.8287  -2.8007  -2.6998  -2.6545  -2.6456  -2.6011  -2.5728  -2.5211
    -2.2316  -2.1812  -2.0981  -2.0940  -1.9164  -1.8691  -1.7193  -1.6936
    -1.4465  -1.3214  -1.2668  -1.2449  -0.2964  -0.1613  -0.0794  -0.0633
     0.0283   0.0493   0.0505   0.0556   1.4584   1.4662   1.5141   1.5141
     1.7422   1.8360   2.0627   2.1934   4.7999   4.8937   4.9609   5.0071
     5.0789   5.1215   5.1961   5.3766   6.6761   6.8711   7.0125   7.1052
     7.2346   7.4912   7.5533   7.6767   7.9425   8.0133   8.2287   8.2476
     8.4096   8.4344   8.4838   8.5178   8.6919   8.7420

          k = 0.0000-0.2469-0.0020 ( 91550 PWs)   bands (ev):

   -19.1516 -19.1390 -19.0431 -19.0329 -18.5987 -18.5951 -18.5798 -18.5708
   -17.7705 -17.7670 -17.7292 -17.7204 -17.3871 -17.3814 -17.3550 -17.3458
   -14.7431 -14.6977 -14.6277 -14.6096 -11.4932 -11.4694 -11.3662 -11.3569
   -11.3183 -11.2674 -11.2165 -11.1928 -10.9246 -10.9207 -10.8893 -10.8807
   -10.8244 -10.8028 -10.7373 -10.7336  -7.6944  -7.6831  -7.5210  -7.4772
    -7.2922  -7.2900  -7.2389  -7.2176  -6.2723  -6.2691  -6.1870  -6.1610
    -6.0267  -5.9743  -5.7683  -5.7417  -5.6701  -5.6339  -5.5475  -5.5188
    -5.5036  -5.4926  -5.0435  -5.0123  -4.9986  -4.9259  -4.8740  -4.8029
    -4.7621  -4.7131  -4.6012  -4.5755  -4.0576  -3.9659  -3.9392  -3.8608
    -3.7129  -3.7095  -3.6873  -3.6691  -3.5949  -3.5753  -3.5240  -3.5051
    -3.4689  -3.4622  -3.4246  -3.3817  -3.3502  -3.3257  -3.2397  -3.2063
    -3.1427  -3.0896  -3.0775  -3.0704  -2.9750  -2.9731  -2.8395  -2.8226
    -2.8152  -2.7956  -2.7212  -2.6923  -2.6880  -2.5993  -2.5615  -2.5568
    -2.1383  -2.0966  -2.0438  -2.0200  -1.9093  -1.8696  -1.6795  -1.6688
    -1.4564  -1.3436  -1.2115  -1.1662  -0.3046  -0.1493  -0.1355  -0.1073
     0.0217   0.0382   0.0784   0.0818   1.4797   1.4849   1.4918   1.5168
     1.6920   1.8256   2.0610   2.1623   4.8137   4.8957   4.9893   4.9938
     5.0805   5.1599   5.1884   5.4127   6.4641   6.5077   7.3017   7.3315
     7.4506   7.5711   7.6413   7.7731   7.8457   7.9159   8.1304   8.1796
     8.3008   8.5134   8.5152   8.6479   8.7376   8.7933

          k = 0.0000-0.2469-0.3979 ( 91540 PWs)   bands (ev):

   -19.1502 -19.1376 -19.0425 -19.0325 -18.6002 -18.5963 -18.5804 -18.5714
   -17.7706 -17.7656 -17.7310 -17.7208 -17.3906 -17.3823 -17.3566 -17.3441
   -14.7350 -14.6907 -14.6236 -14.6070 -11.5018 -11.4792 -11.4066 -11.3627
   -11.2895 -11.2470 -11.2088 -11.1885 -11.0019 -10.9664 -10.9141 -10.8800
   -10.7855 -10.7600 -10.7348 -10.7218  -7.5656  -7.5578  -7.5051  -7.4438
    -7.3184  -7.3184  -7.2806  -7.2609  -6.3236  -6.2816  -6.1848  -6.1351
    -6.0084  -5.9347  -5.8443  -5.7776  -5.6969  -5.6853  -5.6551  -5.6123
    -5.5597  -5.5357  -5.1397  -5.0715  -4.9460  -4.8651  -4.7214  -4.6673
    -4.6394  -4.5838  -4.5621  -4.5222  -4.0390  -3.9795  -3.9526  -3.9246
    -3.8652  -3.8227  -3.8207  -3.8079  -3.6618  -3.6531  -3.5678  -3.5349
    -3.5278  -3.4284  -3.3817  -3.2697  -3.2693  -3.1931  -3.1439  -3.1142
    -3.0542  -3.0478  -3.0016  -2.9875  -2.9136  -2.9043  -2.8808  -2.8452
    -2.8255  -2.7997  -2.7253  -2.6676  -2.6513  -2.5953  -2.5932  -2.5017
    -2.2036  -2.1522  -2.1399  -2.1028  -1.9098  -1.8694  -1.7261  -1.6855
    -1.4531  -1.3160  -1.2700  -1.2546  -0.3058  -0.1559  -0.0742  -0.0554
     0.0277   0.0343   0.0583   0.0651   1.4776   1.4841   1.4961   1.5041
     1.7357   1.8307   2.0619   2.1925   4.8008   4.8996   4.9351   5.0304
     5.0857   5.1176   5.1914   5.3767   6.7192   6.9085   6.9722   6.9757
     7.2626   7.5559   7.5592   7.6134   7.9796   8.1096   8.1785   8.2243
     8.4580   8.4667   8.5346   8.5828   8.5978   8.7468

          k = 0.3333 0.0114 0.0703 ( 91529 PWs)   bands (ev):

   -19.1206 -19.1122 -19.0643 -19.0589 -18.5921 -18.5904 -18.5836 -18.5766
   -17.7812 -17.7664 -17.7408 -17.7213 -17.3910 -17.3814 -17.3535 -17.3457
   -14.7186 -14.6726 -14.6565 -14.6288 -11.4917 -11.4267 -11.3787 -11.3483
   -11.3268 -11.2642 -11.2260 -11.2069 -10.9125 -10.9044 -10.8950 -10.8782
   -10.8206 -10.8015 -10.7640 -10.7396  -7.7414  -7.6377  -7.5436  -7.4955
    -7.3565  -7.3348  -7.1622  -7.1383  -6.2900  -6.2596  -6.2373  -6.1661
    -5.7726  -5.7587  -5.6998  -5.6867  -5.6603  -5.6142  -5.5177  -5.5054
    -5.4910  -5.4758  -5.1316  -5.0818  -5.0209  -4.9624  -4.9275  -4.8837
    -4.8170  -4.7920  -4.6025  -4.5668  -4.0597  -3.9931  -3.9771  -3.9321
    -3.8038  -3.7397  -3.7002  -3.6902  -3.6554  -3.6095  -3.5508  -3.5115
    -3.4609  -3.4363  -3.3897  -3.3298  -3.2958  -3.2863  -3.2424  -3.2206
    -3.1636  -3.1189  -3.0838  -3.0535  -2.9842  -2.9071  -2.8777  -2.8314
    -2.7860  -2.7841  -2.7564  -2.7510  -2.6349  -2.6176  -2.5858  -2.5701
    -2.1197  -2.1096  -2.0780  -2.0355  -1.9178  -1.8506  -1.8240  -1.7844
    -1.3161  -1.2493  -1.1821  -1.1187  -0.2914  -0.2376  -0.1734  -0.1470
     0.0524   0.0592   0.0693   0.0737   1.4390   1.4517   1.4874   1.5025
     1.8466   1.9265   2.0193   2.0974   4.7827   4.8627   4.9022   4.9613
     5.2098   5.2744   5.2978   5.3954   6.9508   7.2044   7.2370   7.3790
     7.5219   7.6115   7.7352   7.7563   7.9039   8.0057   8.1635   8.2367
     8.3501   8.3788   8.4709   8.5182   8.6885   8.7655

          k = 0.3333 0.0114-0.3256 ( 91490 PWs)   bands (ev):

   -19.1186 -19.1120 -19.0631 -19.0586 -18.5928 -18.5920 -18.5843 -18.5774
   -17.7803 -17.7655 -17.7418 -17.7231 -17.3932 -17.3832 -17.3544 -17.3449
   -14.7090 -14.6694 -14.6494 -14.6268 -11.4856 -11.4771 -11.3999 -11.3626
   -11.2725 -11.2518 -11.2179 -11.1978 -10.9837 -10.9553 -10.9319 -10.8916
   -10.7812 -10.7668 -10.7416 -10.7227  -7.6176  -7.5889  -7.4592  -7.4125
    -7.4005  -7.3409  -7.2287  -7.2156  -6.3021  -6.2569  -6.2184  -6.1648
    -5.8403  -5.7866  -5.7506  -5.7334  -5.7037  -5.6478  -5.6026  -5.5748
    -5.5516  -5.5417  -5.1190  -5.0991  -4.9110  -4.8771  -4.8427  -4.7299
    -4.6949  -4.6248  -4.5799  -4.5399  -4.1053  -4.0618  -4.0524  -3.9996
    -3.9050  -3.8383  -3.7813  -3.7674  -3.7604  -3.6299  -3.6060  -3.4800
    -3.4570  -3.3953  -3.3759  -3.3023  -3.2894  -3.2223  -3.2062  -3.1428
    -3.0997  -3.0656  -3.0383  -3.0119  -2.9692  -2.9172  -2.8541  -2.8178
    -2.7897  -2.7509  -2.7069  -2.6493  -2.6338  -2.6192  -2.5634  -2.5098
    -2.2295  -2.1869  -2.1155  -2.1040  -1.9394  -1.8692  -1.8375  -1.8006
    -1.3151  -1.2582  -1.2122  -1.1508  -0.2800  -0.2206  -0.1603  -0.0917
     0.0436   0.0454   0.0566   0.0657   1.4355   1.4626   1.4797   1.5109
     1.8569   1.9414   2.0317   2.1327   4.7985   4.8580   4.8810   4.9359
     5.2010   5.2597   5.2970   5.3738   6.8325   7.0367   7.2582   7.4268
     7.5955   7.6520   7.7760   7.8332   7.9386   8.0202   8.1060   8.1719
     8.2902   8.4192   8.4858   8.5334   8.5804   8.7079

          k = 0.3333-0.2354 0.0683 ( 91544 PWs)   bands (ev):

   -19.1196 -19.1132 -19.0639 -19.0593 -18.5914 -18.5911 -18.5836 -18.5766
   -17.7809 -17.7659 -17.7414 -17.7215 -17.3907 -17.3812 -17.3537 -17.3460
   -14.7160 -14.6752 -14.6546 -14.6307 -11.4641 -11.4425 -11.3912 -11.3725
   -11.2981 -11.2595 -11.2338 -11.2066 -10.9158 -10.9080 -10.8910 -10.8785
   -10.8165 -10.7998 -10.7640 -10.7449  -7.6756  -7.6408  -7.5673  -7.5313
    -7.2823  -7.2763  -7.2401  -7.2287  -6.2610  -6.2550  -6.2162  -6.1970
    -5.7557  -5.7266  -5.7198  -5.7108  -5.6683  -5.6252  -5.5199  -5.5081
    -5.4989  -5.4806  -5.1159  -5.0513  -4.9979  -4.9498  -4.8978  -4.8542
    -4.7664  -4.7306  -4.6858  -4.6631  -4.0825  -4.0485  -4.0138  -3.9890
    -3.7718  -3.7428  -3.6730  -3.6665  -3.6131  -3.5586  -3.5340  -3.5165
    -3.4876  -3.4468  -3.3962  -3.3276  -3.2910  -3.2812  -3.2510  -3.2329
    -3.1657  -3.1142  -3.0743  -3.0680  -2.9531  -2.9411  -2.8432  -2.8167
    -2.8061  -2.7937  -2.7667  -2.7481  -2.6682  -2.6062  -2.5852  -2.5472
    -2.1339  -2.0815  -2.0704  -2.0573  -1.9158  -1.8584  -1.8079  -1.7887
    -1.3060  -1.2801  -1.1663  -1.1147  -0.2962  -0.2303  -0.1890  -0.1459
     0.0333   0.0506   0.0846   0.0885   1.4572   1.4673   1.4756   1.4918
     1.8573   1.8934   2.0317   2.1005   4.7965   4.8851   4.8912   4.9419
     5.2134   5.2739   5.2976   5.3906   7.0211   7.0663   7.2783   7.3123
     7.6136   7.6585   7.7441   7.7974   7.8488   8.0117   8.0849   8.1836
     8.3765   8.4161   8.4872   8.5503   8.6306   8.7080

          k = 0.3333-0.2354-0.3276 ( 91486 PWs)   bands (ev):

   -19.1185 -19.1120 -19.0631 -19.0586 -18.5931 -18.5918 -18.5843 -18.5774
   -17.7803 -17.7653 -17.7418 -17.7232 -17.3931 -17.3833 -17.3544 -17.3450
   -14.7091 -14.6694 -14.6494 -14.6268 -11.4728 -11.4574 -11.4223 -11.3825
   -11.2695 -11.2350 -11.2238 -11.2022 -10.9850 -10.9597 -10.9308 -10.8924
   -10.7788 -10.7588 -10.7382 -10.7317  -7.5655  -7.5463  -7.5085  -7.4708
    -7.3380  -7.3086  -7.2767  -7.2578  -6.3172  -6.2903  -6.2049  -6.1671
    -5.8201  -5.7845  -5.7524  -5.7127  -5.6967  -5.6548  -5.6051  -5.5823
    -5.5390  -5.5280  -5.1033  -5.0916  -4.9453  -4.8802  -4.8051  -4.7725
    -4.6466  -4.6245  -4.5818  -4.5698  -4.0587  -4.0541  -4.0248  -3.9617
    -3.9263  -3.8767  -3.8366  -3.8036  -3.7389  -3.6516  -3.5827  -3.5131
    -3.4767  -3.4044  -3.3897  -3.3274  -3.2480  -3.2054  -3.1896  -3.1485
    -3.1227  -3.0544  -3.0160  -3.0044  -2.9812  -2.9535  -2.8153  -2.7891
    -2.7657  -2.7631  -2.7052  -2.6571  -2.6324  -2.6152  -2.5713  -2.5159
    -2.1954  -2.1693  -2.1413  -2.1323  -1.9325  -1.8817  -1.8292  -1.8035
    -1.3170  -1.2559  -1.2141  -1.1515  -0.3013  -0.2233  -0.1313  -0.1020
     0.0416   0.0467   0.0644   0.0705   1.4468   1.4678   1.4799   1.4899
     1.8846   1.9140   2.0336   2.1291   4.7945   4.8564   4.8908   4.9397
     5.2099   5.2587   5.2908   5.3682   6.8474   6.9942   7.3118   7.4399
     7.5006   7.6829   7.7609   7.8502   7.9300   7.9978   8.0904   8.2095
     8.2361   8.3626   8.4830   8.5867   8.6943   8.7657

     highest occupied, lowest unoccupied level (ev):     2.1934    4.7827

!    total energy              =   -1205.91737913 Ry
     Harris-Foulkes estimate   =   -1205.91737913 Ry
     estimated scf accuracy    <          3.1E-09 Ry

     total all-electron energy =     -4575.533965 Ry

     The total energy is the sum of the following terms:

     one-electron contribution =    -665.36369737 Ry
     hartree contribution      =     435.03019745 Ry
     xc contribution           =    -269.90897242 Ry
     ewald contribution        =    -349.98903908 Ry
     Dispersion Correction     =      -0.50809380 Ry
     one-center paw contrib.   =    -355.17777391 Ry

     convergence has been achieved in  17 iterations

     Forces acting on atoms (cartesian axes, Ry/au):

     atom    1 type  4   force =     0.00428179   -0.00127739    0.00093335
     atom    2 type  4   force =    -0.00428179    0.00127739   -0.00093335
     atom    3 type  4   force =    -0.00064118   -0.00368362    0.00108680
     atom    4 type  4   force =     0.00064118    0.00368362   -0.00108680
     atom    5 type  4   force =    -0.00423344   -0.00220232   -0.00012827
     atom    6 type  4   force =     0.00423344    0.00220232    0.00012827
     atom    7 type  4   force =     0.00023329   -0.00236158   -0.00131497
     atom    8 type  4   force =    -0.00023329    0.00236158    0.00131497
     atom    9 type  2   force =     0.00165078    0.00254176    0.00055510
     atom   10 type  2   force =    -0.00165078   -0.00254176   -0.00055510
     atom   11 type  2   force =    -0.00319178    0.00166243   -0.00049826
     atom   12 type  2   force =     0.00319178   -0.00166243    0.00049826
     atom   13 type  2   force =    -0.00135280    0.00187506   -0.00127057
     atom   14 type  2   force =     0.00135280   -0.00187506    0.00127057
     atom   15 type  2   force =     0.00286901    0.00031230   -0.00057428
     atom   16 type  2   force =    -0.00286901   -0.00031230    0.00057428
     atom   17 type  1   force =    -0.00028786   -0.00075375   -0.00000503
     atom   18 type  1   force =     0.00028786    0.00075375    0.00000503
     atom   19 type  1   force =    -0.00021762    0.00222637    0.00099154
     atom   20 type  1   force =     0.00021762   -0.00222637   -0.00099154
     atom   21 type  1   force =     0.00269525    0.00143772   -0.00216782
     atom   22 type  1   force =    -0.00269525   -0.00143772    0.00216782
     atom   23 type  1   force =    -0.00172589    0.00007085   -0.00013690
     atom   24 type  1   force =     0.00172589   -0.00007085    0.00013690
     atom   25 type  1   force =     0.00035440   -0.00081767    0.00140059
     atom   26 type  1   force =    -0.00035440    0.00081767   -0.00140059
     atom   27 type  1   force =    -0.00061636   -0.00035307    0.00004381
     atom   28 type  1   force =     0.00061636    0.00035307   -0.00004381
     atom   29 type  1   force =    -0.00054432   -0.00029146    0.00008330
     atom   30 type  1   force =     0.00054432    0.00029146   -0.00008330
     atom   31 type  1   force =    -0.00244378   -0.00221435   -0.00193825
     atom   32 type  1   force =     0.00244378    0.00221435    0.00193825
     atom   33 type  1   force =     0.00188346   -0.00091914   -0.00232966
     atom   34 type  1   force =    -0.00188346    0.00091914    0.00232966
     atom   35 type  1   force =     0.00102447    0.00283522   -0.00054188
     atom   36 type  1   force =    -0.00102447   -0.00283522    0.00054188
     atom   37 type  1   force =    -0.00455319    0.00339347    0.00398575
     atom   38 type  1   force =     0.00455319   -0.00339347   -0.00398575
     atom   39 type  1   force =     0.00102922   -0.00173995    0.00119205
     atom   40 type  1   force =    -0.00102922    0.00173995   -0.00119205
     atom   41 type  1   force =     0.00013738    0.00022781   -0.00057293
     atom   42 type  1   force =    -0.00013738   -0.00022781    0.00057293
     atom   43 type  1   force =    -0.00013725   -0.00118182   -0.00111900
     atom   44 type  1   force =     0.00013725    0.00118182    0.00111900
     atom   45 type  1   force =     0.00060958   -0.00033634   -0.00040202
     atom   46 type  1   force =    -0.00060958    0.00033634    0.00040202
     atom   47 type  1   force =     0.00109586   -0.00194327    0.00085084
     atom   48 type  1   force =    -0.00109586    0.00194327   -0.00085084
     atom   49 type  3   force =    -0.00020147   -0.00045575    0.00052004
     atom   50 type  3   force =     0.00020147    0.00045575   -0.00052004
     atom   51 type  3   force =     0.00012348    0.00016985   -0.00010894
     atom   52 type  3   force =    -0.00012348   -0.00016985    0.00010894
     atom   53 type  3   force =     0.00039380   -0.00021571   -0.00094792
     atom   54 type  3   force =    -0.00039380    0.00021571    0.00094792
     atom   55 type  3   force =     0.00156051   -0.00059186   -0.00000305
     atom   56 type  3   force =    -0.00156051    0.00059186    0.00000305
     atom   57 type  3   force =    -0.00031587    0.00039846   -0.00013571
     atom   58 type  3   force =     0.00031587   -0.00039846    0.00013571
     atom   59 type  3   force =    -0.00013354   -0.00000830   -0.00055950
     atom   60 type  3   force =     0.00013354    0.00000830    0.00055950
     atom   61 type  3   force =    -0.00005289    0.00091316    0.00012493
     atom   62 type  3   force =     0.00005289   -0.00091316   -0.00012493
     atom   63 type  3   force =    -0.00049423   -0.00020734   -0.00034394
     atom   64 type  3   force =     0.00049423    0.00020734    0.00034394
     atom   65 type  3   force =    -0.00011980    0.00002633    0.00029961
     atom   66 type  3   force =     0.00011980   -0.00002633   -0.00029961
     atom   67 type  3   force =     0.00107926   -0.00007477    0.00006243
     atom   68 type  3   force =    -0.00107926    0.00007477   -0.00006243
     atom   69 type  3   force =     0.00026047    0.00102176   -0.00034453
     atom   70 type  3   force =    -0.00026047   -0.00102176    0.00034453
     atom   71 type  3   force =    -0.00073080   -0.00014159    0.00342362
     atom   72 type  3   force =     0.00073080    0.00014159   -0.00342362
     atom   73 type  3   force =    -0.00042306   -0.00018480   -0.00026828
     atom   74 type  3   force =     0.00042306    0.00018480    0.00026828
     atom   75 type  3   force =     0.00037090   -0.00068757   -0.00016205
     atom   76 type  3   force =    -0.00037090    0.00068757    0.00016205
     atom   77 type  3   force =     0.00057365   -0.00076580    0.00059889
     atom   78 type  3   force =    -0.00057365    0.00076580   -0.00059889
     atom   79 type  3   force =    -0.00059073   -0.00062527    0.00121376
     atom   80 type  3   force =     0.00059073    0.00062527   -0.00121376
     atom   81 type  3   force =     0.00034273   -0.00019121    0.00099673
     atom   82 type  3   force =    -0.00034273    0.00019121   -0.00099673
     atom   83 type  3   force =     0.00070947   -0.00063321    0.00083474
     atom   84 type  3   force =    -0.00070947    0.00063321   -0.00083474
     atom   85 type  3   force =    -0.00072041   -0.00003453    0.00110805
     atom   86 type  3   force =     0.00072041    0.00003453   -0.00110805
     atom   87 type  3   force =    -0.00068593    0.00005919   -0.00087108
     atom   88 type  3   force =     0.00068593   -0.00005919    0.00087108
     atom   89 type  3   force =    -0.00033840    0.00000499   -0.00027571
     atom   90 type  3   force =     0.00033840   -0.00000499    0.00027571
     atom   91 type  3   force =     0.00038585   -0.00086304    0.00007521
     atom   92 type  3   force =    -0.00038585    0.00086304   -0.00007521
     atom   93 type  3   force =    -0.00020241    0.00038874    0.00025444
     atom   94 type  3   force =     0.00020241   -0.00038874   -0.00025444
     atom   95 type  3   force =     0.00081950   -0.00029697   -0.00213438
     atom   96 type  3   force =    -0.00081950    0.00029697    0.00213438

     Total force =     0.023090     Total SCF correction =     0.000100


     Computing stress (Cartesian axis) and pressure

          total   stress  (Ry/bohr**3)                   (kbar)     P=   -3.30
  -0.00000438  -0.00000165   0.00002124         -0.64     -0.24      3.12
  -0.00000165  -0.00001654   0.00000179         -0.24     -2.43      0.26
   0.00002124   0.00000179  -0.00004633          3.12      0.26     -6.81


     Writing output data file scf.save
 
     init_run     :     37.16s CPU     38.73s WALL (       1 calls)
     electrons    :   1292.66s CPU   1343.43s WALL (       1 calls)
     forces       :     18.76s CPU     18.93s WALL (       1 calls)
     stress       :     68.21s CPU     68.60s WALL (       1 calls)

     Called by init_run:
     wfcinit      :     27.95s CPU     29.27s WALL (       1 calls)
     potinit      :      3.35s CPU      3.41s WALL (       1 calls)

     Called by electrons:
     c_bands      :   1166.24s CPU   1210.41s WALL (      17 calls)
     sum_band     :    113.08s CPU    118.35s WALL (      17 calls)
     v_of_rho     :      1.85s CPU      2.05s WALL (      18 calls)
     newd         :      4.28s CPU      5.25s WALL (      18 calls)
     PAW_pot      :      6.62s CPU      6.63s WALL (      18 calls)
     mix_rho      :      0.41s CPU      0.47s WALL (      17 calls)

     Called by c_bands:
     init_us_2    :      6.31s CPU      6.35s WALL (     296 calls)
     cegterg      :   1143.34s CPU   1187.41s WALL (     136 calls)

     Called by sum_band:
     sum_band:bec :      0.07s CPU      0.07s WALL (     136 calls)
     addusdens    :      4.28s CPU      5.22s WALL (      17 calls)

     Called by *egterg:
     h_psi        :    639.54s CPU    674.32s WALL (     737 calls)
     s_psi        :    128.70s CPU    128.83s WALL (     737 calls)
     g_psi        :      3.20s CPU      3.20s WALL (     593 calls)
     cdiaghg      :     65.74s CPU     65.89s WALL (     729 calls)

     Called by h_psi:
     h_psi:pot    :    635.30s CPU    670.00s WALL (     737 calls)
     h_psi:calbec :    126.80s CPU    127.19s WALL (     737 calls)
     vloc_psi     :    379.54s CPU    413.72s WALL (     737 calls)
     add_vuspsi   :    128.97s CPU    129.08s WALL (     737 calls)

     General routines
     calbec       :    179.29s CPU    179.80s WALL (     913 calls)
     fft          :      1.21s CPU      1.61s WALL (     258 calls)
     fftw         :    407.62s CPU    443.40s WALL (  153726 calls)
 
     Parallel routines
     fft_scatter  :     75.01s CPU    102.14s WALL (  153984 calls)
 
     PWSCF        : 23m45.07s CPU    25m19.49s WALL

 
   This run was terminated on:   7:13: 7   4Nov2017            

=------------------------------------------------------------------------------=
   JOB DONE.
=------------------------------------------------------------------------------=
