
     Program PWSCF v.6.1 (svn rev. 13369) starts on  5Dec2017 at  3:57:57 

     This program is part of the open-source Quantum ESPRESSO suite
     for quantum simulation of materials; please cite
         "P. Giannozzi et al., J. Phys.:Condens. Matter 21 395502 (2009);
          URL http://www.quantum-espresso.org", 
     in publications or presentations arising from this work. More details at
     http://www.quantum-espresso.org/quote

     Parallel version (MPI), running on     8 processors
     R & G space division:  proc/nbgrp/npool/nimage =       8
     Waiting for input...
     Reading input from standard input

     Current dimensions of program PWSCF are:
     Max number of different atomic species (ntypx) = 10
     Max number of k-points (npk) =  40000
     Max angular momentum in pseudopotentials (lmaxx) =  3
               file C.pbe-n-kjpaw_psl.0.1.UPF: wavefunction(s)  2P renormalized
               file N.pbe-n-kjpaw_psl.0.1.UPF: wavefunction(s)  2P renormalized
               file H.pbe-kjpaw_psl.0.1.UPF: wavefunction(s)  1S renormalized
               file O.pbe-n-kjpaw_psl.0.1.UPF: wavefunction(s)  2P renormalized

     -------------------------------------
     Parameters for Dispersion Correction:
     -------------------------------------
       atom      VdW radius       C_6     

        C          2.744         60.710
        N          2.640         42.670
        H          1.892          4.857
        O          2.536         24.284

     Subspace diagonalization in iterative solution of the eigenvalue problem:
     a serial algorithm will be used

 
     Parallelization info
     --------------------
     sticks:   dense  smooth     PW     G-vecs:    dense   smooth      PW
     Min        1812    1812    492                52773    52773    7470
     Max        1813    1813    493                52774    52774    7471
     Sum       14499   14499   3939               422187   422187   59763
 


     bravais-lattice index     =            0
     lattice parameter (alat)  =      25.1504  a.u.
     unit-cell volume          =    3124.3904 (a.u.)^3
     number of atoms/cell      =           48
     number of atomic types    =            4
     number of electrons       =       160.00
     number of Kohn-Sham states=           96
     kinetic-energy cutoff     =     100.0000  Ry
     charge density cutoff     =     400.0000  Ry
     convergence threshold     =      1.0E-08
     mixing beta               =       0.5000
     number of iterations used =            8  plain     mixing
     Exchange-correlation      =  SLA  PW   PBX  PBC ( 1  4  3  4 0 0)

     celldm(1)=  25.150365  celldm(2)=   0.000000  celldm(3)=   0.000000
     celldm(4)=   0.000000  celldm(5)=   0.000000  celldm(6)=   0.000000

     crystal axes: (cart. coord. in units of alat)
               a(1) = (   1.000000   0.000000   0.000000 )  
               a(2) = (   0.004151   0.720628   0.000000 )  
               a(3) = (   0.045708  -0.036061   0.272534 )  

     reciprocal axes: (cart. coord. in units 2 pi/alat)
               b(1) = (  1.000000 -0.005760 -0.168478 )  
               b(2) = (  0.000000  1.387678  0.183612 )  
               b(3) = (  0.000000  0.000000  3.669263 )  


     PseudoPot. # 1 for  C read from file:
     /scratch/ahofstet/pseudo/C.pbe-n-kjpaw_psl.0.1.UPF
     MD5 check sum: 430fe95172b1e11ef3f8ed03bac87931
     Pseudo is Projector augmented-wave + core cor, Zval =  4.0
     Generated using "atomic" code by A. Dal Corso  v.5.0.99 svn rev. 10869
     Shape of augmentation charge: BESSEL
     Using radial grid of 1073 points,  4 beta functions with: 
                l(1) =   0
                l(2) =   0
                l(3) =   1
                l(4) =   1
     Q(r) pseudized with 0 coefficients 


     PseudoPot. # 2 for  N read from file:
     /scratch/ahofstet/pseudo/N.pbe-n-kjpaw_psl.0.1.UPF
     MD5 check sum: f73187c8b701007e77325f868c9291d7
     Pseudo is Projector augmented-wave + core cor, Zval =  5.0
     Generated using "atomic" code by A. Dal Corso  v.5.0.99 svn rev. 10869
     Shape of augmentation charge: PSQ
     Using radial grid of 1085 points,  4 beta functions with: 
                l(1) =   0
                l(2) =   0
                l(3) =   1
                l(4) =   1
     Q(r) pseudized with 0 coefficients 


     PseudoPot. # 3 for  H read from file:
     /scratch/ahofstet/pseudo/H.pbe-kjpaw_psl.0.1.UPF
     MD5 check sum: 94e484f906d9e9773b2f6e52662335b2
     Pseudo is Projector augmented-wave, Zval =  1.0
     Generated using "atomic" code by A. Dal Corso  v.5.0.99 svn rev. 10869
     Shape of augmentation charge: PSQ
     Using radial grid of  929 points,  2 beta functions with: 
                l(1) =   0
                l(2) =   0
     Q(r) pseudized with 0 coefficients 


     PseudoPot. # 4 for  O read from file:
     /scratch/ahofstet/pseudo/O.pbe-n-kjpaw_psl.0.1.UPF
     MD5 check sum: 3f94a2996a3169367d6eb21d9b593f20
     Pseudo is Projector augmented-wave + core cor, Zval =  6.0
     Generated using "atomic" code by A. Dal Corso  v.5.0.99 svn rev. 10869
     Shape of augmentation charge: BESSEL
     Using radial grid of 1095 points,  4 beta functions with: 
                l(1) =   0
                l(2) =   0
                l(3) =   1
                l(4) =   1
     Q(r) pseudized with 0 coefficients 


     atomic species   valence    mass     pseudopotential
        C              4.00    12.01070      C( 1.00)
        N              5.00    14.00670      N( 1.00)
        H              1.00     1.00794      H( 1.00)
        O              6.00    15.99940      O( 1.00)

      2 Sym. Ops., with inversion, found



   Cartesian axes

     site n.     atom                  positions (alat units)
         1           O   tau(   1) = (   0.2954605   0.4325603   0.1968729  )
         2           O   tau(   2) = (   0.7543982   0.2520073   0.0756614  )
         3           O   tau(   3) = (   0.3663596   0.4412491   0.0453708  )
         4           O   tau(   4) = (   0.6834992   0.2433185   0.2271635  )
         5           O   tau(   5) = (   0.3698171   0.6432485   0.0454483  )
         6           O   tau(   6) = (   0.6800416   0.0413191   0.2270860  )
         7           O   tau(   7) = (   0.2989868   0.6196743   0.1955710  )
         8           O   tau(   8) = (   0.7508720   0.0648934   0.0769633  )
         9           C   tau(   9) = (   0.3286761   0.3916789   0.1143996  )
        10           C   tau(  10) = (   0.7211827   0.2928887   0.1581347  )
        11           C   tau(  11) = (   0.3208899   0.2798589   0.1149891  )
        12           C   tau(  12) = (   0.7289688   0.4047087   0.1575452  )
        13           C   tau(  13) = (   0.3799683   0.2285941   0.1789644  )
        14           C   tau(  14) = (   0.6698904   0.4559735   0.0935699  )
        15           C   tau(  15) = (   0.3812817   0.1226502   0.1868778  )
        16           C   tau(  16) = (   0.6685771   0.5619174   0.0856565  )
        17           C   tau(  17) = (   0.3147819   0.0667413   0.1346214  )
        18           C   tau(  18) = (   0.7350768   0.6178264   0.1379129  )
        19           C   tau(  19) = (   0.3285147   0.6762560   0.1285205  )
        20           C   tau(  20) = (   0.7213441   0.0083116   0.1440138  )
        21           C   tau(  21) = (   0.2516060   0.2253593   0.0612133  )
        22           C   tau(  22) = (   0.7982527   0.4592083   0.2113210  )
        23           C   tau(  23) = (   0.2385502   0.1190594   0.0840732  )
        24           C   tau(  24) = (   0.8113086   0.5655082   0.1884611  )
        25           C   tau(  25) = (   0.1794867   0.2735431   0.0037279  )
        26           C   tau(  26) = (   0.8703721   0.4110245   0.2688064  )
        27           C   tau(  27) = (   0.1568217   0.0693400   0.0441347  )
        28           C   tau(  28) = (   0.8930371   0.6152276   0.2283996  )
        29           C   tau(  29) = (   0.1070345   0.2162992  -0.0445690  )
        30           C   tau(  30) = (   0.9428243   0.4682684   0.3171033  )
        31           C   tau(  31) = (   0.0875697   0.1193917  -0.0103555  )
        32           C   tau(  32) = (   0.9622891   0.5651759   0.2828898  )
        33           H   tau(  33) = (   0.3008026   0.5101069   0.1932962  )
        34           H   tau(  34) = (   0.7490561   0.1744607   0.0792381  )
        35           H   tau(  35) = (   0.3715003   0.5663058   0.0461443  )
        36           H   tau(  36) = (   0.6783585   0.1182618   0.2263900  )
        37           H   tau(  37) = (   0.4273444   0.2716732   0.2292432  )
        38           H   tau(  38) = (   0.6225144   0.4128945   0.0432911  )
        39           H   tau(  39) = (   0.4365073   0.0877750   0.2360016  )
        40           H   tau(  40) = (   0.6133515   0.5967926   0.0365327  )
        41           H   tau(  41) = (   0.1768368   0.3548717  -0.0002421  )
        42           H   tau(  42) = (   0.8730220   0.3296959   0.2727764  )
        43           H   tau(  43) = (   0.1471318   0.7122685   0.0658477  )
        44           H   tau(  44) = (   0.9027269  -0.0277009   0.2066866  )
        45           H   tau(  45) = (   1.0563063   0.2520220  -0.0978268  )
        46           H   tau(  46) = (  -0.0064475   0.4325456   0.3703611  )
        47           H   tau(  47) = (   1.0210120   0.0800168  -0.0378763  )
        48           H   tau(  48) = (   0.0288467   0.6045508   0.3104105  )

     number of k points=    12
                       cart. coord. in units 2pi/alat
        k(    1) = (   0.0000000   0.0000000   0.0000000), wk =   0.1000000
        k(    2) = (   0.0000000   0.0000000   0.7338526), wk =   0.2000000
        k(    3) = (   0.0000000   0.0000000   1.4677052), wk =   0.2000000
        k(    4) = (   0.0000000  -0.6938391  -0.0918059), wk =   0.1000000
        k(    5) = (   0.0000000  -0.6938391   0.6420467), wk =   0.2000000
        k(    6) = (   0.0000000  -0.6938391   1.3758993), wk =   0.2000000
        k(    7) = (  -0.5000000   0.0028798   0.0842388), wk =   0.1000000
        k(    8) = (  -0.5000000   0.0028798   0.8180914), wk =   0.2000000
        k(    9) = (  -0.5000000   0.0028798   1.5519440), wk =   0.2000000
        k(   10) = (  -0.5000000  -0.6909592  -0.0075672), wk =   0.1000000
        k(   11) = (  -0.5000000  -0.6909592   0.7262855), wk =   0.2000000
        k(   12) = (  -0.5000000  -0.6909592   1.4601381), wk =   0.2000000

     Dense  grid:   422187 G-vectors     FFT dimensions: ( 162, 120,  45)

     Estimated max dynamical RAM per process >     268.34MB

     Estimated total allocated dynamical RAM >    2146.72MB

     Check: negative/imaginary core charge=   -0.000002    0.000000

     Initial potential from superposition of free atoms

     starting charge  159.99884, renormalised to  160.00000
     Starting wfc are  144 randomized atomic wfcs
     Checking if some PAW data can be deallocated... 

     total cpu time spent up to now is       18.0 secs

     per-process dynamical memory:   268.5 Mb

     Self-consistent Calculation

     iteration #  1     ecut=   100.00 Ry     beta=0.50
     Davidson diagonalization with overlap
     ethr =  1.00E-02,  avg # of iterations =  4.0

     total cpu time spent up to now is       55.8 secs

     total energy              =    -793.40457700 Ry
     Harris-Foulkes estimate   =    -796.37232896 Ry
     estimated scf accuracy    <       5.45506333 Ry

     iteration #  2     ecut=   100.00 Ry     beta=0.50
     Davidson diagonalization with overlap
     ethr =  3.41E-03,  avg # of iterations =  2.4

     total cpu time spent up to now is       77.1 secs

     total energy              =    -793.75002008 Ry
     Harris-Foulkes estimate   =    -794.08933994 Ry
     estimated scf accuracy    <       0.67908846 Ry

     iteration #  3     ecut=   100.00 Ry     beta=0.50
     Davidson diagonalization with overlap
     ethr =  4.24E-04,  avg # of iterations =  5.0

     total cpu time spent up to now is      118.8 secs

     total energy              =    -794.29226317 Ry
     Harris-Foulkes estimate   =    -794.58059564 Ry
     estimated scf accuracy    <       0.74689413 Ry

     iteration #  4     ecut=   100.00 Ry     beta=0.50
     Davidson diagonalization with overlap
     ethr =  4.24E-04,  avg # of iterations =  2.0

     total cpu time spent up to now is      138.5 secs

     total energy              =    -794.21947484 Ry
     Harris-Foulkes estimate   =    -794.34229388 Ry
     estimated scf accuracy    <       0.20625597 Ry

     iteration #  5     ecut=   100.00 Ry     beta=0.50
     Davidson diagonalization with overlap
     ethr =  1.29E-04,  avg # of iterations =  6.5

     total cpu time spent up to now is      179.6 secs

     total energy              =    -794.35682200 Ry
     Harris-Foulkes estimate   =    -794.42728484 Ry
     estimated scf accuracy    <       0.19189806 Ry

     iteration #  6     ecut=   100.00 Ry     beta=0.50
     Davidson diagonalization with overlap
     ethr =  1.20E-04,  avg # of iterations =  1.0

     total cpu time spent up to now is      198.7 secs

     total energy              =    -794.33492165 Ry
     Harris-Foulkes estimate   =    -794.36608933 Ry
     estimated scf accuracy    <       0.06952270 Ry

     iteration #  7     ecut=   100.00 Ry     beta=0.50
     Davidson diagonalization with overlap
     ethr =  4.35E-05,  avg # of iterations =  5.7

     total cpu time spent up to now is      234.9 secs

     total energy              =    -794.36745428 Ry
     Harris-Foulkes estimate   =    -794.36856827 Ry
     estimated scf accuracy    <       0.00596516 Ry

     iteration #  8     ecut=   100.00 Ry     beta=0.50
     Davidson diagonalization with overlap
     ethr =  3.73E-06,  avg # of iterations =  2.0

     total cpu time spent up to now is      255.1 secs

     total energy              =    -794.36643366 Ry
     Harris-Foulkes estimate   =    -794.36800410 Ry
     estimated scf accuracy    <       0.00357545 Ry

     iteration #  9     ecut=   100.00 Ry     beta=0.50
     Davidson diagonalization with overlap
     ethr =  2.23E-06,  avg # of iterations =  6.3

     total cpu time spent up to now is      281.2 secs

     total energy              =    -794.36704985 Ry
     Harris-Foulkes estimate   =    -794.36709780 Ry
     estimated scf accuracy    <       0.00012740 Ry

     iteration # 10     ecut=   100.00 Ry     beta=0.50
     Davidson diagonalization with overlap
     ethr =  7.96E-08,  avg # of iterations =  4.3

     total cpu time spent up to now is      321.1 secs

     total energy              =    -794.36719886 Ry
     Harris-Foulkes estimate   =    -794.36721057 Ry
     estimated scf accuracy    <       0.00003440 Ry

     iteration # 11     ecut=   100.00 Ry     beta=0.50
     Davidson diagonalization with overlap
     ethr =  2.15E-08,  avg # of iterations =  1.0

     total cpu time spent up to now is      340.2 secs

     total energy              =    -794.36719469 Ry
     Harris-Foulkes estimate   =    -794.36720045 Ry
     estimated scf accuracy    <       0.00001141 Ry

     iteration # 12     ecut=   100.00 Ry     beta=0.50
     Davidson diagonalization with overlap
     ethr =  7.13E-09,  avg # of iterations =  3.9

     total cpu time spent up to now is      373.7 secs

     total energy              =    -794.36720058 Ry
     Harris-Foulkes estimate   =    -794.36720222 Ry
     estimated scf accuracy    <       0.00000436 Ry

     iteration # 13     ecut=   100.00 Ry     beta=0.50
     Davidson diagonalization with overlap
     ethr =  2.72E-09,  avg # of iterations =  1.0

     total cpu time spent up to now is      392.8 secs

     total energy              =    -794.36720011 Ry
     Harris-Foulkes estimate   =    -794.36720083 Ry
     estimated scf accuracy    <       0.00000134 Ry

     iteration # 14     ecut=   100.00 Ry     beta=0.50
     Davidson diagonalization with overlap
     ethr =  8.39E-10,  avg # of iterations =  4.0

     total cpu time spent up to now is      427.0 secs

     total energy              =    -794.36720101 Ry
     Harris-Foulkes estimate   =    -794.36720116 Ry
     estimated scf accuracy    <       0.00000057 Ry

     iteration # 15     ecut=   100.00 Ry     beta=0.50
     Davidson diagonalization with overlap
     ethr =  3.56E-10,  avg # of iterations =  1.0

     total cpu time spent up to now is      446.1 secs

     total energy              =    -794.36720089 Ry
     Harris-Foulkes estimate   =    -794.36720103 Ry
     estimated scf accuracy    <       0.00000030 Ry

     iteration # 16     ecut=   100.00 Ry     beta=0.50
     Davidson diagonalization with overlap
     ethr =  1.89E-10,  avg # of iterations =  4.0

     total cpu time spent up to now is      475.6 secs

     End of self-consistent calculation

          k = 0.0000 0.0000 0.0000 ( 52735 PWs)   bands (ev):

   -21.3395 -21.3386 -20.8191 -20.8184 -18.5263 -18.5254 -17.9812 -17.9798
   -15.9175 -15.9162 -13.7794 -13.7629 -13.2704 -13.2702 -11.1923 -11.1513
   -10.8667 -10.8542 -10.5817 -10.5800  -8.4262  -8.4151  -8.2648  -8.2498
    -8.0167  -7.9900  -7.5676  -7.5565  -6.5585  -6.5513  -6.1443  -6.0400
    -5.5328  -5.5295  -5.4551  -5.4386  -5.3157  -5.2986  -4.8506  -4.8381
    -4.2662  -4.2609  -4.1892  -3.9894  -3.7123  -3.7019  -3.4706  -3.4293
    -3.1903  -3.1178  -2.9465  -2.9154  -2.7003  -2.5669  -2.1703  -2.1567
    -1.9290  -1.8839  -1.8494  -1.8199  -1.6608  -1.6472  -1.4062  -1.3582
    -1.2573  -1.2410  -1.1484  -1.0980  -0.7936  -0.7352  -0.2106  -0.1895
    -0.0007   0.0207   0.2463   0.2567   0.7892   0.7933   1.1782   1.1833
     4.4763   4.4797   5.4011   5.4699   5.9468   6.0004   6.2119   6.2719
     6.4758   6.8443   6.9296   7.4323   7.5601   7.8888   8.3946   8.5216

          k = 0.0000 0.0000 0.7339 ( 52729 PWs)   bands (ev):

   -21.2280 -21.2272 -20.7236 -20.7230 -18.6813 -18.6805 -18.1242 -18.1229
   -15.6687 -15.6674 -13.6856 -13.6709 -13.1731 -13.1720 -11.3741 -11.3638
   -11.1565 -11.1293 -10.5048 -10.4999  -8.5815  -8.5497  -8.3956  -8.3811
    -8.1930  -8.1589  -7.4216  -7.4119  -6.6098  -6.6015  -6.2600  -6.1738
    -5.6163  -5.5914  -5.4781  -5.4758  -5.2290  -5.2129  -4.8059  -4.7719
    -4.3686  -4.2912  -4.0824  -4.0747  -3.8399  -3.8163  -3.5640  -3.5417
    -3.4927  -3.4669  -3.2295  -3.1700  -2.8820  -2.8466  -2.5385  -2.4748
    -2.3479  -2.2838  -2.0312  -1.9898  -1.3232  -1.2822  -1.0646  -1.0241
    -0.9644  -0.8897  -0.7396  -0.7155  -0.5143  -0.5030  -0.0697  -0.0480
     0.3138   0.3214   0.4678   0.4852   0.7091   0.7178   1.9176   1.9285
     4.6432   4.6593   5.3866   5.4025   5.8507   5.9013   6.0727   6.0991
     6.7806   7.0687   7.1986   7.6852   7.9085   8.1016   8.1250   8.3336

          k = 0.0000 0.0000 1.4677 ( 52791 PWs)   bands (ev):

   -21.0106 -21.0102 -20.5488 -20.5485 -18.9603 -18.9595 -18.3845 -18.3833
   -15.0319 -15.0307 -13.8706 -13.8637 -12.8821 -12.8781 -11.9269 -11.9185
   -11.3823 -11.3637 -10.3408 -10.3375  -8.7601  -8.7377  -8.5808  -8.5762
    -8.3848  -8.3740  -7.3386  -7.3365  -6.6552  -6.6476  -6.2964  -6.2512
    -5.7280  -5.6968  -5.4947  -5.4817  -5.0782  -5.0630  -4.8465  -4.8363
    -4.6927  -4.6641  -4.3878  -4.3702  -4.1314  -4.0976  -4.0110  -3.9834
    -3.5953  -3.5282  -3.4657  -3.4019  -2.8808  -2.8718  -2.6302  -2.5382
    -2.1564  -2.1044  -1.8743  -1.8454  -1.6047  -1.5646  -1.2990  -1.2269
    -1.0089  -1.0030  -0.3528  -0.3242  -0.0042   0.0163   0.2794   0.2861
     0.3968   0.4075   0.6266   0.6355   2.0555   2.1110   2.7264   2.7455
     4.8444   4.8816   5.3339   5.3426   5.7428   5.7469   6.0999   6.2221
     6.5141   6.5442   7.9251   8.2560   8.4226   8.5955   8.6583   8.9701

          k = 0.0000-0.6938-0.0918 ( 52736 PWs)   bands (ev):

   -21.3382 -21.3375 -20.8209 -20.8205 -18.5265 -18.5261 -17.9808 -17.9796
   -15.8994 -15.8980 -13.7818 -13.7663 -13.3611 -13.3581 -11.2614 -11.2270
   -10.8408 -10.8394  -9.9471  -9.9418  -9.2322  -9.2291  -8.3078  -8.2848
    -8.0075  -8.0032  -7.4271  -7.4191  -6.5951  -6.5097  -5.7432  -5.7360
    -5.6058  -5.6020  -5.5734  -5.5512  -5.3860  -5.3860  -4.7370  -4.7310
    -4.1762  -4.0283  -3.9984  -3.9544  -3.6292  -3.6258  -3.3926  -3.3866
    -3.2488  -3.2065  -2.9402  -2.9290  -2.7093  -2.6268  -2.5281  -2.5208
    -1.9615  -1.9359  -1.8734  -1.8231  -1.5528  -1.5087  -1.3960  -1.3668
    -1.3405  -1.3337  -1.1546  -1.1218  -0.9651  -0.9450  -0.0603  -0.0239
     0.1914   0.1942   0.3069   0.3232   0.6862   0.6869   1.1139   1.1505
     4.5165   4.5367   5.4291   5.4540   5.8536   5.8688   6.3022   6.3188
     6.8053   6.8155   7.1042   7.1210   7.6071   7.8225   8.2063   8.4388

          k = 0.0000-0.6938 0.6420 ( 52710 PWs)   bands (ev):

   -21.2269 -21.2263 -20.7250 -20.7247 -18.6812 -18.6809 -18.1240 -18.1230
   -15.6512 -15.6498 -13.6775 -13.6642 -13.2665 -13.2647 -11.4050 -11.3858
   -11.1984 -11.1727  -9.9066  -9.9005  -9.1252  -9.1209  -8.5215  -8.4825
    -8.1849  -8.1693  -7.5211  -7.5104  -6.5924  -6.5295  -5.8517  -5.8343
    -5.6678  -5.6323  -5.4673  -5.4438  -5.2943  -5.2733  -4.9121  -4.9043
    -4.2338  -4.1437  -4.0253  -4.0069  -3.5983  -3.5896  -3.5736  -3.5315
    -3.4196  -3.3432  -3.1962  -3.1650  -3.0108  -2.9686  -2.6987  -2.6977
    -2.4864  -2.4463  -1.9568  -1.9193  -1.5244  -1.4743  -1.2336  -1.1781
    -0.8100  -0.7831  -0.7264  -0.7079  -0.5102  -0.4781   0.0587   0.0890
     0.3068   0.3178   0.4879   0.4999   0.6811   0.6962   1.8800   1.9114
     4.7261   4.7338   5.4078   5.4543   5.6942   5.7304   6.2078   6.2185
     6.9376   7.1011   7.3522   7.5001   7.8750   8.0428   8.0899   8.1969

          k = 0.0000-0.6938 1.3759 ( 52781 PWs)   bands (ev):

   -21.0098 -21.0095 -20.5497 -20.5496 -18.9599 -18.9596 -18.3847 -18.3838
   -15.0143 -15.0131 -13.8595 -13.8540 -12.9749 -12.9709 -11.9351 -11.9261
   -11.4236 -11.4072  -9.8451  -9.8414  -8.9657  -8.9615  -8.7165  -8.6807
    -8.4584  -8.4518  -7.7444  -7.7392  -6.5426  -6.5168  -5.9256  -5.8968
    -5.7075  -5.6688  -5.3444  -5.3278  -5.2024  -5.1855  -5.0288  -4.9968
    -4.6350  -4.5794  -4.5039  -4.4620  -4.1279  -4.0859  -3.6844  -3.6450
    -3.4933  -3.4262  -3.2539  -3.2457  -3.0471  -3.0302  -2.6972  -2.6143
    -2.5572  -2.5118  -1.8383  -1.8205  -1.6085  -1.5560  -1.3179  -1.2901
    -0.9610  -0.9506  -0.2437  -0.2247  -0.0101   0.0163   0.0607   0.0976
     0.4125   0.4219   0.7382   0.7474   2.0452   2.0963   2.7253   2.7421
     5.0495   5.0765   5.2521   5.2701   5.6413   5.6739   6.2749   6.3362
     6.5468   6.5716   7.9636   8.0870   8.3517   8.4965   8.6218   8.9183

          k =-0.5000 0.0029 0.0842 ( 52736 PWs)   bands (ev):

   -21.3395 -21.3386 -20.8191 -20.8184 -18.5263 -18.5255 -17.9812 -17.9798
   -15.9181 -15.9156 -13.7797 -13.7626 -13.2712 -13.2694 -11.1915 -11.1521
   -10.8618 -10.8593 -10.5811 -10.5806  -8.4343  -8.4063  -8.2635  -8.2505
    -8.0114  -7.9969  -7.5739  -7.5500  -6.5629  -6.5469  -6.1220  -6.0656
    -5.5347  -5.5253  -5.4581  -5.4357  -5.3196  -5.2948  -4.8483  -4.8387
    -4.2669  -4.2607  -4.1645  -4.0200  -3.7111  -3.7059  -3.4544  -3.4419
    -3.1661  -3.1412  -2.9334  -2.9248  -2.6631  -2.6028  -2.1775  -2.1528
    -1.9392  -1.8740  -1.8413  -1.8254  -1.6639  -1.6462  -1.4022  -1.3670
    -1.2557  -1.2367  -1.1366  -1.1098  -0.7915  -0.7367  -0.2001  -0.1995
     0.0069   0.0137   0.2484   0.2548   0.7912   0.7913   1.1713   1.1904
     4.4455   4.5108   5.4341   5.4375   5.9669   5.9697   6.2379   6.2554
     6.5471   6.8377   6.9213   7.1465   7.8534   7.9147   8.3134   8.4059

          k =-0.5000 0.0029 0.8181 ( 52748 PWs)   bands (ev):

   -21.2280 -21.2272 -20.7236 -20.7230 -18.6813 -18.6805 -18.1242 -18.1229
   -15.6693 -15.6668 -13.6858 -13.6707 -13.1735 -13.1716 -11.3754 -11.3623
   -11.1557 -11.1303 -10.5057 -10.4990  -8.5872  -8.5434  -8.3935  -8.3834
    -8.1870  -8.1652  -7.4244  -7.4093  -6.6090  -6.6024  -6.2451  -6.1894
    -5.6143  -5.5951  -5.4846  -5.4680  -5.2395  -5.2016  -4.8038  -4.7728
    -4.3571  -4.3039  -4.0869  -4.0678  -3.8539  -3.8035  -3.5663  -3.5442
    -3.4931  -3.4592  -3.2483  -3.1554  -2.8813  -2.8447  -2.5330  -2.4809
    -2.3257  -2.3083  -2.0190  -2.0014  -1.3084  -1.3019  -1.0537  -1.0358
    -0.9409  -0.9050  -0.7617  -0.6954  -0.5238  -0.4943  -0.0650  -0.0520
     0.3143   0.3213   0.4721   0.4811   0.7005   0.7266   1.9170   1.9292
     4.6122   4.6909   5.3823   5.4093   5.8447   5.9041   6.0797   6.0932
     6.7804   7.0636   7.2601   7.5238   7.9391   8.1252   8.2297   8.3297

          k =-0.5000 0.0029 1.5519 ( 52788 PWs)   bands (ev):

   -21.0106 -21.0102 -20.5488 -20.5485 -18.9603 -18.9595 -18.3845 -18.3833
   -15.0322 -15.0303 -13.8710 -13.8633 -12.8823 -12.8779 -11.9281 -11.9173
   -11.3822 -11.3638 -10.3440 -10.3343  -8.7615  -8.7366  -8.5871  -8.5697
    -8.3852  -8.3730  -7.3399  -7.3354  -6.6545  -6.6486  -6.3007  -6.2460
    -5.7303  -5.6958  -5.5021  -5.4722  -5.0808  -5.0601  -4.8598  -4.8291
    -4.6997  -4.6532  -4.3833  -4.3741  -4.1279  -4.1002  -4.0084  -3.9863
    -3.5836  -3.5416  -3.4651  -3.4042  -2.8849  -2.8653  -2.6366  -2.5296
    -2.1452  -2.1145  -1.8720  -1.8513  -1.5927  -1.5761  -1.2940  -1.2334
    -1.0160  -0.9944  -0.3519  -0.3245  -0.0009   0.0128   0.2808   0.2847
     0.3999   0.4038   0.6299   0.6318   2.0662   2.1003   2.7252   2.7475
     4.8356   4.8900   5.3221   5.3555   5.7167   5.7748   6.0997   6.2205
     6.5078   6.5494   7.9340   8.2112   8.4690   8.5678   8.7359   8.9606

          k =-0.5000-0.6910-0.0076 ( 52766 PWs)   bands (ev):

   -21.3381 -21.3375 -20.8209 -20.8206 -18.5264 -18.5261 -17.9808 -17.9796
   -15.8994 -15.8980 -13.7814 -13.7668 -13.3600 -13.3592 -11.2615 -11.2268
   -10.8415 -10.8388  -9.9461  -9.9427  -9.2339  -9.2273  -8.3049  -8.2876
    -8.0166  -7.9945  -7.4289  -7.4176  -6.5831  -6.5217  -5.7400  -5.7365
    -5.6098  -5.5870  -5.5674  -5.5653  -5.3955  -5.3834  -4.7360  -4.7322
    -4.1828  -4.0480  -3.9878  -3.9280  -3.6299  -3.6274  -3.3932  -3.3842
    -3.2325  -3.2234  -2.9444  -2.9425  -2.7052  -2.6199  -2.5280  -2.5210
    -1.9573  -1.9403  -1.8796  -1.8214  -1.5524  -1.5038  -1.4010  -1.3700
    -1.3381  -1.3307  -1.1498  -1.1269  -0.9608  -0.9475  -0.0537  -0.0302
     0.1860   0.1998   0.3146   0.3157   0.6853   0.6879   1.1235   1.1408
     4.5073   4.5490   5.4345   5.4388   5.8460   5.8753   6.3009   6.3246
     6.8446   6.8659   7.0534   7.1474   7.4718   7.7517   8.2367   8.6172

          k =-0.5000-0.6910 0.7263 ( 52748 PWs)   bands (ev):

   -21.2269 -21.2263 -20.7250 -20.7247 -18.6812 -18.6809 -18.1240 -18.1230
   -15.6512 -15.6498 -13.6774 -13.6643 -13.2661 -13.2651 -11.4045 -11.3863
   -11.1973 -11.1738  -9.9059  -9.9011  -9.1265  -9.1196  -8.5169  -8.4868
    -8.1907  -8.1637  -7.5176  -7.5138  -6.5932  -6.5297  -5.8447  -5.8408
    -5.6582  -5.6364  -5.4722  -5.4396  -5.2929  -5.2782  -4.9156  -4.9033
    -4.2297  -4.1600  -4.0300  -3.9874  -3.5920  -3.5885  -3.5649  -3.5483
    -3.4189  -3.3372  -3.2012  -3.1620  -3.0057  -2.9775  -2.7183  -2.6810
    -2.4780  -2.4530  -1.9596  -1.9182  -1.5164  -1.4821  -1.2133  -1.1965
    -0.8189  -0.7726  -0.7269  -0.7061  -0.5360  -0.4560   0.0692   0.0790
     0.3100   0.3150   0.4864   0.5016   0.6842   0.6930   1.8761   1.9157
     4.7126   4.7486   5.3975   5.4623   5.6811   5.7413   6.2037   6.2219
     6.9355   7.1451   7.3467   7.4990   7.7679   8.0452   8.1316   8.1995

          k =-0.5000-0.6910 1.4601 ( 52818 PWs)   bands (ev):

   -21.0098 -21.0095 -20.5497 -20.5496 -18.9599 -18.9596 -18.3847 -18.3838
   -15.0145 -15.0129 -13.8597 -13.8538 -12.9747 -12.9710 -11.9351 -11.9262
   -11.4231 -11.4078  -9.8471  -9.8395  -8.9681  -8.9590  -8.7151  -8.6823
    -8.4653  -8.4446  -7.7464  -7.7373  -6.5462  -6.5141  -5.9336  -5.8860
    -5.6963  -5.6825  -5.3432  -5.3275  -5.2052  -5.1809  -5.0222  -5.0044
    -4.6263  -4.5962  -4.4842  -4.4776  -4.1224  -4.0925  -3.6864  -3.6404
    -3.5017  -3.4168  -3.2518  -3.2461  -3.0565  -3.0188  -2.6990  -2.6176
    -2.5615  -2.5072  -1.8449  -1.8136  -1.6036  -1.5584  -1.3252  -1.2812
    -0.9657  -0.9499  -0.2357  -0.2318  -0.0120   0.0170   0.0734   0.0850
     0.4146   0.4198   0.7394   0.7459   2.0358   2.1064   2.7242   2.7439
     5.0394   5.0849   5.2513   5.2728   5.6411   5.6708   6.2445   6.3707
     6.5405   6.5820   7.9556   8.0750   8.3445   8.5226   8.6236   8.9596

     highest occupied, lowest unoccupied level (ev):     2.7475    4.4455

!    total energy              =    -794.36720099 Ry
     Harris-Foulkes estimate   =    -794.36720099 Ry
     estimated scf accuracy    <          9.5E-09 Ry

     total all-electron energy =     -3051.480705 Ry

     The total energy is the sum of the following terms:

     one-electron contribution =    -622.09429588 Ry
     hartree contribution      =     376.85220071 Ry
     xc contribution           =    -171.21338388 Ry
     ewald contribution        =    -141.78455216 Ry
     Dispersion Correction     =      -0.28423080 Ry
     one-center paw contrib.   =    -235.84293897 Ry

     convergence has been achieved in  16 iterations

     Forces acting on atoms (cartesian axes, Ry/au):

     atom    1 type  4   force =    -0.05067186    0.01452150   -0.02125305
     atom    2 type  4   force =     0.05067186   -0.01452150    0.02125305
     atom    3 type  4   force =     0.03949740   -0.00200428    0.02311248
     atom    4 type  4   force =    -0.03949740    0.00200428   -0.02311248
     atom    5 type  4   force =     0.05085139   -0.00775294    0.02518154
     atom    6 type  4   force =    -0.05085139    0.00775294   -0.02518154
     atom    7 type  4   force =    -0.03938633    0.00625325   -0.02368474
     atom    8 type  4   force =     0.03938633   -0.00625325    0.02368474
     atom    9 type  1   force =     0.01182217    0.00231162   -0.00477182
     atom   10 type  1   force =    -0.01182217   -0.00231162    0.00477182
     atom   11 type  1   force =     0.03533423    0.02690201   -0.01331427
     atom   12 type  1   force =    -0.03533423   -0.02690201    0.01331427
     atom   13 type  1   force =     0.07614493   -0.00654468    0.00975048
     atom   14 type  1   force =    -0.07614493    0.00654468   -0.00975048
     atom   15 type  1   force =     0.06497570    0.01105382   -0.01375170
     atom   16 type  1   force =    -0.06497570   -0.01105382    0.01375170
     atom   17 type  1   force =     0.01047924   -0.00676945   -0.01706617
     atom   18 type  1   force =    -0.01047924    0.00676945    0.01706617
     atom   19 type  1   force =    -0.01299821   -0.00720698    0.00144375
     atom   20 type  1   force =     0.01299821    0.00720698   -0.00144375
     atom   21 type  1   force =    -0.06339208   -0.04215484    0.05230340
     atom   22 type  1   force =     0.06339208    0.04215484   -0.05230340
     atom   23 type  1   force =     0.03628232    0.03399644   -0.04843053
     atom   24 type  1   force =    -0.03628232   -0.03399644    0.04843053
     atom   25 type  1   force =    -0.07079407   -0.00929675    0.00251215
     atom   26 type  1   force =     0.07079407    0.00929675   -0.00251215
     atom   27 type  1   force =    -0.03908331   -0.04102376    0.02367656
     atom   28 type  1   force =     0.03908331    0.04102376   -0.02367656
     atom   29 type  1   force =    -0.03539783    0.05588049    0.04518576
     atom   30 type  1   force =     0.03539783   -0.05588049   -0.04518576
     atom   31 type  1   force =    -0.03698249   -0.02996860   -0.02514842
     atom   32 type  1   force =     0.03698249    0.02996860    0.02514842
     atom   33 type  3   force =     0.00028233   -0.00037177   -0.00249205
     atom   34 type  3   force =    -0.00028233    0.00037177    0.00249205
     atom   35 type  3   force =    -0.00065680    0.00081061    0.00315488
     atom   36 type  3   force =     0.00065680   -0.00081061   -0.00315488
     atom   37 type  3   force =     0.01568787   -0.00382716   -0.01084801
     atom   38 type  3   force =    -0.01568787    0.00382716    0.01084801
     atom   39 type  3   force =     0.00720543    0.00033350   -0.00555040
     atom   40 type  3   force =    -0.00720543   -0.00033350    0.00555040
     atom   41 type  3   force =     0.00885270   -0.00139022   -0.00817396
     atom   42 type  3   force =    -0.00885270    0.00139022    0.00817396
     atom   43 type  3   force =     0.00150317    0.00150379   -0.00005231
     atom   44 type  3   force =    -0.00150317   -0.00150379    0.00005231
     atom   45 type  3   force =    -0.00944939    0.00236815    0.00856226
     atom   46 type  3   force =     0.00944939   -0.00236815   -0.00856226
     atom   47 type  3   force =     0.00138324    0.00146482   -0.00034300
     atom   48 type  3   force =    -0.00138324   -0.00146482    0.00034300

     Total force =     0.336331     Total SCF correction =     0.000252


     Computing stress (Cartesian axis) and pressure

          total   stress  (Ry/bohr**3)                   (kbar)     P=  104.44
   0.00074839   0.00000086   0.00013770        110.09      0.13     20.26
   0.00000086   0.00021920  -0.00006147          0.13     32.25     -9.04
   0.00013770  -0.00006147   0.00116238         20.26     -9.04    170.99


     Writing output data file scf.save
 
     init_run     :     16.99s CPU     17.41s WALL (       1 calls)
     electrons    :    435.86s CPU    457.60s WALL (       1 calls)
     forces       :      8.47s CPU      8.52s WALL (       1 calls)
     stress       :     29.13s CPU     29.16s WALL (       1 calls)

     Called by init_run:
     wfcinit      :     10.40s CPU     10.76s WALL (       1 calls)
     potinit      :      2.26s CPU      2.28s WALL (       1 calls)

     Called by electrons:
     c_bands      :    382.01s CPU    401.50s WALL (      16 calls)
     sum_band     :     46.85s CPU     48.93s WALL (      16 calls)
     v_of_rho     :      1.05s CPU      1.16s WALL (      17 calls)
     newd         :      2.08s CPU      2.13s WALL (      17 calls)
     PAW_pot      :      3.50s CPU      3.51s WALL (      17 calls)
     mix_rho      :      0.26s CPU      0.27s WALL (      16 calls)

     Called by c_bands:
     init_us_2    :      4.06s CPU      4.07s WALL (     420 calls)
     cegterg      :    367.30s CPU    386.71s WALL (     192 calls)

     Called by sum_band:
     sum_band:bec :      0.04s CPU      0.04s WALL (     192 calls)
     addusdens    :      2.23s CPU      2.25s WALL (      16 calls)

     Called by *egterg:
     h_psi        :    242.03s CPU    257.95s WALL (     854 calls)
     s_psi        :     27.51s CPU     27.50s WALL (     854 calls)
     g_psi        :      1.96s CPU      1.96s WALL (     650 calls)
     cdiaghg      :     21.25s CPU     21.24s WALL (     842 calls)

     Called by h_psi:
     h_psi:pot    :    239.98s CPU    255.86s WALL (     854 calls)
     h_psi:calbec :     28.54s CPU     28.71s WALL (     854 calls)
     vloc_psi     :    184.04s CPU    199.75s WALL (     854 calls)
     add_vuspsi   :     27.40s CPU     27.40s WALL (     854 calls)

     General routines
     calbec       :     41.94s CPU     42.16s WALL (    1106 calls)
     fft          :      0.76s CPU      0.95s WALL (     245 calls)
     fftw         :    198.17s CPU    214.77s WALL (  128556 calls)
 
     Parallel routines
     fft_scatter  :     42.33s CPU     52.77s WALL (  128801 calls)
 
     PWSCF        :  8m15.21s CPU     8m38.49s WALL

 
   This run was terminated on:   4: 6:36   5Dec2017            

=------------------------------------------------------------------------------=
   JOB DONE.
=------------------------------------------------------------------------------=
