
     Program PWSCF v.6.1 (svn rev. 13369) starts on 22Dec2017 at 21: 1:48 

     This program is part of the open-source Quantum ESPRESSO suite
     for quantum simulation of materials; please cite
         "P. Giannozzi et al., J. Phys.:Condens. Matter 21 395502 (2009);
          URL http://www.quantum-espresso.org", 
     in publications or presentations arising from this work. More details at
     http://www.quantum-espresso.org/quote

     Parallel version (MPI), running on     8 processors
     R & G space division:  proc/nbgrp/npool/nimage =       8
     Waiting for input...
     Reading input from standard input

     Current dimensions of program PWSCF are:
     Max number of different atomic species (ntypx) = 10
     Max number of k-points (npk) =  40000
     Max angular momentum in pseudopotentials (lmaxx) =  3
               file C.pbe-n-kjpaw_psl.0.1.UPF: wavefunction(s)  2P renormalized
               file N.pbe-n-kjpaw_psl.0.1.UPF: wavefunction(s)  2P renormalized
               file H.pbe-kjpaw_psl.0.1.UPF: wavefunction(s)  1S renormalized
               file O.pbe-n-kjpaw_psl.0.1.UPF: wavefunction(s)  2P renormalized

     -------------------------------------
     Parameters for Dispersion Correction:
     -------------------------------------
       atom      VdW radius       C_6     

        C          2.744         60.710
        N          2.640         42.670
        H          1.892          4.857
        O          2.536         24.284

     Subspace diagonalization in iterative solution of the eigenvalue problem:
     a serial algorithm will be used

 
     Parallelization info
     --------------------
     sticks:   dense  smooth     PW     G-vecs:    dense   smooth      PW
     Min        1780    1780    466               152274   152274   20301
     Max        1781    1781    467               152277   152277   20303
     Sum       14241   14241   3729              1218197  1218197  162411
 


     bravais-lattice index     =            0
     lattice parameter (alat)  =      12.3607  a.u.
     unit-cell volume          =    9016.2375 (a.u.)^3
     number of atoms/cell      =          144
     number of atomic types    =            4
     number of electrons       =       496.00
     number of Kohn-Sham states=          297
     kinetic-energy cutoff     =     100.0000  Ry
     charge density cutoff     =     400.0000  Ry
     convergence threshold     =      1.0E-08
     mixing beta               =       0.5000
     number of iterations used =            8  plain     mixing
     Exchange-correlation      =  SLA  PW   PBX  PBC ( 1  4  3  4 0 0)

     celldm(1)=  12.360699  celldm(2)=   0.000000  celldm(3)=   0.000000
     celldm(4)=   0.000000  celldm(5)=   0.000000  celldm(6)=   0.000000

     crystal axes: (cart. coord. in units of alat)
               a(1) = (   1.000000   0.000000   0.000000 )  
               a(2) = (   0.000000   2.928757   0.000000 )  
               a(3) = (  -0.178237   0.000000   1.630095 )  

     reciprocal axes: (cart. coord. in units 2 pi/alat)
               b(1) = (  1.000000  0.000000  0.109341 )  
               b(2) = (  0.000000  0.341442  0.000000 )  
               b(3) = (  0.000000  0.000000  0.613461 )  


     PseudoPot. # 1 for  C read from file:
     /scratch/ahofstet/pseudo/C.pbe-n-kjpaw_psl.0.1.UPF
     MD5 check sum: 430fe95172b1e11ef3f8ed03bac87931
     Pseudo is Projector augmented-wave + core cor, Zval =  4.0
     Generated using "atomic" code by A. Dal Corso  v.5.0.99 svn rev. 10869
     Shape of augmentation charge: BESSEL
     Using radial grid of 1073 points,  4 beta functions with: 
                l(1) =   0
                l(2) =   0
                l(3) =   1
                l(4) =   1
     Q(r) pseudized with 0 coefficients 


     PseudoPot. # 2 for  N read from file:
     /scratch/ahofstet/pseudo/N.pbe-n-kjpaw_psl.0.1.UPF
     MD5 check sum: f73187c8b701007e77325f868c9291d7
     Pseudo is Projector augmented-wave + core cor, Zval =  5.0
     Generated using "atomic" code by A. Dal Corso  v.5.0.99 svn rev. 10869
     Shape of augmentation charge: PSQ
     Using radial grid of 1085 points,  4 beta functions with: 
                l(1) =   0
                l(2) =   0
                l(3) =   1
                l(4) =   1
     Q(r) pseudized with 0 coefficients 


     PseudoPot. # 3 for  H read from file:
     /scratch/ahofstet/pseudo/H.pbe-kjpaw_psl.0.1.UPF
     MD5 check sum: 94e484f906d9e9773b2f6e52662335b2
     Pseudo is Projector augmented-wave, Zval =  1.0
     Generated using "atomic" code by A. Dal Corso  v.5.0.99 svn rev. 10869
     Shape of augmentation charge: PSQ
     Using radial grid of  929 points,  2 beta functions with: 
                l(1) =   0
                l(2) =   0
     Q(r) pseudized with 0 coefficients 


     PseudoPot. # 4 for  O read from file:
     /scratch/ahofstet/pseudo/O.pbe-n-kjpaw_psl.0.1.UPF
     MD5 check sum: 3f94a2996a3169367d6eb21d9b593f20
     Pseudo is Projector augmented-wave + core cor, Zval =  6.0
     Generated using "atomic" code by A. Dal Corso  v.5.0.99 svn rev. 10869
     Shape of augmentation charge: BESSEL
     Using radial grid of 1095 points,  4 beta functions with: 
                l(1) =   0
                l(2) =   0
                l(3) =   1
                l(4) =   1
     Q(r) pseudized with 0 coefficients 


     atomic species   valence    mass     pseudopotential
        C              4.00    12.01070      C( 1.00)
        N              5.00    14.00670      N( 1.00)
        H              1.00     1.00794      H( 1.00)
        O              6.00    15.99940      O( 1.00)

      2 Sym. Ops., with inversion, found
          (note:  2 additional sym.ops. were found but ignored
           their fractional translations are incommensurate with FFT grid)


   Cartesian axes

     site n.     atom                  positions (alat units)
         1           N   tau(   1) = (   0.0512820   2.6415347   1.2793201  )
         2           N   tau(   2) = (   0.1813632   1.1771561   1.1658226  )
         3           N   tau(   3) = (   0.7704814   0.2872224   0.3507750  )
         4           N   tau(   4) = (   0.6404003   1.7516009   0.4642725  )
         5           N   tau(   5) = (   0.1113359   1.7944211   0.7456710  )
         6           N   tau(   6) = (   0.2995458   0.3300425   0.0693765  )
         7           N   tau(   7) = (   0.7104276   1.1343360   0.8844241  )
         8           N   tau(   8) = (   0.5222176   2.5987145   1.5607186  )
         9           N   tau(   9) = (   0.0252560   2.6083476   1.4807574  )
        10           N   tau(  10) = (   0.2073891   1.1439690   0.9643852  )
        11           N   tau(  11) = (   0.7965074   0.3204095   0.1493377  )
        12           N   tau(  12) = (   0.6143743   1.7847881   0.6657098  )
        13           N   tau(  13) = (   0.1556639   1.7114152   0.5627648  )
        14           N   tau(  14) = (   0.2552178   0.2470367   0.2522827  )
        15           N   tau(  15) = (   0.6660995   1.2173418   1.0673303  )
        16           N   tau(  16) = (   0.5665457   2.6817204   1.3778123  )
        17           N   tau(  17) = (   0.0484385   2.7841771   1.5700874  )
        18           N   tau(  18) = (   0.1842067   1.3197985   0.8750552  )
        19           N   tau(  19) = (   0.7733249   0.1445800   0.0600077  )
        20           N   tau(  20) = (   0.6375568   1.6089585   0.7550398  )
        21           N   tau(  21) = (   0.1322443   1.8553767   0.4266278  )
        22           N   tau(  22) = (   0.2786374   0.3909981   0.3884197  )
        23           N   tau(  23) = (   0.6895191   1.0733804   1.2034673  )
        24           N   tau(  24) = (   0.5431261   2.5377589   1.2416754  )
        25           N   tau(  25) = (   0.0889287   0.0037563   1.4330506  )
        26           N   tau(  26) = (   0.1437165   1.4681348   1.0120921  )
        27           N   tau(  27) = (   0.7328347   2.9250008   0.1970445  )
        28           N   tau(  28) = (   0.6780470   1.4606222   0.6180030  )
        29           N   tau(  29) = (   0.0722648   2.0316104   0.5147321  )
        30           N   tau(  30) = (   0.3386169   0.5672319   0.3003154  )
        31           N   tau(  31) = (   0.7494987   0.8971467   1.1153630  )
        32           N   tau(  32) = (   0.4831465   2.3615252   1.3297796  )
        33           N   tau(  33) = (   0.1326722   0.0279670   1.0782884  )
        34           N   tau(  34) = (   0.0999730   1.4923456   1.3668542  )
        35           N   tau(  35) = (   0.6890913   2.9007900   0.5518067  )
        36           N   tau(  36) = (   0.7217904   1.4364115   0.2632409  )
        37           N   tau(  37) = (   0.0012653   2.1440435   0.8486452  )
        38           N   tau(  38) = (   0.2313799   0.6796649   1.5964974  )
        39           N   tau(  39) = (   0.8204982   0.7847136   0.7814499  )
        40           N   tau(  40) = (   0.5903836   2.2490921   0.0335976  )
        41           N   tau(  41) = (   0.1375555   2.8611149   0.8997002  )
        42           N   tau(  42) = (   0.0950897   1.3967364   1.5454424  )
        43           N   tau(  43) = (   0.6842080   0.0676421   0.7303948  )
        44           N   tau(  44) = (   0.7266738   1.5320207   0.0846527  )
        45           N   tau(  45) = (  -0.0039815   2.1041336   1.0458944  )
        46           N   tau(  46) = (   0.2366267   0.6397551   1.3992482  )
        47           N   tau(  47) = (   0.8257450   0.8246234   0.5842007  )
        48           N   tau(  48) = (   0.5851367   2.2890020   0.2308469  )
        49           N   tau(  49) = (   0.1477778   1.2648279   0.4227040  )
        50           N   tau(  50) = (   0.2631039   2.7292065   0.3923435  )
        51           N   tau(  51) = (   0.6739857   1.6639291   1.2073911  )
        52           N   tau(  52) = (   0.5586595   0.1995506   1.2377516  )
        53           N   tau(  53) = (   0.1305670   0.4801798   0.8837321  )
        54           N   tau(  54) = (   0.1020782   1.9445583   1.5614105  )
        55           N   tau(  55) = (   0.6911965   2.4485773   0.7463630  )
        56           N   tau(  56) = (   0.7196853   0.9841988   0.0686846  )
        57           O   tau(  57) = (   0.1034387   2.6733693   0.8762139  )
        58           O   tau(  58) = (   0.1292065   1.2089908   1.5689287  )
        59           O   tau(  59) = (   0.7183248   0.2553878   0.7538812  )
        60           O   tau(  60) = (   0.6925569   1.7197663   0.0611663  )
        61           O   tau(  61) = (   0.0406253   1.9277096   1.1194112  )
        62           O   tau(  62) = (   0.1920199   0.4633311   1.3257314  )
        63           O   tau(  63) = (   0.7811381   1.0010474   0.5106839  )
        64           O   tau(  64) = (   0.6297436   2.4654260   0.3043637  )
        65           O   tau(  65) = (   0.1798736   0.0453232   0.7463782  )
        66           O   tau(  66) = (   0.2310081   1.5097017   0.0686693  )
        67           O   tau(  67) = (   0.6418899   2.8834339   0.8837169  )
        68           O   tau(  68) = (   0.5907553   1.4190554   1.5614257  )
        69           O   tau(  69) = (  -0.0570088   2.2468705   1.1629741  )
        70           O   tau(  70) = (   0.2896540   0.7824920   1.2821685  )
        71           O   tau(  71) = (   0.8787723   0.6818865   0.4671210  )
        72           O   tau(  72) = (   0.5321095   2.1462651   0.3479266  )
        73           C   tau(  73) = (   0.0910090   2.8426897   1.2476877  )
        74           C   tau(  74) = (   0.1416362   1.3783111   1.1974550  )
        75           C   tau(  75) = (   0.7307545   0.0860674   0.3824074  )
        76           C   tau(  76) = (   0.6801273   1.5504460   0.4326401  )
        77           C   tau(  77) = (   0.0592359   1.9925449   0.7161983  )
        78           C   tau(  78) = (   0.3516458   0.5281663   0.0988492  )
        79           C   tau(  79) = (   0.7625276   0.9362122   0.9138968  )
        80           C   tau(  80) = (   0.4701176   2.4005907   1.5312459  )
        81           C   tau(  81) = (   0.2907833   1.0888015   0.4388699  )
        82           C   tau(  82) = (   0.1200984   2.5531801   0.3761776  )
        83           C   tau(  83) = (   0.5309801   1.8399556   1.1912251  )
        84           C   tau(  84) = (   0.7016651   0.3755770   1.2539175  )
        85           C   tau(  85) = (   0.3099472   0.6046750   0.8177107  )
        86           C   tau(  86) = (  -0.0773020   2.0690535   1.6274320  )
        87           C   tau(  87) = (   0.5118162   2.3240821   0.8123844  )
        88           C   tau(  88) = (   0.8990655   0.8597036   0.0026631  )
        89           H   tau(  89) = (   0.0330931   2.5226515   1.1778509  )
        90           H   tau(  90) = (   0.1995521   1.0582730   1.2672918  )
        91           H   tau(  91) = (   0.7886704   0.4061056   0.4522442  )
        92           H   tau(  92) = (   0.6222114   1.8704841   0.3628033  )
        93           H   tau(  93) = (   0.1170931   1.7020963   0.8768839  )
        94           H   tau(  94) = (   0.1155521   0.2377177   1.5682588  )
        95           H   tau(  95) = (   0.7046703   1.2266608   0.7532112  )
        96           H   tau(  96) = (   0.7062114   2.6910394   0.0618363  )
        97           H   tau(  97) = (   0.1748660   1.3511701   0.2901511  )
        98           H   tau(  98) = (   0.2360158   2.8155486   0.5248965  )
        99           H   tau(  99) = (   0.6468975   1.5775870   1.3399440  )
       100           H   tau( 100) = (   0.5857477   0.1132084   1.1051986  )
       101           H   tau( 101) = (   0.1317965   0.3367593   0.8153762  )
       102           H   tau( 102) = (   0.2790852   1.8011378  -0.0003286  )
       103           H   tau( 103) = (   0.6899669   2.5919978   0.8147189  )
       104           H   tau( 104) = (   0.5426783   1.1276193   1.6304237  )
       105           H   tau( 105) = (  -0.0020121   1.2148043   0.4229166  )
       106           H   tau( 106) = (   0.4128939   2.6791829   0.3921309  )
       107           H   tau( 107) = (   0.8237756   1.7139527   1.2071785  )
       108           H   tau( 108) = (   0.4088696   0.2495742   1.2379641  )
       109           H   tau( 109) = (   0.1362539   0.4608120   1.0415967  )
       110           H   tau( 110) = (   0.0963913   1.9251905   1.4035459  )
       111           H   tau( 111) = (   0.6855095   2.4679451   0.5884984  )
       112           H   tau( 112) = (   0.7253722   1.0035665   0.2265492  )
       113           H   tau( 113) = (   0.1647145   1.3595116   0.5491140  )
       114           H   tau( 114) = (   0.2461673   2.8238901   0.2659336  )
       115           H   tau( 115) = (   0.6570490   1.5692455   1.0809811  )
       116           H   tau( 116) = (   0.5755962   0.1048670   1.3641615  )
       117           H   tau( 117) = (  -0.0040125   0.5585389   0.8473642  )
       118           H   tau( 118) = (   0.2366577   2.0229174   1.5977784  )
       119           H   tau( 119) = (   0.8257760   2.3702182   0.7827309  )
       120           H   tau( 120) = (   0.5851057   0.9058397   0.0323167  )
       121           H   tau( 121) = (   0.4470304   1.1472687   0.4312828  )
       122           H   tau( 122) = (  -0.0361487   2.6116472   0.3837647  )
       123           H   tau( 123) = (   0.3747330   1.7814884   1.1988123  )
       124           H   tau( 124) = (   0.8579122   0.3171099   1.2463304  )
       125           H   tau( 125) = (   0.4476344   0.5102015   0.8282246  )
       126           H   tau( 126) = (   0.7850108   1.9745800   1.6169180  )
       127           H   tau( 127) = (   0.3741291   2.4185556   0.8018704  )
       128           H   tau( 128) = (   0.0367526   0.9541771   0.0131771  )
       129           H   tau( 129) = (   0.2623795   0.9805960   0.3146462  )
       130           H   tau( 130) = (   0.1485023   2.4449745   0.5004014  )
       131           H   tau( 131) = (   0.5593840   1.9481611   1.3154489  )
       132           H   tau( 132) = (   0.6732612   0.4837826   1.1296937  )
       133           H   tau( 133) = (   0.2878264   0.6506503   0.6587759  )
       134           H   tau( 134) = (   0.1230554   2.1150288   0.1562716  )
       135           H   tau( 135) = (   0.5339371   2.2781068   0.9713192  )
       136           H   tau( 136) = (   0.6987081   0.8137282   1.4738234  )
       137           H   tau( 137) = (   0.2663978   1.0139743   0.5865816  )
       138           H   tau( 138) = (   0.1444840   2.4783528   0.2284659  )
       139           H   tau( 139) = (   0.5553657   1.9147828   1.0435135  )
       140           H   tau( 140) = (   0.6772795   0.4504042   1.4016291  )
       141           H   tau( 141) = (   0.3211681   0.7373362   0.9187314  )
       142           H   tau( 142) = (  -0.0885229   2.2017147   1.5264113  )
       143           H   tau( 143) = (   0.5005953   2.1914209   0.7113637  )
       144           H   tau( 144) = (   0.9102864   0.7270423   0.1036838  )

     number of k points=     4
                       cart. coord. in units 2pi/alat
        k(    1) = (   0.0000000   0.0000000   0.0000000), wk =   0.3333333
        k(    2) = (   0.0000000   0.0000000  -0.3067306), wk =   0.3333333
        k(    3) = (   0.3333333   0.0000000   0.0364471), wk =   0.6666667
        k(    4) = (   0.3333333   0.0000000  -0.2702835), wk =   0.6666667

     Dense  grid:  1218197 G-vectors     FFT dimensions: (  80, 240, 135)

     Estimated max dynamical RAM per process >    1495.37MB

     Estimated total allocated dynamical RAM >   11962.96MB

     Check: negative/imaginary core charge=   -0.000002    0.000000

     Initial potential from superposition of free atoms

     starting charge  495.99837, renormalised to  496.00000
     Starting wfc are  408 randomized atomic wfcs
     Checking if some PAW data can be deallocated... 

     total cpu time spent up to now is       75.5 secs

     per-process dynamical memory:   824.8 Mb

     Self-consistent Calculation

     iteration #  1     ecut=   100.00 Ry     beta=0.50
     Davidson diagonalization with overlap
     ethr =  1.00E-02,  avg # of iterations =  3.0

     total cpu time spent up to now is      277.2 secs

     total energy              =   -2603.82098408 Ry
     Harris-Foulkes estimate   =   -2610.79453261 Ry
     estimated scf accuracy    <      13.28444882 Ry

     iteration #  2     ecut=   100.00 Ry     beta=0.50
     Davidson diagonalization with overlap
     ethr =  2.68E-03,  avg # of iterations =  4.2

     total cpu time spent up to now is      440.7 secs

     total energy              =   -2606.10646694 Ry
     Harris-Foulkes estimate   =   -2607.42332994 Ry
     estimated scf accuracy    <       2.86797496 Ry

     iteration #  3     ecut=   100.00 Ry     beta=0.50
     Davidson diagonalization with overlap
     ethr =  5.78E-04,  avg # of iterations =  6.8

     total cpu time spent up to now is      599.0 secs

     total energy              =   -2606.67972127 Ry
     Harris-Foulkes estimate   =   -2606.84530340 Ry
     estimated scf accuracy    <       0.46843405 Ry

     iteration #  4     ecut=   100.00 Ry     beta=0.50
     Davidson diagonalization with overlap
     ethr =  9.44E-05,  avg # of iterations = 12.0

     total cpu time spent up to now is      775.2 secs

     total energy              =   -2606.74452001 Ry
     Harris-Foulkes estimate   =   -2606.76914240 Ry
     estimated scf accuracy    <       0.07434966 Ry

     iteration #  5     ecut=   100.00 Ry     beta=0.50
     Davidson diagonalization with overlap
     ethr =  1.50E-05,  avg # of iterations = 13.0

     total cpu time spent up to now is      983.3 secs

     total energy              =   -2606.75776667 Ry
     Harris-Foulkes estimate   =   -2606.77018619 Ry
     estimated scf accuracy    <       0.03262272 Ry

     iteration #  6     ecut=   100.00 Ry     beta=0.50
     Davidson diagonalization with overlap
     ethr =  6.58E-06,  avg # of iterations =  4.0

     total cpu time spent up to now is     1111.2 secs

     total energy              =   -2606.76383473 Ry
     Harris-Foulkes estimate   =   -2606.76459273 Ry
     estimated scf accuracy    <       0.00219852 Ry

     iteration #  7     ecut=   100.00 Ry     beta=0.50
     Davidson diagonalization with overlap
     ethr =  4.43E-07,  avg # of iterations =  8.8

     total cpu time spent up to now is     1319.8 secs

     total energy              =   -2606.76444247 Ry
     Harris-Foulkes estimate   =   -2606.76467066 Ry
     estimated scf accuracy    <       0.00061846 Ry

     iteration #  8     ecut=   100.00 Ry     beta=0.50
     Davidson diagonalization with overlap
     ethr =  1.25E-07,  avg # of iterations =  3.0

     total cpu time spent up to now is     1441.3 secs

     total energy              =   -2606.76454999 Ry
     Harris-Foulkes estimate   =   -2606.76458429 Ry
     estimated scf accuracy    <       0.00011068 Ry

     iteration #  9     ecut=   100.00 Ry     beta=0.50
     Davidson diagonalization with overlap
     ethr =  2.23E-08,  avg # of iterations =  3.0

     total cpu time spent up to now is     1591.3 secs

     total energy              =   -2606.76458023 Ry
     Harris-Foulkes estimate   =   -2606.76458891 Ry
     estimated scf accuracy    <       0.00002914 Ry

     iteration # 10     ecut=   100.00 Ry     beta=0.50
     Davidson diagonalization with overlap
     ethr =  5.87E-09,  avg # of iterations =  2.2

     total cpu time spent up to now is     1711.3 secs

     total energy              =   -2606.76458491 Ry
     Harris-Foulkes estimate   =   -2606.76458589 Ry
     estimated scf accuracy    <       0.00000383 Ry

     iteration # 11     ecut=   100.00 Ry     beta=0.50
     Davidson diagonalization with overlap
     ethr =  7.73E-10,  avg # of iterations =  3.0

     total cpu time spent up to now is     1878.8 secs

     total energy              =   -2606.76458605 Ry
     Harris-Foulkes estimate   =   -2606.76458637 Ry
     estimated scf accuracy    <       0.00000111 Ry

     iteration # 12     ecut=   100.00 Ry     beta=0.50
     Davidson diagonalization with overlap
     ethr =  2.25E-10,  avg # of iterations =  2.8

     total cpu time spent up to now is     2001.4 secs

     total energy              =   -2606.76458625 Ry
     Harris-Foulkes estimate   =   -2606.76458628 Ry
     estimated scf accuracy    <       0.00000016 Ry

     iteration # 13     ecut=   100.00 Ry     beta=0.50
     Davidson diagonalization with overlap
     ethr =  3.16E-11,  avg # of iterations =  3.8

     total cpu time spent up to now is     2167.5 secs

     total energy              =   -2606.76458629 Ry
     Harris-Foulkes estimate   =   -2606.76458630 Ry
     estimated scf accuracy    <       0.00000004 Ry

     iteration # 14     ecut=   100.00 Ry     beta=0.50
     Davidson diagonalization with overlap
     ethr =  8.61E-12,  avg # of iterations =  3.0

     total cpu time spent up to now is     2285.8 secs

     End of self-consistent calculation

          k = 0.0000 0.0000 0.0000 (152287 PWs)   bands (ev):

   -23.6802 -23.6800 -23.6383 -23.6379 -23.6372 -23.6369 -23.6113 -23.6111
   -21.7508 -21.7496 -21.7365 -21.7360 -21.3453 -21.3439 -21.3374 -21.3365
   -18.7963 -18.7961 -18.7847 -18.7805 -18.7632 -18.7632 -18.7630 -18.7608
   -17.3603 -17.3557 -17.2917 -17.2664 -17.2580 -17.2555 -17.2383 -17.2161
   -17.1496 -17.1419 -17.0872 -17.0863 -16.9169 -16.9105 -16.8510 -16.8467
   -16.6384 -16.6316 -16.6038 -16.6004 -16.2315 -16.2241 -16.2054 -16.2053
   -14.8679 -14.8654 -14.8533 -14.8529 -14.5325 -14.5260 -14.5225 -14.5179
   -10.7963 -10.7841 -10.7645 -10.7595 -10.5617 -10.5363 -10.5278 -10.5272
   -10.3950 -10.3860 -10.3846 -10.3828 -10.0776 -10.0763 -10.0689 -10.0683
    -9.4859  -9.4766  -9.4756  -9.4714  -9.1946  -9.1507  -9.1256  -9.1240
    -8.9662  -8.9574  -8.8927  -8.8515  -8.4856  -8.4521  -8.2916  -8.2836
    -7.3195  -7.3188  -7.3127  -7.1834  -7.1757  -7.1739  -7.0969  -7.0447
    -6.8652  -6.7906  -6.7658  -6.7635  -6.7278  -6.6884  -6.6818  -6.6741
    -6.5659  -6.5124  -6.4868  -6.4653  -6.4645  -6.4339  -6.4196  -6.4180
    -6.4007  -6.3102  -6.2620  -6.2006  -6.1941  -6.1681  -6.0997  -6.0983
    -6.0684  -6.0684  -6.0400  -6.0258  -6.0176  -6.0170  -5.9612  -5.9168
    -5.6208  -5.5884  -5.5457  -5.5247  -5.5079  -5.4948  -5.4385  -5.3902
    -5.3602  -5.3519  -5.3275  -5.3020  -4.7232  -4.7183  -4.6865  -4.6829
    -4.5929  -4.5882  -4.5822  -4.5721  -4.3550  -4.3395  -4.2843  -4.2731
    -3.0085  -2.9752  -2.9507  -2.9129  -2.8515  -2.8419  -2.8119  -2.7645
    -2.7593  -2.6946  -2.6838  -2.6765  -2.6520  -2.6128  -2.5419  -2.5201
    -2.4267  -2.3905  -2.3575  -2.3245  -2.0861  -2.0575  -1.9987  -1.9873
    -1.7738  -1.7638  -1.7414  -1.7391  -1.6291  -1.6165  -1.5635  -1.5456
    -1.5308  -1.4634  -1.4408  -1.4321  -1.3988  -1.3814  -1.3811  -1.3707
    -1.3064  -1.2656  -1.1524  -1.1476  -0.8507  -0.7880  -0.7873  -0.7615
    -0.7538  -0.7142  -0.7065  -0.6398  -0.6143  -0.6110  -0.6042  -0.5645
    -0.5005  -0.4998  -0.4704  -0.4678  -0.4076  -0.3974  -0.3430  -0.3396
    -0.3237  -0.3064  -0.3043  -0.2539  -0.2456  -0.2427  -0.2035  -0.1929
     0.0692   0.0771   0.0939   0.1045   0.2966   0.2971   0.3152   0.3384
     0.5880   0.6056   0.6270   0.6311   0.6329   0.6586   0.6667   0.6777
     0.7915   0.8060   0.9127   0.9549   1.0145   1.0495   1.1100   1.1276
     4.2465   4.2725   4.3116   4.3647   4.4156   4.4480   4.4511   4.4629
     5.3269   5.3402   5.4883   5.4908   5.8452   5.8550   5.9491   5.9510
     7.0500   7.0884   7.1599   7.1637   7.1852   7.3499   7.4085   7.4440
     7.4458   7.5424   7.5703   7.7844   7.8901   7.9631   8.1507   8.1654
     8.3887   8.4662   8.6697   8.6968   8.7279   8.7896   8.8599   8.9655
     9.0706   9.1518   9.2390   9.2458   9.4042   9.4543   9.4624   9.4841
     9.4936

          k = 0.0000 0.0000-0.3067 (152340 PWs)   bands (ev):

   -23.6801 -23.6800 -23.6377 -23.6377 -23.6375 -23.6374 -23.6112 -23.6112
   -21.7504 -21.7503 -21.7363 -21.7363 -21.3447 -21.3447 -21.3369 -21.3368
   -18.7962 -18.7962 -18.7821 -18.7821 -18.7636 -18.7636 -18.7614 -18.7614
   -17.3374 -17.3374 -17.2524 -17.2524 -17.2493 -17.2493 -17.2348 -17.2348
   -17.1680 -17.1680 -17.1218 -17.1218 -16.8835 -16.8835 -16.8791 -16.8790
   -16.6329 -16.6329 -16.6016 -16.6015 -16.2286 -16.2286 -16.2057 -16.2057
   -14.8553 -14.8553 -14.8526 -14.8526 -14.5271 -14.5271 -14.5203 -14.5203
   -10.7933 -10.7933 -10.7753 -10.7753 -10.5506 -10.5505 -10.5406 -10.5406
   -10.3784 -10.3784 -10.3626 -10.3626 -10.0705 -10.0705 -10.0687 -10.0687
    -9.5078  -9.5078  -9.4788  -9.4788  -9.1669  -9.1669  -9.1280  -9.1280
    -8.9800  -8.9799  -8.8667  -8.8667  -8.4816  -8.4816  -8.2975  -8.2975
    -7.2879  -7.2878  -7.2313  -7.2313  -7.0681  -7.0681  -7.0545  -7.0545
    -6.8081  -6.8080  -6.7771  -6.7770  -6.6953  -6.6953  -6.6411  -6.6411
    -6.5596  -6.5595  -6.5097  -6.5097  -6.4697  -6.4697  -6.4188  -6.4188
    -6.3546  -6.3546  -6.2581  -6.2581  -6.1892  -6.1892  -6.1848  -6.1848
    -6.1305  -6.1305  -6.0519  -6.0519  -6.0024  -6.0024  -5.9804  -5.9804
    -5.5429  -5.5429  -5.5095  -5.5095  -5.4867  -5.4867  -5.4603  -5.4602
    -5.3015  -5.3015  -5.2841  -5.2841  -4.7200  -4.7200  -4.7008  -4.7008
    -4.5924  -4.5924  -4.5694  -4.5693  -4.3215  -4.3215  -4.3077  -4.3077
    -2.9956  -2.9956  -2.9549  -2.9549  -2.8796  -2.8796  -2.8132  -2.8132
    -2.6886  -2.6886  -2.6213  -2.6213  -2.5870  -2.5870  -2.5292  -2.5292
    -2.4363  -2.4362  -2.3430  -2.3430  -2.0828  -2.0828  -2.0376  -2.0376
    -1.8025  -1.8025  -1.7117  -1.7117  -1.5900  -1.5899  -1.5141  -1.5141
    -1.4880  -1.4880  -1.4412  -1.4412  -1.4112  -1.4112  -1.3140  -1.3140
    -1.3023  -1.3023  -1.1525  -1.1525  -0.8427  -0.8427  -0.8113  -0.8113
    -0.7336  -0.7336  -0.7242  -0.7241  -0.6839  -0.6839  -0.6286  -0.6286
    -0.4768  -0.4768  -0.4582  -0.4582  -0.4487  -0.4487  -0.3435  -0.3435
    -0.3144  -0.3143  -0.2711  -0.2711  -0.1706  -0.1706  -0.1430  -0.1430
     0.0912   0.0912   0.1105   0.1105   0.3119   0.3120   0.3263   0.3263
     0.5935   0.5935   0.6177   0.6177   0.6440   0.6440   0.6753   0.6753
     0.8410   0.8411   0.8998   0.8998   1.0441   1.0441   1.0987   1.0987
     4.2833   4.2834   4.3535   4.3535   4.3732   4.3732   4.4639   4.4640
     5.3267   5.3267   5.5205   5.5205   5.8506   5.8506   5.9492   5.9492
     7.0805   7.0805   7.1441   7.1441   7.2027   7.2027   7.4659   7.4659
     7.5070   7.5070   7.6442   7.6443   7.8629   7.8629   8.1797   8.1798
     8.4550   8.4550   8.6343   8.6344   8.8668   8.8668   8.9097   8.9097
     9.0654   9.0654   9.3117   9.3117   9.3409   9.3410   9.4268   9.4269
     9.5028

          k = 0.3333 0.0000 0.0364 (152275 PWs)   bands (ev):

   -23.6669 -23.6667 -23.6380 -23.6377 -23.6375 -23.6371 -23.6246 -23.6243
   -21.7429 -21.7421 -21.7355 -21.7354 -21.3481 -21.3472 -21.3437 -21.3433
   -18.8110 -18.8107 -18.7719 -18.7694 -18.7633 -18.7633 -18.7592 -18.7574
   -17.3387 -17.3362 -17.2809 -17.2763 -17.2684 -17.2541 -17.2462 -17.2294
   -17.1440 -17.1408 -17.0959 -17.0956 -16.9002 -16.8960 -16.8671 -16.8641
   -16.6318 -16.6269 -16.6115 -16.6081 -16.2276 -16.2234 -16.2084 -16.2080
   -14.8643 -14.8625 -14.8567 -14.8564 -14.5304 -14.5253 -14.5242 -14.5201
   -10.7993 -10.7935 -10.7686 -10.7665 -10.5588 -10.5462 -10.5309 -10.5302
   -10.4051 -10.4013 -10.3898 -10.3868 -10.0742 -10.0702 -10.0684 -10.0644
    -9.4809  -9.4772  -9.4688  -9.4677  -9.1830  -9.1617  -9.1252  -9.1247
    -8.9621  -8.9578  -8.8810  -8.8607  -8.4781  -8.4615  -8.2898  -8.2860
    -7.3684  -7.3541  -7.2856  -7.2230  -7.1832  -7.1501  -7.1470  -7.1097
    -6.8030  -6.7582  -6.7368  -6.7253  -6.6980  -6.6791  -6.6193  -6.5937
    -6.5447  -6.5161  -6.4652  -6.4619  -6.4182  -6.4106  -6.3831  -6.3676
    -6.3656  -6.3097  -6.2342  -6.1975  -6.1913  -6.1587  -6.1226  -6.1098
    -6.1028  -6.0944  -6.0697  -6.0608  -6.0123  -5.9956  -5.9622  -5.9585
    -5.5371  -5.5176  -5.4991  -5.4985  -5.4140  -5.4002  -5.3586  -5.3443
    -5.3206  -5.3097  -5.2866  -5.2841  -4.8203  -4.8071  -4.7976  -4.7834
    -4.6901  -4.6821  -4.6788  -4.6508  -4.3587  -4.3434  -4.3166  -4.3094
    -3.0051  -2.9966  -2.9298  -2.9021  -2.8713  -2.8563  -2.8434  -2.7795
    -2.7661  -2.7309  -2.6517  -2.6423  -2.6407  -2.6320  -2.5018  -2.4615
    -2.4126  -2.4118  -2.3527  -2.3417  -2.0987  -2.0486  -2.0268  -1.9923
    -1.7859  -1.7812  -1.7557  -1.7555  -1.6466  -1.6454  -1.5790  -1.5451
    -1.5244  -1.4814  -1.4468  -1.4408  -1.4138  -1.3727  -1.3698  -1.3657
    -1.2638  -1.2473  -1.1650  -1.1581  -0.8632  -0.8383  -0.7893  -0.7532
    -0.7512  -0.7267  -0.7079  -0.7025  -0.6602  -0.6275  -0.6248  -0.5839
    -0.5736  -0.5524  -0.4698  -0.4491  -0.4266  -0.3988  -0.3146  -0.3034
    -0.3031  -0.2738  -0.2568  -0.2397  -0.2165  -0.2083  -0.1964  -0.1903
     0.0701   0.0748   0.0928   0.1005   0.2979   0.3035   0.3098   0.3244
     0.5942   0.6142   0.6181   0.6246   0.6283   0.6451   0.6660   0.6738
     0.8343   0.8367   0.9232   0.9309   1.0223   1.0472   1.0830   1.0928
     4.2708   4.2807   4.3236   4.3453   4.3596   4.4049   4.4766   4.4874
     5.3572   5.3609   5.5490   5.5537   5.8170   5.8180   5.8890   5.8895
     6.9457   6.9915   7.1094   7.1804   7.3039   7.3184   7.3968   7.4476
     7.5648   7.6990   7.7217   7.7931   7.9128   8.2747   8.3251   8.3900
     8.4493   8.4773   8.6369   8.6861   8.7724   8.7946   8.8788   8.9201
     8.9657   8.9717   9.0284   9.1078   9.1980   9.2264   9.2964   9.3037
     9.3202

          k = 0.3333 0.0000-0.2703 (152258 PWs)   bands (ev):

   -23.6669 -23.6667 -23.6379 -23.6378 -23.6374 -23.6372 -23.6246 -23.6243
   -21.7428 -21.7426 -21.7356 -21.7354 -21.3483 -21.3471 -21.3441 -21.3428
   -18.8118 -18.8093 -18.7716 -18.7697 -18.7637 -18.7623 -18.7604 -18.7563
   -17.3206 -17.3157 -17.2680 -17.2617 -17.2581 -17.2495 -17.2259 -17.2132
   -17.1737 -17.1680 -17.1306 -17.1280 -16.9098 -16.9060 -16.8642 -16.8610
   -16.6286 -16.6272 -16.6107 -16.6070 -16.2266 -16.2256 -16.2115 -16.2060
   -14.8572 -14.8547 -14.8524 -14.8519 -14.5284 -14.5261 -14.5220 -14.5192
   -10.8003 -10.7963 -10.7865 -10.7729 -10.5583 -10.5493 -10.5469 -10.5406
   -10.4085 -10.3859 -10.3780 -10.3634 -10.0648 -10.0637 -10.0621 -10.0566
    -9.5010  -9.4977  -9.4835  -9.4782  -9.1642  -9.1620  -9.1402  -9.1199
    -8.9784  -8.9763  -8.8729  -8.8644  -8.4958  -8.4676  -8.3200  -8.2822
    -7.3313  -7.3083  -7.2600  -7.2012  -7.1097  -7.0973  -7.0644  -7.0601
    -6.7826  -6.7628  -6.7613  -6.7122  -6.6752  -6.6374  -6.6341  -6.5985
    -6.5937  -6.5588  -6.5224  -6.4650  -6.4519  -6.4076  -6.3711  -6.3682
    -6.3517  -6.3207  -6.2535  -6.2222  -6.2163  -6.1802  -6.1747  -6.1532
    -6.1327  -6.1156  -6.0838  -6.0732  -6.0565  -6.0018  -5.9803  -5.9743
    -5.5692  -5.4950  -5.4946  -5.4472  -5.3770  -5.3731  -5.3526  -5.3318
    -5.3035  -5.2833  -5.2831  -5.2555  -4.8378  -4.8149  -4.7957  -4.7637
    -4.7112  -4.6692  -4.6632  -4.6526  -4.3597  -4.3436  -4.3180  -4.3161
    -3.0126  -2.9546  -2.9514  -2.9512  -2.9179  -2.8955  -2.8387  -2.8177
    -2.6926  -2.6721  -2.6292  -2.6091  -2.5974  -2.5819  -2.5081  -2.4688
    -2.4623  -2.4001  -2.3532  -2.3263  -2.1506  -2.1295  -2.0465  -2.0095
    -1.8081  -1.8005  -1.7570  -1.7311  -1.6514  -1.6079  -1.5907  -1.5296
    -1.4760  -1.4503  -1.4254  -1.4126  -1.4088  -1.3538  -1.3245  -1.3017
    -1.2782  -1.2509  -1.1772  -1.1527  -0.8741  -0.8634  -0.8178  -0.8077
    -0.8027  -0.7750  -0.7407  -0.7402  -0.7159  -0.6928  -0.6375  -0.6060
    -0.5970  -0.5650  -0.4560  -0.4448  -0.4310  -0.4011  -0.3197  -0.3155
    -0.2980  -0.2580  -0.2254  -0.2073  -0.1901  -0.1721  -0.1590  -0.1276
     0.0778   0.0956   0.1041   0.1181   0.3112   0.3148   0.3159   0.3271
     0.5839   0.5907   0.6058   0.6149   0.6363   0.6530   0.6532   0.6950
     0.8417   0.8566   0.9095   0.9146   1.0248   1.0507   1.0752   1.0935
     4.2380   4.2482   4.3356   4.3755   4.3922   4.4398   4.4479   4.4642
     5.3630   5.3648   5.5523   5.5533   5.8156   5.8184   5.8876   5.9000
     6.9796   7.0008   7.0144   7.1214   7.2895   7.3594   7.3969   7.5089
     7.5242   7.6244   7.6369   7.8850   8.1074   8.1239   8.2691   8.3112
     8.4256   8.5368   8.6267   8.7249   8.8100   8.8197   8.8679   8.8788
     8.9386   8.9477   8.9899   9.0576   9.1271   9.2310   9.2612   9.3192
     9.3542

     highest occupied, lowest unoccupied level (ev):     1.1276    4.2380

!    total energy              =   -2606.76458629 Ry
     Harris-Foulkes estimate   =   -2606.76458630 Ry
     estimated scf accuracy    <          6.9E-09 Ry

     total all-electron energy =     -9825.273108 Ry

     The total energy is the sum of the following terms:

     one-electron contribution =   -1353.57298133 Ry
     hartree contribution      =     875.20628941 Ry
     xc contribution           =    -527.55281643 Ry
     ewald contribution        =    -877.79217672 Ry
     Dispersion Correction     =      -0.64919505 Ry
     one-center paw contrib.   =    -722.40370618 Ry

     convergence has been achieved in  14 iterations

     Forces acting on atoms (cartesian axes, Ry/au):

     atom    1 type  2   force =     0.00018603   -0.00048712   -0.00225292
     atom    2 type  2   force =    -0.00018583   -0.00048871    0.00225154
     atom    3 type  2   force =    -0.00018603    0.00048712    0.00225292
     atom    4 type  2   force =     0.00018583    0.00048871   -0.00225154
     atom    5 type  2   force =    -0.00072248   -0.00008086    0.00207621
     atom    6 type  2   force =     0.00072233   -0.00008390   -0.00207763
     atom    7 type  2   force =     0.00072248    0.00008086   -0.00207621
     atom    8 type  2   force =    -0.00072233    0.00008390    0.00207763
     atom    9 type  2   force =    -0.00067291   -0.00185282    0.00170148
     atom   10 type  2   force =     0.00067266   -0.00185361   -0.00170077
     atom   11 type  2   force =     0.00067291    0.00185282   -0.00170148
     atom   12 type  2   force =    -0.00067266    0.00185361    0.00170077
     atom   13 type  2   force =    -0.00077207   -0.00236624   -0.00184143
     atom   14 type  2   force =     0.00077329   -0.00236351    0.00184081
     atom   15 type  2   force =     0.00077207    0.00236624    0.00184143
     atom   16 type  2   force =    -0.00077329    0.00236351   -0.00184081
     atom   17 type  2   force =     0.00066534    0.00061223    0.00022571
     atom   18 type  2   force =    -0.00066470    0.00060973   -0.00022969
     atom   19 type  2   force =    -0.00066534   -0.00061223   -0.00022571
     atom   20 type  2   force =     0.00066470   -0.00060973    0.00022969
     atom   21 type  2   force =    -0.00115714   -0.00083335   -0.00112743
     atom   22 type  2   force =     0.00115675   -0.00083539    0.00112674
     atom   23 type  2   force =     0.00115714    0.00083335    0.00112743
     atom   24 type  2   force =    -0.00115675    0.00083539   -0.00112674
     atom   25 type  2   force =    -0.00073563   -0.00000894   -0.00039662
     atom   26 type  2   force =     0.00073486   -0.00000545    0.00039803
     atom   27 type  2   force =     0.00073563    0.00000894    0.00039662
     atom   28 type  2   force =    -0.00073486    0.00000545   -0.00039803
     atom   29 type  2   force =     0.00027935    0.00111695    0.00156741
     atom   30 type  2   force =    -0.00027955    0.00111645   -0.00156646
     atom   31 type  2   force =    -0.00027935   -0.00111695   -0.00156741
     atom   32 type  2   force =     0.00027955   -0.00111645    0.00156646
     atom   33 type  2   force =     0.00080604   -0.00043798    0.00022463
     atom   34 type  2   force =    -0.00080663   -0.00043507   -0.00022437
     atom   35 type  2   force =    -0.00080604    0.00043798   -0.00022463
     atom   36 type  2   force =     0.00080663    0.00043507    0.00022437
     atom   37 type  2   force =     0.00038675    0.00096776   -0.00040237
     atom   38 type  2   force =    -0.00038648    0.00096844    0.00040349
     atom   39 type  2   force =    -0.00038675   -0.00096776    0.00040237
     atom   40 type  2   force =     0.00038648   -0.00096844   -0.00040349
     atom   41 type  2   force =    -0.00109814   -0.00133956    0.00221422
     atom   42 type  2   force =     0.00109836   -0.00134167   -0.00221329
     atom   43 type  2   force =     0.00109814    0.00133956   -0.00221422
     atom   44 type  2   force =    -0.00109836    0.00134167    0.00221329
     atom   45 type  2   force =    -0.00083930    0.00027072    0.00054440
     atom   46 type  2   force =     0.00083786    0.00026349   -0.00055000
     atom   47 type  2   force =     0.00083930   -0.00027072   -0.00054440
     atom   48 type  2   force =    -0.00083786   -0.00026349    0.00055000
     atom   49 type  2   force =    -0.00005354    0.00091068   -0.00071952
     atom   50 type  2   force =     0.00005426    0.00091071    0.00071866
     atom   51 type  2   force =     0.00005354   -0.00091068    0.00071952
     atom   52 type  2   force =    -0.00005426   -0.00091071   -0.00071866
     atom   53 type  2   force =     0.00141948    0.00116220   -0.00099451
     atom   54 type  2   force =    -0.00141982    0.00116353    0.00099590
     atom   55 type  2   force =    -0.00141948   -0.00116220    0.00099451
     atom   56 type  2   force =     0.00141982   -0.00116353   -0.00099590
     atom   57 type  4   force =     0.00066900    0.00027913    0.00020614
     atom   58 type  4   force =    -0.00066910    0.00027783   -0.00020844
     atom   59 type  4   force =    -0.00066900   -0.00027913   -0.00020614
     atom   60 type  4   force =     0.00066910   -0.00027783    0.00020844
     atom   61 type  4   force =    -0.00194420   -0.00034785   -0.00026195
     atom   62 type  4   force =     0.00194640   -0.00033975    0.00026677
     atom   63 type  4   force =     0.00194420    0.00034785    0.00026195
     atom   64 type  4   force =    -0.00194640    0.00033975   -0.00026677
     atom   65 type  4   force =    -0.00113471    0.00167026   -0.00246133
     atom   66 type  4   force =     0.00113415    0.00167207    0.00246341
     atom   67 type  4   force =     0.00113471   -0.00167026    0.00246133
     atom   68 type  4   force =    -0.00113415   -0.00167207   -0.00246341
     atom   69 type  4   force =     0.00119299    0.00044741   -0.00062787
     atom   70 type  4   force =    -0.00119328    0.00044669    0.00062833
     atom   71 type  4   force =    -0.00119299   -0.00044741    0.00062787
     atom   72 type  4   force =     0.00119328   -0.00044669   -0.00062833
     atom   73 type  1   force =     0.00006795    0.00064402    0.00027821
     atom   74 type  1   force =    -0.00006778    0.00064335   -0.00026615
     atom   75 type  1   force =    -0.00006795   -0.00064402   -0.00027821
     atom   76 type  1   force =     0.00006778   -0.00064335    0.00026615
     atom   77 type  1   force =     0.00172869    0.00100102    0.00029437
     atom   78 type  1   force =    -0.00172858    0.00099857   -0.00028849
     atom   79 type  1   force =    -0.00172869   -0.00100102   -0.00029437
     atom   80 type  1   force =     0.00172858   -0.00099857    0.00028849
     atom   81 type  1   force =    -0.00196708   -0.00085133    0.00103369
     atom   82 type  1   force =     0.00196671   -0.00084867   -0.00102792
     atom   83 type  1   force =     0.00196708    0.00085133   -0.00103369
     atom   84 type  1   force =    -0.00196671    0.00084867    0.00102792
     atom   85 type  1   force =     0.00002811    0.00085135    0.00000758
     atom   86 type  1   force =    -0.00002797    0.00085418   -0.00001450
     atom   87 type  1   force =    -0.00002811   -0.00085135   -0.00000758
     atom   88 type  1   force =     0.00002797   -0.00085418    0.00001450
     atom   89 type  3   force =     0.00037202    0.00035456   -0.00008788
     atom   90 type  3   force =    -0.00037199    0.00035390    0.00008811
     atom   91 type  3   force =    -0.00037202   -0.00035456    0.00008788
     atom   92 type  3   force =     0.00037199   -0.00035390   -0.00008811
     atom   93 type  3   force =     0.00032509    0.00045269   -0.00106521
     atom   94 type  3   force =    -0.00032515    0.00045223    0.00106501
     atom   95 type  3   force =    -0.00032509   -0.00045269    0.00106521
     atom   96 type  3   force =     0.00032515   -0.00045223   -0.00106501
     atom   97 type  3   force =    -0.00034296   -0.00024489    0.00015666
     atom   98 type  3   force =     0.00034299   -0.00024495   -0.00015690
     atom   99 type  3   force =     0.00034296    0.00024489   -0.00015666
     atom  100 type  3   force =    -0.00034299    0.00024495    0.00015690
     atom  101 type  3   force =    -0.00052780    0.00019198   -0.00042091
     atom  102 type  3   force =     0.00052773    0.00019189    0.00042134
     atom  103 type  3   force =     0.00052780   -0.00019198    0.00042091
     atom  104 type  3   force =    -0.00052773   -0.00019189   -0.00042134
     atom  105 type  3   force =     0.00006550    0.00079738   -0.00059689
     atom  106 type  3   force =    -0.00006567    0.00079761    0.00059685
     atom  107 type  3   force =    -0.00006550   -0.00079738    0.00059689
     atom  108 type  3   force =     0.00006567   -0.00079761   -0.00059685
     atom  109 type  3   force =     0.00003908   -0.00032069    0.00022079
     atom  110 type  3   force =    -0.00003904   -0.00032046   -0.00022098
     atom  111 type  3   force =    -0.00003908    0.00032069   -0.00022079
     atom  112 type  3   force =     0.00003904    0.00032046    0.00022098
     atom  113 type  3   force =    -0.00014492    0.00010976   -0.00071219
     atom  114 type  3   force =     0.00014498    0.00010971    0.00071216
     atom  115 type  3   force =     0.00014492   -0.00010976    0.00071219
     atom  116 type  3   force =    -0.00014498   -0.00010971   -0.00071216
     atom  117 type  3   force =    -0.00054986    0.00039195   -0.00024854
     atom  118 type  3   force =     0.00054991    0.00039220    0.00024860
     atom  119 type  3   force =     0.00054986   -0.00039195    0.00024854
     atom  120 type  3   force =    -0.00054991   -0.00039220   -0.00024860
     atom  121 type  3   force =     0.00144448    0.00014787   -0.00012523
     atom  122 type  3   force =    -0.00144404    0.00014796    0.00012520
     atom  123 type  3   force =    -0.00144448   -0.00014787    0.00012523
     atom  124 type  3   force =     0.00144404   -0.00014796   -0.00012520
     atom  125 type  3   force =     0.00147410    0.00015901   -0.00008985
     atom  126 type  3   force =    -0.00147422    0.00015939    0.00009016
     atom  127 type  3   force =    -0.00147410   -0.00015901    0.00008985
     atom  128 type  3   force =     0.00147422   -0.00015939   -0.00009016
     atom  129 type  3   force =    -0.00003950    0.00002867   -0.00031444
     atom  130 type  3   force =     0.00003934    0.00002934    0.00031405
     atom  131 type  3   force =     0.00003950   -0.00002867    0.00031444
     atom  132 type  3   force =    -0.00003934   -0.00002934   -0.00031405
     atom  133 type  3   force =    -0.00016394   -0.00014614   -0.00044481
     atom  134 type  3   force =     0.00016368   -0.00014577    0.00044450
     atom  135 type  3   force =     0.00016394    0.00014614    0.00044481
     atom  136 type  3   force =    -0.00016368    0.00014577   -0.00044450
     atom  137 type  3   force =     0.00011262    0.00042043   -0.00000419
     atom  138 type  3   force =    -0.00011270    0.00042140    0.00000496
     atom  139 type  3   force =    -0.00011262   -0.00042043    0.00000419
     atom  140 type  3   force =     0.00011270   -0.00042140   -0.00000496
     atom  141 type  3   force =     0.00002816    0.00013365    0.00017747
     atom  142 type  3   force =    -0.00002825    0.00013419   -0.00017708
     atom  143 type  3   force =    -0.00002816   -0.00013365   -0.00017747
     atom  144 type  3   force =     0.00002825   -0.00013419    0.00017708

     Total force =     0.018890     Total SCF correction =     0.000152


     Computing stress (Cartesian axis) and pressure

          total   stress  (Ry/bohr**3)                   (kbar)     P=   -4.78
  -0.00003145  -0.00000000   0.00000040         -4.63     -0.00      0.06
  -0.00000000  -0.00004006   0.00000000         -0.00     -5.89      0.00
   0.00000040   0.00000000  -0.00002606          0.06      0.00     -3.83


     Writing output data file scf.save
 
     init_run     :     72.81s CPU     74.88s WALL (       1 calls)
     electrons    :   2147.96s CPU   2210.39s WALL (       1 calls)
     forces       :     40.10s CPU     40.48s WALL (       1 calls)
     stress       :    177.47s CPU    177.92s WALL (       1 calls)

     Called by init_run:
     wfcinit      :     57.04s CPU     58.88s WALL (       1 calls)
     potinit      :      5.50s CPU      5.53s WALL (       1 calls)

     Called by electrons:
     c_bands      :   1940.25s CPU   1992.09s WALL (      14 calls)
     sum_band     :    188.17s CPU    196.67s WALL (      14 calls)
     v_of_rho     :      2.74s CPU      2.96s WALL (      15 calls)
     newd         :      7.85s CPU      9.74s WALL (      15 calls)
     PAW_pot      :      8.42s CPU      8.42s WALL (      15 calls)
     mix_rho      :      0.64s CPU      0.73s WALL (      14 calls)

     Called by c_bands:
     init_us_2    :      7.26s CPU      7.31s WALL (     124 calls)
     cegterg      :   1910.05s CPU   1961.80s WALL (      56 calls)

     Called by sum_band:
     sum_band:bec :      0.09s CPU      0.09s WALL (      56 calls)
     addusdens    :      7.68s CPU      9.46s WALL (      14 calls)

     Called by *egterg:
     h_psi        :    930.77s CPU    970.55s WALL (     350 calls)
     s_psi        :    256.62s CPU    256.73s WALL (     350 calls)
     g_psi        :      3.47s CPU      3.47s WALL (     290 calls)
     cdiaghg      :    155.13s CPU    155.18s WALL (     346 calls)

     Called by h_psi:
     h_psi:pot    :    925.36s CPU    964.97s WALL (     350 calls)
     h_psi:calbec :    248.96s CPU    249.31s WALL (     350 calls)
     vloc_psi     :    419.70s CPU    458.82s WALL (     350 calls)
     add_vuspsi   :    256.69s CPU    256.84s WALL (     350 calls)

     General routines
     calbec       :    368.99s CPU    369.54s WALL (     426 calls)
     fft          :      2.20s CPU      2.59s WALL (     219 calls)
     fftw         :    436.63s CPU    481.99s WALL (  107770 calls)
 
     Parallel routines
     fft_scatter  :     97.57s CPU    142.39s WALL (  107989 calls)
 
     PWSCF        : 40m51.07s CPU    42m30.24s WALL

 
   This run was terminated on:  21:44:18  22Dec2017            

=------------------------------------------------------------------------------=
   JOB DONE.
=------------------------------------------------------------------------------=
