
     Program PWSCF v.6.1 (svn rev. 13369) starts on 13Nov2017 at 12:24: 2 

     This program is part of the open-source Quantum ESPRESSO suite
     for quantum simulation of materials; please cite
         "P. Giannozzi et al., J. Phys.:Condens. Matter 21 395502 (2009);
          URL http://www.quantum-espresso.org", 
     in publications or presentations arising from this work. More details at
     http://www.quantum-espresso.org/quote

     Parallel version (MPI), running on     8 processors
     R & G space division:  proc/nbgrp/npool/nimage =       8
     Waiting for input...
     Reading input from standard input

     Current dimensions of program PWSCF are:
     Max number of different atomic species (ntypx) = 10
     Max number of k-points (npk) =  40000
     Max angular momentum in pseudopotentials (lmaxx) =  3
               file C.pbe-n-kjpaw_psl.0.1.UPF: wavefunction(s)  2P renormalized
               file N.pbe-n-kjpaw_psl.0.1.UPF: wavefunction(s)  2P renormalized
               file H.pbe-kjpaw_psl.0.1.UPF: wavefunction(s)  1S renormalized
               file O.pbe-n-kjpaw_psl.0.1.UPF: wavefunction(s)  2P renormalized

     -------------------------------------
     Parameters for Dispersion Correction:
     -------------------------------------
       atom      VdW radius       C_6     

        C          2.744         60.710
        N          2.640         42.670
        H          1.892          4.857
        O          2.536         24.284

     Subspace diagonalization in iterative solution of the eigenvalue problem:
     a serial algorithm will be used

 
     Parallelization info
     --------------------
     sticks:   dense  smooth     PW     G-vecs:    dense   smooth      PW
     Min        1513    1513    393                98723    98723   13155
     Max        1514    1514    394                98726    98726   13158
     Sum       12109   12109   3145               789793   789793  105255
 


     bravais-lattice index     =            0
     lattice parameter (alat)  =      20.9495  a.u.
     unit-cell volume          =    5844.4184 (a.u.)^3
     number of atoms/cell      =           90
     number of atomic types    =            4
     number of electrons       =       390.00
     number of Kohn-Sham states=          234
     kinetic-energy cutoff     =     100.0000  Ry
     charge density cutoff     =     400.0000  Ry
     convergence threshold     =      1.0E-08
     mixing beta               =       0.5000
     number of iterations used =            8  plain     mixing
     Exchange-correlation      =  SLA  PW   PBX  PBC ( 1  4  3  4 0 0)

     celldm(1)=  20.949504  celldm(2)=   0.000000  celldm(3)=   0.000000
     celldm(4)=   0.000000  celldm(5)=   0.000000  celldm(6)=   0.000000

     crystal axes: (cart. coord. in units of alat)
               a(1) = (   1.000000   0.000000   0.000000 )  
               a(2) = (  -0.500000   0.866025   0.000000 )  
               a(3) = (   0.000000   0.000000   0.733989 )  

     reciprocal axes: (cart. coord. in units 2 pi/alat)
               b(1) = (  1.000000  0.577350  0.000000 )  
               b(2) = (  0.000000  1.154701  0.000000 )  
               b(3) = (  0.000000  0.000000  1.362419 )  


     PseudoPot. # 1 for  C read from file:
     /scratch/ahofstet/pseudo/C.pbe-n-kjpaw_psl.0.1.UPF
     MD5 check sum: 430fe95172b1e11ef3f8ed03bac87931
     Pseudo is Projector augmented-wave + core cor, Zval =  4.0
     Generated using "atomic" code by A. Dal Corso  v.5.0.99 svn rev. 10869
     Shape of augmentation charge: BESSEL
     Using radial grid of 1073 points,  4 beta functions with: 
                l(1) =   0
                l(2) =   0
                l(3) =   1
                l(4) =   1
     Q(r) pseudized with 0 coefficients 


     PseudoPot. # 2 for  N read from file:
     /scratch/ahofstet/pseudo/N.pbe-n-kjpaw_psl.0.1.UPF
     MD5 check sum: f73187c8b701007e77325f868c9291d7
     Pseudo is Projector augmented-wave + core cor, Zval =  5.0
     Generated using "atomic" code by A. Dal Corso  v.5.0.99 svn rev. 10869
     Shape of augmentation charge: PSQ
     Using radial grid of 1085 points,  4 beta functions with: 
                l(1) =   0
                l(2) =   0
                l(3) =   1
                l(4) =   1
     Q(r) pseudized with 0 coefficients 


     PseudoPot. # 3 for  H read from file:
     /scratch/ahofstet/pseudo/H.pbe-kjpaw_psl.0.1.UPF
     MD5 check sum: 94e484f906d9e9773b2f6e52662335b2
     Pseudo is Projector augmented-wave, Zval =  1.0
     Generated using "atomic" code by A. Dal Corso  v.5.0.99 svn rev. 10869
     Shape of augmentation charge: PSQ
     Using radial grid of  929 points,  2 beta functions with: 
                l(1) =   0
                l(2) =   0
     Q(r) pseudized with 0 coefficients 


     PseudoPot. # 4 for  O read from file:
     /scratch/ahofstet/pseudo/O.pbe-n-kjpaw_psl.0.1.UPF
     MD5 check sum: 3f94a2996a3169367d6eb21d9b593f20
     Pseudo is Projector augmented-wave + core cor, Zval =  6.0
     Generated using "atomic" code by A. Dal Corso  v.5.0.99 svn rev. 10869
     Shape of augmentation charge: BESSEL
     Using radial grid of 1095 points,  4 beta functions with: 
                l(1) =   0
                l(2) =   0
                l(3) =   1
                l(4) =   1
     Q(r) pseudized with 0 coefficients 


     atomic species   valence    mass     pseudopotential
        C              4.00    12.01070      C( 1.00)
        N              5.00    14.00670      N( 1.00)
        H              1.00     1.00794      H( 1.00)
        O              6.00    15.99940      O( 1.00)

     No symmetry found
          (note:  2 additional sym.ops. were found but ignored
           their fractional translations are incommensurate with FFT grid)


   Cartesian axes

     site n.     atom                  positions (alat units)
         1           C   tau(   1) = (   0.2830887   0.4265163   0.1841246  )
         2           C   tau(   2) = (   0.4890817   0.0319038   0.4287875  )
         3           C   tau(   3) = (   0.7278296   0.4076053   0.6734504  )
         4           O   tau(   4) = (   0.2305054   0.4591230   0.0725116  )
         5           O   tau(   5) = (  -0.0128649   0.8360874   0.3171746  )
         6           O   tau(   6) = (  -0.2176405   0.4368404   0.5618375  )
         7           C   tau(   7) = (   0.2371395   0.5876934   0.0651082  )
         8           C   tau(   8) = (  -0.1275271   0.7775476   0.3097711  )
         9           C   tau(   9) = (  -0.1096124   0.3668099   0.5544340  )
        10           N   tau(  10) = (   0.3457785   0.6270165   0.0029125  )
        11           N   tau(  11) = (  -0.2159015   0.8519701   0.2475755  )
        12           N   tau(  12) = (  -0.1298770   0.2530641   0.4922384  )
        13           C   tau(  13) = (   0.4587719   0.5940312   0.0598482  )
        14           C   tau(  14) = (   0.2561679   0.1002925   0.3045111  )
        15           C   tau(  15) = (   0.7850602   0.1717016   0.5491741  )
        16           O   tau(  16) = (   0.4732230   0.4653802   0.0667405  )
        17           O   tau(  17) = (   0.3603574   0.1771330   0.3114034  )
        18           O   tau(  18) = (   0.6664196   0.2235121   0.5560663  )
        19           C   tau(  19) = (   0.4269804   0.4299827   0.1812976  )
        20           C   tau(  20) = (   0.4141339   0.1547845   0.4259605  )
        21           C   tau(  21) = (   0.6588857   0.2812582   0.6706234  )
        22           N   tau(  22) = (   0.4710255   0.5234643   0.2621516  )
        23           N   tau(  23) = (   0.3111539   0.1461879   0.5068146  )
        24           N   tau(  24) = (   0.7178206   0.1963732   0.0174887  )
        25           C   tau(  25) = (   0.4606628   0.6376060   0.1945417  )
        26           C   tau(  26) = (   0.2174856   0.0801427   0.4392046  )
        27           C   tau(  27) = (   0.8218516   0.1482767   0.6838676  )
        28           N   tau(  28) = (   0.3490487   0.6985724   0.2237752  )
        29           N   tau(  29) = (  -0.2795058   0.8190242   0.4684382  )
        30           N   tau(  30) = (  -0.0695429   0.2144542   0.7131011  )
        31           C   tau(  31) = (   0.2388709   0.6320565   0.2001623  )
        32           C   tau(  32) = (  -0.1668124   0.7568654   0.4448253  )
        33           C   tau(  33) = (  -0.0720585   0.3431289   0.6894882  )
        34           N   tau(  34) = (   0.2379143   0.5178641   0.2675969  )
        35           N   tau(  35) = (  -0.0674406   0.8131332   0.5122599  )
        36           N   tau(  36) = (  -0.1704737   0.4010535   0.0229340  )
        37           N   tau(  37) = (   0.3440173   0.6014873   0.6088964  )
        38           N   tau(  38) = (   0.3070881  -0.0028159   0.1195705  )
        39           N   tau(  39) = (   0.8488946   0.2673540   0.3642335  )
        40           O   tau(  40) = (   0.2457563   0.5813886   0.5639493  )
        41           O   tau(  41) = (  -0.1263755   0.7881623   0.0746234  )
        42           O   tau(  42) = (  -0.1193808   0.3624999   0.3192863  )
        43           O   tau(  43) = (   0.4413828   0.6059985   0.5566529  )
        44           O   tau(  44) = (   0.2544986   0.0792495   0.0673270  )
        45           O   tau(  45) = (   0.8041187   0.1807775   0.3119900  )
        46           N   tau(  46) = (   0.5801480   0.5001814   0.3254587  )
        47           N   tau(  47) = (   0.2767562   0.2523322   0.5701216  )
        48           N   tau(  48) = (   0.6430958   0.1135118   0.0807957  )
        49           O   tau(  49) = (   0.6384154   0.5883873   0.3568923  )
        50           O   tau(  50) = (   0.1712340   0.2586903   0.6015552  )
        51           O   tau(  51) = (   0.6903506   0.0189478   0.1122294  )
        52           O   tau(  52) = (   0.6011679   0.3939320   0.3485297  )
        53           O   tau(  53) = (   0.3582610   0.3236607   0.5931926  )
        54           O   tau(  54) = (   0.5405711   0.1484327   0.1038668  )
        55           N   tau(  55) = (   0.3511366   0.7708554   0.3294883  )
        56           N   tau(  56) = (  -0.3431487   0.7846909   0.5741513  )
        57           N   tau(  57) = (  -0.0079879   0.1765045   0.0848254  )
        58           O   tau(  58) = (   0.2540127   0.7865398   0.3802841  )
        59           O   tau(  59) = (  -0.3081698   0.6927369   0.6249471  )
        60           O   tau(  60) = (   0.0541571   0.2527741   0.1356212  )
        61           O   tau(  61) = (   0.4486707   0.8139088   0.3582836  )
        62           O   tau(  62) = (  -0.4292010   0.8476313   0.6029465  )
        63           O   tau(  63) = (  -0.0194697   0.0705108   0.1136206  )
        64           N   tau(  64) = (   0.1376366   0.4878939   0.3394835  )
        65           N   tau(  65) = (   0.0086532   0.7412753   0.5841465  )
        66           N   tau(  66) = (  -0.1462898   0.5028816   0.0948206  )
        67           O   tau(  67) = (   0.1342715   0.3828312   0.3754258  )
        68           O   tau(  68) = (   0.1013227   0.7908924   0.6200887  )
        69           O   tau(  69) = (  -0.2355942   0.5583272   0.1307628  )
        70           O   tau(  70) = (   0.0675046   0.5689335   0.3659818  )
        71           O   tau(  71) = (  -0.0264632   0.6400193   0.6106447  )
        72           O   tau(  72) = (  -0.0410414   0.5230980   0.1213188  )
        73           H   tau(  73) = (   0.2527116   0.3364580   0.2092888  )
        74           H   tau(  74) = (   0.5822630   0.0506257   0.4539518  )
        75           H   tau(  75) = (   0.6650254   0.4789417   0.6986147  )
        76           H   tau(  76) = (   0.1579672   0.6206765   0.0166416  )
        77           H   tau(  77) = (  -0.1165052   0.6924907   0.2613045  )
        78           H   tau(  78) = (  -0.0414620   0.4188836   0.5059674  )
        79           H   tau(  79) = (   0.5339559   0.6312303   0.0079822  )
        80           H   tau(  80) = (   0.1863605   0.1468042   0.2526451  )
        81           H   tau(  81) = (   0.7796835   0.0879909   0.4973081  )
        82           H   tau(  82) = (   0.4628547   0.3412097   0.2046662  )
        83           H   tau(  83) = (   0.4730764   0.2302390   0.4493291  )
        84           H   tau(  84) = (   0.5640690   0.2945766   0.6939921  )
        85           H   tau(  85) = (   0.5372481   0.6964334   0.2141315  )
        86           H   tau(  86) = (   0.1282470   0.1170538   0.4587944  )
        87           H   tau(  87) = (   0.8345049   0.0525382   0.7034573  )
        88           H   tau(  88) = (   0.1604877   0.6875227   0.2224152  )
        89           H   tau(  89) = (  -0.1756559   0.6612505   0.4670782  )
        90           H   tau(  90) = (   0.0151683   0.3832777   0.7117411  )

     number of k points=     8
                       cart. coord. in units 2pi/alat
        k(    1) = (   0.0000000   0.0000000   0.0000000), wk =   0.1666667
        k(    2) = (   0.0000000   0.0000000   0.4541395), wk =   0.3333333
        k(    3) = (   0.0000000  -0.5773503   0.0000000), wk =   0.1666667
        k(    4) = (   0.0000000  -0.5773503   0.4541395), wk =   0.3333333
        k(    5) = (   0.5000000   0.2886751   0.0000000), wk =   0.1666667
        k(    6) = (  -0.5000000   0.2886751   0.0000000), wk =   0.1666667
        k(    7) = (   0.5000000   0.2886751   0.4541395), wk =   0.3333333
        k(    8) = (  -0.5000000   0.2886751   0.4541395), wk =   0.3333333

     Dense  grid:   789793 G-vectors     FFT dimensions: ( 135, 135, 100)

     Estimated max dynamical RAM per process >     953.24MB

     Estimated total allocated dynamical RAM >    7625.92MB

     Check: negative/imaginary core charge=   -0.000003    0.000000

     Initial potential from superposition of free atoms

     starting charge  389.99886, renormalised to  390.00000
     Starting wfc are  306 randomized atomic wfcs
     Checking if some PAW data can be deallocated... 

     total cpu time spent up to now is       52.6 secs

     per-process dynamical memory:   641.7 Mb

     Self-consistent Calculation

     iteration #  1     ecut=   100.00 Ry     beta=0.50
     Davidson diagonalization with overlap
     ethr =  1.00E-02,  avg # of iterations =  3.0

     total cpu time spent up to now is      225.2 secs

     total energy              =   -2274.88141172 Ry
     Harris-Foulkes estimate   =   -2279.77675936 Ry
     estimated scf accuracy    <       8.88121276 Ry

     iteration #  2     ecut=   100.00 Ry     beta=0.50
     Davidson diagonalization with overlap
     ethr =  2.28E-03,  avg # of iterations =  3.0

     total cpu time spent up to now is      363.5 secs

     total energy              =   -2276.59186191 Ry
     Harris-Foulkes estimate   =   -2278.16175565 Ry
     estimated scf accuracy    <       3.55554503 Ry

     iteration #  3     ecut=   100.00 Ry     beta=0.50
     Davidson diagonalization with overlap
     ethr =  9.12E-04,  avg # of iterations =  3.0

     total cpu time spent up to now is      472.3 secs

     total energy              =   -2277.20422051 Ry
     Harris-Foulkes estimate   =   -2277.32379441 Ry
     estimated scf accuracy    <       0.30618610 Ry

     iteration #  4     ecut=   100.00 Ry     beta=0.50
     Davidson diagonalization with overlap
     ethr =  7.85E-05,  avg # of iterations =  7.2

     total cpu time spent up to now is      678.5 secs

     total energy              =   -2277.28394115 Ry
     Harris-Foulkes estimate   =   -2277.36459258 Ry
     estimated scf accuracy    <       0.22447413 Ry

     iteration #  5     ecut=   100.00 Ry     beta=0.50
     Davidson diagonalization with overlap
     ethr =  5.76E-05,  avg # of iterations =  2.0

     total cpu time spent up to now is      778.6 secs

     total energy              =   -2277.31137570 Ry
     Harris-Foulkes estimate   =   -2277.32115716 Ry
     estimated scf accuracy    <       0.02580712 Ry

     iteration #  6     ecut=   100.00 Ry     beta=0.50
     Davidson diagonalization with overlap
     ethr =  6.62E-06,  avg # of iterations =  8.8

     total cpu time spent up to now is      973.5 secs

     total energy              =   -2277.31855491 Ry
     Harris-Foulkes estimate   =   -2277.32145197 Ry
     estimated scf accuracy    <       0.00861155 Ry

     iteration #  7     ecut=   100.00 Ry     beta=0.50
     Davidson diagonalization with overlap
     ethr =  2.21E-06,  avg # of iterations =  2.0

     total cpu time spent up to now is     1077.7 secs

     total energy              =   -2277.31985717 Ry
     Harris-Foulkes estimate   =   -2277.32024047 Ry
     estimated scf accuracy    <       0.00108332 Ry

     iteration #  8     ecut=   100.00 Ry     beta=0.50
     Davidson diagonalization with overlap
     ethr =  2.78E-07,  avg # of iterations =  3.0

     total cpu time spent up to now is     1210.6 secs

     total energy              =   -2277.32006921 Ry
     Harris-Foulkes estimate   =   -2277.32018903 Ry
     estimated scf accuracy    <       0.00033327 Ry

     iteration #  9     ecut=   100.00 Ry     beta=0.50
     Davidson diagonalization with overlap
     ethr =  8.55E-08,  avg # of iterations =  2.0

     total cpu time spent up to now is     1314.1 secs

     total energy              =   -2277.32011234 Ry
     Harris-Foulkes estimate   =   -2277.32013188 Ry
     estimated scf accuracy    <       0.00005117 Ry

     iteration # 10     ecut=   100.00 Ry     beta=0.50
     Davidson diagonalization with overlap
     ethr =  1.31E-08,  avg # of iterations =  3.0

     total cpu time spent up to now is     1467.4 secs

     total energy              =   -2277.32012939 Ry
     Harris-Foulkes estimate   =   -2277.32013417 Ry
     estimated scf accuracy    <       0.00001359 Ry

     iteration # 11     ecut=   100.00 Ry     beta=0.50
     Davidson diagonalization with overlap
     ethr =  3.48E-09,  avg # of iterations =  2.0

     total cpu time spent up to now is     1565.3 secs

     total energy              =   -2277.32013043 Ry
     Harris-Foulkes estimate   =   -2277.32013117 Ry
     estimated scf accuracy    <       0.00000203 Ry

     iteration # 12     ecut=   100.00 Ry     beta=0.50
     Davidson diagonalization with overlap
     ethr =  5.21E-10,  avg # of iterations =  4.0

     total cpu time spent up to now is     1759.5 secs

     total energy              =   -2277.32013173 Ry
     Harris-Foulkes estimate   =   -2277.32013221 Ry
     estimated scf accuracy    <       0.00000175 Ry

     iteration # 13     ecut=   100.00 Ry     beta=0.50
     Davidson diagonalization with overlap
     ethr =  4.48E-10,  avg # of iterations =  1.4

     total cpu time spent up to now is     1854.9 secs

     total energy              =   -2277.32013165 Ry
     Harris-Foulkes estimate   =   -2277.32013186 Ry
     estimated scf accuracy    <       0.00000059 Ry

     iteration # 14     ecut=   100.00 Ry     beta=0.50
     Davidson diagonalization with overlap
     ethr =  1.51E-10,  avg # of iterations =  3.1

     total cpu time spent up to now is     1991.5 secs

     total energy              =   -2277.32013181 Ry
     Harris-Foulkes estimate   =   -2277.32013184 Ry
     estimated scf accuracy    <       0.00000009 Ry

     iteration # 15     ecut=   100.00 Ry     beta=0.50
     Davidson diagonalization with overlap
     ethr =  2.18E-11,  avg # of iterations =  2.0

     total cpu time spent up to now is     2098.8 secs

     total energy              =   -2277.32013182 Ry
     Harris-Foulkes estimate   =   -2277.32013182 Ry
     estimated scf accuracy    <       0.00000001 Ry

     iteration # 16     ecut=   100.00 Ry     beta=0.50
     Davidson diagonalization with overlap
     ethr =  3.24E-12,  avg # of iterations =  3.0

     total cpu time spent up to now is     2256.2 secs

     End of self-consistent calculation

          k = 0.0000 0.0000 0.0000 ( 98845 PWs)   bands (ev):

   -23.3929 -23.3611 -23.3611 -23.2876 -23.2852 -23.2852 -23.2601 -23.2601
   -23.2518 -23.2353 -23.2217 -23.2217 -19.9226 -19.9187 -19.9187 -19.0138
   -19.0138 -19.0125 -18.7670 -18.7527 -18.7527 -18.7188 -18.7061 -18.7061
   -18.6889 -18.6889 -18.6836 -18.6330 -18.5950 -18.5950 -17.2600 -17.2600
   -17.2572 -16.4748 -16.4699 -16.4699 -15.8818 -15.8818 -15.8798 -15.3841
   -15.3763 -15.3763 -11.8702 -11.8459 -11.8459 -11.7947 -11.7901 -11.7901
   -11.3264 -11.3264 -11.2458 -10.0497 -10.0497 -10.0225  -9.4372  -9.4371
    -9.3988  -8.7318  -8.7179  -8.7179  -8.4827  -8.4223  -8.4223  -7.2166
    -7.1650  -7.1650  -6.9866  -6.9835  -6.9835  -6.6210  -6.6018  -6.6018
    -6.5653  -6.4270  -6.4270  -6.1430  -6.1130  -6.1130  -5.9699  -5.9699
    -5.9143  -5.8699  -5.8617  -5.8617  -5.7664  -5.7664  -5.7584  -5.5780
    -5.5673  -5.5673  -5.4605  -5.4605  -5.4207  -5.3798  -5.3798  -5.3356
    -5.1423  -5.0959  -5.0959  -5.0250  -4.9634  -4.9634  -4.7295  -4.7190
    -4.7190  -4.5377  -4.5360  -4.5359  -4.2909  -4.2909  -4.2512  -4.1656
    -4.1070  -4.0993  -4.0993  -4.0103  -4.0103  -3.9057  -3.8734  -3.8734
    -3.5733  -3.5733  -3.5684  -3.1463  -3.1463  -3.0971  -2.8713  -2.8625
    -2.8625  -1.9465  -1.9441  -1.9441  -1.8022  -1.7895  -1.7895  -1.3534
    -1.2846  -1.2846  -0.9769  -0.9769  -0.8344  -0.5002  -0.3955  -0.3955
    -0.2565  -0.2565  -0.1359   0.0014   0.0014   0.1369   0.1370   0.1370
     0.1797   0.2455   0.2455   0.2940   0.2940   0.2962   0.3563   0.3831
     0.3831   0.3925   0.4618   0.4618   0.5292   0.5572   0.5572   0.6350
     0.6350   0.6563   0.7066   0.7066   0.7196   0.7702   1.0078   1.0078
     1.0270   1.1290   1.1290   1.2374   1.2478   1.2478   1.2657   1.2731
     1.2732   1.3227   1.3389   1.3389   1.4613   1.6768   1.6790   1.6790
     1.7356   1.7357   1.7725   5.2964   5.2964   5.4223   5.4247   5.4247
     5.4947   5.5233   5.5233   5.5624   5.6860   5.7238   5.7238   7.3772
     8.2904   8.2904   8.5946   8.5946   8.6558   8.9578   8.9790   8.9790
     9.0275   9.0877   9.0877   9.3369   9.4565   9.4566   9.5969   9.6235
     9.6235   9.8691   9.8691   9.9278  10.2810  10.2810  10.3591  10.5989
    10.6428  10.6428

          k = 0.0000 0.0000 0.4541 ( 98707 PWs)   bands (ev):

   -23.3826 -23.3679 -23.3514 -23.2890 -23.2881 -23.2864 -23.2611 -23.2593
   -23.2552 -23.2358 -23.2304 -23.2181 -19.9236 -19.9234 -19.9110 -19.0142
   -19.0140 -19.0133 -18.7720 -18.7661 -18.7513 -18.7070 -18.7037 -18.7028
   -18.6888 -18.6869 -18.6840 -18.6265 -18.6107 -18.5871 -17.2660 -17.2561
   -17.2557 -16.4696 -16.4677 -16.4640 -15.8831 -15.8813 -15.8785 -15.3909
   -15.3853 -15.3790 -11.8644 -11.8588 -11.8403 -11.8044 -11.7823 -11.7744
   -11.3189 -11.3111 -11.2689 -10.0709 -10.0476 -10.0171  -9.4494  -9.4453
    -9.4257  -8.7392  -8.7313  -8.6741  -8.4639  -8.4296  -8.4281  -7.1996
    -7.1716  -7.0950  -6.9941  -6.9883  -6.9673  -6.6115  -6.6025  -6.5890
    -6.4693  -6.3679  -6.3537  -6.1537  -6.1498  -6.1396  -6.0655  -6.0410
    -5.9646  -5.8786  -5.8759  -5.8755  -5.8129  -5.7759  -5.7602  -5.6625
    -5.6320  -5.5969  -5.5494  -5.4717  -5.4257  -5.3733  -5.2901  -5.2653
    -5.0998  -5.0662  -5.0557  -4.9824  -4.8803  -4.8722  -4.7238  -4.7233
    -4.6687  -4.6061  -4.4994  -4.4865  -4.3689  -4.2893  -4.2646  -4.1900
    -4.1864  -4.1160  -4.1035  -4.0657  -3.9900  -3.9063  -3.8944  -3.8557
    -3.6166  -3.5529  -3.5405  -3.1594  -3.0994  -3.0841  -2.8826  -2.8470
    -2.8328  -1.9507  -1.9478  -1.9369  -1.8153  -1.7902  -1.7716  -1.3782
    -1.3429  -1.3051  -0.9637  -0.9108  -0.8866  -0.4625  -0.4299  -0.4174
    -0.2701  -0.1956  -0.1547  -0.0059   0.0492   0.0999   0.1304   0.1517
     0.1771   0.2342   0.2533   0.2614   0.3235   0.3238   0.3367   0.3846
     0.3947   0.4105   0.4734   0.4743   0.5168   0.5188   0.5197   0.6033
     0.6170   0.6365   0.6748   0.6810   0.7255   0.7400   1.0512   1.0617
     1.0826   1.1773   1.1810   1.2035   1.2269   1.2567   1.2831   1.2967
     1.3154   1.3173   1.3205   1.4126   1.4508   1.5938   1.6522   1.6773
     1.6940   1.7620   1.7810   5.2074   5.2729   5.3167   5.3599   5.4314
     5.4523   5.6019   5.6274   5.6430   5.7000   5.7205   5.7326   7.6168
     8.0585   8.3077   8.5916   8.6100   8.6553   8.8400   8.8643   9.0009
     9.0736   9.1150   9.1921   9.4138   9.4417   9.4742   9.5445   9.5563
     9.6563   9.8929   9.9457   9.9602  10.3386  10.3597  10.3921  10.5308
    10.5881  10.6753

          k = 0.0000-0.5774 0.0000 ( 98680 PWs)   bands (ev):

   -23.3854 -23.3668 -23.3618 -23.2953 -23.2896 -23.2827 -23.2570 -23.2555
   -23.2534 -23.2330 -23.2220 -23.2215 -19.9265 -19.9179 -19.9159 -19.0143
   -19.0136 -19.0110 -18.7718 -18.7551 -18.7468 -18.7125 -18.7100 -18.7079
   -18.6931 -18.6873 -18.6806 -18.6302 -18.5982 -18.5951 -17.2645 -17.2612
   -17.2516 -16.4737 -16.4710 -16.4701 -15.8846 -15.8824 -15.8762 -15.3834
   -15.3791 -15.3745 -11.8631 -11.8589 -11.8488 -11.7907 -11.7859 -11.7852
   -11.3230 -11.3131 -11.2664 -10.0720 -10.0459 -10.0053  -9.4342  -9.4236
    -9.4155  -8.7592  -8.7027  -8.6878  -8.4710  -8.4486  -8.4292  -7.1635
    -7.1391  -7.1352  -7.0220  -6.9926  -6.9531  -6.6562  -6.6232  -6.5805
    -6.5712  -6.5427  -6.4739  -6.1872  -6.1008  -6.0486  -6.0272  -5.9840
    -5.9489  -5.8758  -5.8631  -5.8213  -5.7939  -5.7472  -5.7081  -5.5615
    -5.5271  -5.4822  -5.4790  -5.4474  -5.4271  -5.3836  -5.3429  -5.2854
    -5.1426  -5.1170  -5.0830  -5.0611  -5.0037  -4.9631  -4.7361  -4.7051
    -4.6887  -4.5842  -4.5318  -4.4682  -4.3108  -4.2957  -4.2679  -4.1806
    -4.1196  -4.1133  -4.0778  -4.0228  -4.0066  -3.9068  -3.8910  -3.8553
    -3.6308  -3.5896  -3.5072  -3.1517  -3.1351  -3.0899  -2.8989  -2.8506
    -2.8385  -1.9801  -1.9300  -1.8927  -1.8218  -1.8123  -1.7715  -1.3630
    -1.3247  -1.2936  -0.9611  -0.9407  -0.8752  -0.4435  -0.4056  -0.3707
    -0.3030  -0.2449  -0.1787  -0.0026   0.0292   0.1007   0.1193   0.1552
     0.2201   0.2358   0.2638   0.2952   0.3044   0.3227   0.3375   0.3748
     0.4121   0.4247   0.4380   0.4731   0.4954   0.5266   0.5639   0.5699
     0.6231   0.7011   0.7055   0.7212   0.7311   0.7594   0.9822   1.0075
     1.0281   1.1210   1.1404   1.1986   1.2202   1.2482   1.2625   1.2695
     1.3017   1.3230   1.3555   1.3909   1.4212   1.6798   1.6967   1.7089
     1.7196   1.7460   1.7692   5.3132   5.3367   5.3595   5.4082   5.4200
     5.4823   5.5043   5.5668   5.6038   5.6804   5.6923   5.7213   7.7731
     7.9022   8.2299   8.5654   8.5797   8.6586   8.8697   8.9513   9.0299
     9.1015   9.1137   9.2392   9.3076   9.3651   9.4512   9.5768   9.6165
     9.7430   9.7787   9.8349   9.9283  10.2076  10.3571  10.4446  10.4965
    10.6086  10.7107

          k = 0.0000-0.5774 0.4541 ( 98718 PWs)   bands (ev):

   -23.3771 -23.3674 -23.3546 -23.2964 -23.2920 -23.2858 -23.2605 -23.2566
   -23.2538 -23.2341 -23.2303 -23.2167 -19.9258 -19.9231 -19.9094 -19.0181
   -19.0123 -19.0097 -18.7741 -18.7644 -18.7521 -18.7085 -18.7037 -18.7017
   -18.6925 -18.6852 -18.6804 -18.6249 -18.6105 -18.5898 -17.2654 -17.2591
   -17.2533 -16.4703 -16.4675 -16.4640 -15.8844 -15.8803 -15.8780 -15.3925
   -15.3843 -15.3784 -11.8681 -11.8504 -11.8432 -11.7994 -11.7840 -11.7788
   -11.3234 -11.2995 -11.2754 -10.0687 -10.0387 -10.0268  -9.4550  -9.4362
    -9.4299  -8.7401  -8.7041  -8.6992  -8.4657  -8.4487  -8.4202  -7.1535
    -7.1244  -7.0993  -7.0084  -6.9916  -6.9629  -6.6262  -6.6057  -6.5868
    -6.4860  -6.4552  -6.4048  -6.1883  -6.1366  -6.0939  -6.0729  -6.0583
    -6.0122  -5.9135  -5.8766  -5.8491  -5.8392  -5.7932  -5.7306  -5.6397
    -5.5759  -5.5192  -5.5103  -5.4535  -5.4165  -5.3345  -5.2831  -5.2614
    -5.1280  -5.1036  -5.0604  -4.9390  -4.9048  -4.8863  -4.7509  -4.6997
    -4.6291  -4.5830  -4.5335  -4.4886  -4.3459  -4.3077  -4.2869  -4.1906
    -4.1590  -4.1472  -4.0918  -4.0649  -3.9981  -3.9276  -3.8953  -3.8370
    -3.6030  -3.5872  -3.5360  -3.1934  -3.1014  -3.0687  -2.9143  -2.8505
    -2.8159  -2.0022  -1.9140  -1.8664  -1.8418  -1.8028  -1.7714  -1.3715
    -1.3519  -1.2858  -0.9670  -0.9327  -0.8839  -0.4337  -0.4032  -0.3515
    -0.2983  -0.2486  -0.1923  -0.0333   0.0496   0.0983   0.1149   0.1689
     0.2040   0.2268   0.2512   0.2678   0.3237   0.3360   0.3781   0.3849
     0.4094   0.4268   0.4375   0.4780   0.5044   0.5332   0.5433   0.5807
     0.6215   0.6382   0.6608   0.6808   0.7206   0.7293   1.0147   1.0580
     1.0980   1.1387   1.1687   1.2192   1.2368   1.2437   1.2667   1.2810
     1.2947   1.3033   1.3882   1.4151   1.4466   1.6324   1.6475   1.6699
     1.7062   1.7525   1.7901   5.2279   5.2612   5.2917   5.3733   5.4280
     5.4550   5.6237   5.6362   5.6645   5.6866   5.6905   5.7222   7.9236
     8.0007   8.1812   8.5554   8.5862   8.6515   8.7831   8.8763   8.9475
     9.0962   9.1876   9.2451   9.2802   9.3863   9.4460   9.5485   9.6305
     9.6777   9.8021   9.8469   9.9006  10.3527  10.4228  10.4786  10.5168
    10.5860  10.6877

          k = 0.5000 0.2887 0.0000 ( 98680 PWs)   bands (ev):

   -23.3854 -23.3668 -23.3618 -23.2953 -23.2896 -23.2827 -23.2570 -23.2555
   -23.2534 -23.2330 -23.2220 -23.2215 -19.9265 -19.9179 -19.9159 -19.0143
   -19.0136 -19.0110 -18.7718 -18.7551 -18.7468 -18.7125 -18.7100 -18.7079
   -18.6931 -18.6873 -18.6806 -18.6302 -18.5982 -18.5951 -17.2645 -17.2612
   -17.2516 -16.4737 -16.4710 -16.4701 -15.8846 -15.8824 -15.8762 -15.3834
   -15.3790 -15.3745 -11.8631 -11.8589 -11.8488 -11.7907 -11.7859 -11.7852
   -11.3230 -11.3131 -11.2664 -10.0720 -10.0459 -10.0053  -9.4342  -9.4236
    -9.4155  -8.7592  -8.7027  -8.6878  -8.4710  -8.4486  -8.4292  -7.1635
    -7.1391  -7.1353  -7.0220  -6.9926  -6.9531  -6.6562  -6.6233  -6.5805
    -6.5712  -6.5427  -6.4739  -6.1872  -6.1008  -6.0486  -6.0272  -5.9840
    -5.9489  -5.8758  -5.8632  -5.8213  -5.7939  -5.7472  -5.7081  -5.5615
    -5.5271  -5.4822  -5.4790  -5.4474  -5.4271  -5.3836  -5.3429  -5.2854
    -5.1426  -5.1170  -5.0830  -5.0611  -5.0037  -4.9631  -4.7361  -4.7051
    -4.6887  -4.5842  -4.5318  -4.4682  -4.3108  -4.2957  -4.2679  -4.1806
    -4.1196  -4.1133  -4.0778  -4.0228  -4.0066  -3.9068  -3.8910  -3.8553
    -3.6308  -3.5896  -3.5072  -3.1517  -3.1351  -3.0899  -2.8989  -2.8506
    -2.8385  -1.9801  -1.9300  -1.8927  -1.8218  -1.8123  -1.7715  -1.3630
    -1.3247  -1.2936  -0.9611  -0.9407  -0.8752  -0.4435  -0.4056  -0.3707
    -0.3030  -0.2449  -0.1787  -0.0026   0.0292   0.1007   0.1193   0.1551
     0.2201   0.2358   0.2638   0.2952   0.3044   0.3227   0.3375   0.3748
     0.4121   0.4247   0.4380   0.4731   0.4954   0.5266   0.5639   0.5699
     0.6231   0.7011   0.7055   0.7212   0.7311   0.7594   0.9822   1.0075
     1.0281   1.1210   1.1404   1.1986   1.2202   1.2482   1.2625   1.2695
     1.3017   1.3230   1.3555   1.3909   1.4212   1.6798   1.6967   1.7089
     1.7196   1.7460   1.7692   5.3132   5.3367   5.3595   5.4082   5.4200
     5.4823   5.5043   5.5668   5.6038   5.6804   5.6923   5.7213   7.7731
     7.9022   8.2299   8.5654   8.5797   8.6586   8.8697   8.9513   9.0299
     9.1015   9.1137   9.2392   9.3076   9.3651   9.4512   9.5768   9.6165
     9.7430   9.7787   9.8349   9.9283  10.2076  10.3571  10.4446  10.4965
    10.6086  10.7107

          k =-0.5000 0.2887 0.0000 ( 98680 PWs)   bands (ev):

   -23.3854 -23.3668 -23.3618 -23.2953 -23.2896 -23.2827 -23.2570 -23.2555
   -23.2534 -23.2330 -23.2220 -23.2215 -19.9265 -19.9179 -19.9159 -19.0143
   -19.0136 -19.0110 -18.7718 -18.7551 -18.7468 -18.7125 -18.7100 -18.7079
   -18.6931 -18.6873 -18.6806 -18.6302 -18.5982 -18.5951 -17.2645 -17.2612
   -17.2516 -16.4737 -16.4709 -16.4701 -15.8846 -15.8824 -15.8762 -15.3834
   -15.3791 -15.3745 -11.8631 -11.8589 -11.8488 -11.7907 -11.7859 -11.7852
   -11.3230 -11.3131 -11.2664 -10.0720 -10.0459 -10.0053  -9.4342  -9.4236
    -9.4155  -8.7592  -8.7027  -8.6878  -8.4710  -8.4486  -8.4292  -7.1635
    -7.1391  -7.1352  -7.0220  -6.9926  -6.9531  -6.6562  -6.6232  -6.5805
    -6.5712  -6.5427  -6.4739  -6.1872  -6.1008  -6.0486  -6.0272  -5.9840
    -5.9489  -5.8758  -5.8632  -5.8213  -5.7939  -5.7472  -5.7081  -5.5615
    -5.5271  -5.4822  -5.4790  -5.4474  -5.4271  -5.3836  -5.3429  -5.2854
    -5.1426  -5.1170  -5.0830  -5.0611  -5.0037  -4.9631  -4.7361  -4.7051
    -4.6887  -4.5842  -4.5318  -4.4682  -4.3108  -4.2957  -4.2679  -4.1806
    -4.1196  -4.1133  -4.0778  -4.0228  -4.0066  -3.9068  -3.8910  -3.8554
    -3.6308  -3.5896  -3.5072  -3.1517  -3.1351  -3.0899  -2.8989  -2.8506
    -2.8385  -1.9801  -1.9300  -1.8927  -1.8218  -1.8123  -1.7715  -1.3630
    -1.3247  -1.2936  -0.9611  -0.9407  -0.8752  -0.4435  -0.4056  -0.3707
    -0.3030  -0.2449  -0.1787  -0.0026   0.0292   0.1007   0.1193   0.1552
     0.2201   0.2358   0.2638   0.2952   0.3044   0.3227   0.3375   0.3748
     0.4121   0.4247   0.4380   0.4731   0.4954   0.5266   0.5639   0.5699
     0.6231   0.7011   0.7055   0.7212   0.7311   0.7594   0.9822   1.0075
     1.0281   1.1210   1.1404   1.1986   1.2202   1.2482   1.2625   1.2695
     1.3017   1.3230   1.3555   1.3910   1.4212   1.6798   1.6967   1.7089
     1.7196   1.7460   1.7692   5.3132   5.3367   5.3595   5.4082   5.4200
     5.4823   5.5043   5.5668   5.6038   5.6804   5.6923   5.7213   7.7731
     7.9022   8.2299   8.5654   8.5797   8.6586   8.8697   8.9513   9.0299
     9.1015   9.1137   9.2392   9.3076   9.3651   9.4512   9.5768   9.6165
     9.7430   9.7787   9.8349   9.9283  10.2076  10.3571  10.4446  10.4965
    10.6086  10.7107

          k = 0.5000 0.2887 0.4541 ( 98718 PWs)   bands (ev):

   -23.3771 -23.3674 -23.3546 -23.2964 -23.2920 -23.2858 -23.2605 -23.2566
   -23.2538 -23.2341 -23.2303 -23.2167 -19.9258 -19.9231 -19.9094 -19.0181
   -19.0123 -19.0097 -18.7741 -18.7644 -18.7521 -18.7085 -18.7037 -18.7017
   -18.6926 -18.6852 -18.6804 -18.6249 -18.6105 -18.5898 -17.2654 -17.2591
   -17.2533 -16.4703 -16.4675 -16.4640 -15.8844 -15.8803 -15.8780 -15.3925
   -15.3843 -15.3784 -11.8681 -11.8504 -11.8431 -11.7994 -11.7840 -11.7788
   -11.3234 -11.2995 -11.2754 -10.0687 -10.0387 -10.0268  -9.4550  -9.4362
    -9.4299  -8.7401  -8.7041  -8.6991  -8.4657  -8.4487  -8.4202  -7.1535
    -7.1244  -7.0993  -7.0084  -6.9916  -6.9629  -6.6262  -6.6057  -6.5868
    -6.4860  -6.4552  -6.4048  -6.1883  -6.1366  -6.0939  -6.0729  -6.0583
    -6.0122  -5.9135  -5.8766  -5.8491  -5.8392  -5.7932  -5.7306  -5.6397
    -5.5759  -5.5192  -5.5103  -5.4535  -5.4165  -5.3345  -5.2831  -5.2614
    -5.1280  -5.1036  -5.0604  -4.9390  -4.9048  -4.8863  -4.7509  -4.6997
    -4.6291  -4.5830  -4.5335  -4.4886  -4.3459  -4.3077  -4.2869  -4.1906
    -4.1590  -4.1472  -4.0918  -4.0649  -3.9981  -3.9276  -3.8953  -3.8370
    -3.6030  -3.5872  -3.5360  -3.1934  -3.1014  -3.0687  -2.9143  -2.8505
    -2.8159  -2.0022  -1.9140  -1.8664  -1.8418  -1.8028  -1.7714  -1.3715
    -1.3519  -1.2858  -0.9670  -0.9327  -0.8839  -0.4337  -0.4032  -0.3515
    -0.2983  -0.2486  -0.1923  -0.0333   0.0496   0.0983   0.1149   0.1689
     0.2040   0.2268   0.2512   0.2679   0.3237   0.3360   0.3781   0.3849
     0.4094   0.4268   0.4375   0.4780   0.5044   0.5332   0.5433   0.5807
     0.6215   0.6382   0.6608   0.6808   0.7206   0.7293   1.0147   1.0580
     1.0980   1.1387   1.1687   1.2192   1.2368   1.2437   1.2667   1.2810
     1.2947   1.3033   1.3882   1.4151   1.4466   1.6324   1.6475   1.6699
     1.7062   1.7525   1.7901   5.2279   5.2612   5.2917   5.3733   5.4280
     5.4550   5.6237   5.6362   5.6645   5.6866   5.6905   5.7222   7.9236
     8.0007   8.1812   8.5554   8.5862   8.6515   8.7831   8.8763   8.9475
     9.0962   9.1876   9.2451   9.2802   9.3863   9.4460   9.5485   9.6305
     9.6777   9.8021   9.8469   9.9006  10.3527  10.4228  10.4786  10.5168
    10.5860  10.6877

          k =-0.5000 0.2887 0.4541 ( 98718 PWs)   bands (ev):

   -23.3771 -23.3674 -23.3546 -23.2964 -23.2920 -23.2858 -23.2605 -23.2566
   -23.2538 -23.2341 -23.2303 -23.2167 -19.9258 -19.9231 -19.9094 -19.0181
   -19.0123 -19.0097 -18.7741 -18.7644 -18.7521 -18.7085 -18.7037 -18.7017
   -18.6926 -18.6852 -18.6804 -18.6249 -18.6105 -18.5898 -17.2654 -17.2591
   -17.2533 -16.4703 -16.4675 -16.4640 -15.8844 -15.8803 -15.8780 -15.3925
   -15.3843 -15.3784 -11.8681 -11.8504 -11.8432 -11.7994 -11.7840 -11.7788
   -11.3234 -11.2995 -11.2754 -10.0687 -10.0387 -10.0268  -9.4550  -9.4362
    -9.4299  -8.7401  -8.7041  -8.6991  -8.4657  -8.4487  -8.4202  -7.1535
    -7.1244  -7.0993  -7.0084  -6.9916  -6.9629  -6.6262  -6.6057  -6.5868
    -6.4860  -6.4552  -6.4048  -6.1883  -6.1366  -6.0939  -6.0729  -6.0583
    -6.0122  -5.9135  -5.8766  -5.8491  -5.8392  -5.7932  -5.7306  -5.6397
    -5.5759  -5.5192  -5.5103  -5.4535  -5.4165  -5.3345  -5.2831  -5.2614
    -5.1280  -5.1036  -5.0604  -4.9390  -4.9048  -4.8863  -4.7509  -4.6997
    -4.6291  -4.5830  -4.5335  -4.4886  -4.3459  -4.3077  -4.2869  -4.1906
    -4.1590  -4.1472  -4.0918  -4.0649  -3.9981  -3.9276  -3.8953  -3.8370
    -3.6030  -3.5872  -3.5360  -3.1934  -3.1014  -3.0687  -2.9143  -2.8505
    -2.8159  -2.0022  -1.9140  -1.8664  -1.8418  -1.8028  -1.7714  -1.3715
    -1.3519  -1.2858  -0.9670  -0.9327  -0.8839  -0.4337  -0.4032  -0.3515
    -0.2983  -0.2486  -0.1923  -0.0333   0.0496   0.0983   0.1149   0.1689
     0.2040   0.2268   0.2512   0.2678   0.3237   0.3360   0.3781   0.3849
     0.4094   0.4268   0.4375   0.4780   0.5044   0.5332   0.5433   0.5807
     0.6215   0.6382   0.6608   0.6808   0.7206   0.7293   1.0147   1.0580
     1.0980   1.1387   1.1687   1.2192   1.2368   1.2437   1.2667   1.2810
     1.2947   1.3033   1.3882   1.4151   1.4466   1.6324   1.6475   1.6699
     1.7062   1.7525   1.7901   5.2279   5.2612   5.2917   5.3733   5.4280
     5.4550   5.6237   5.6362   5.6645   5.6866   5.6905   5.7222   7.9236
     8.0007   8.1812   8.5554   8.5862   8.6515   8.7831   8.8763   8.9475
     9.0962   9.1876   9.2451   9.2802   9.3863   9.4460   9.5485   9.6305
     9.6777   9.8021   9.8469   9.9006  10.3527  10.4228  10.4786  10.5168
    10.5860  10.6878

     highest occupied, lowest unoccupied level (ev):     1.7901    5.2074

!    total energy              =   -2277.32013182 Ry
     Harris-Foulkes estimate   =   -2277.32013183 Ry
     estimated scf accuracy    <          2.7E-09 Ry

     total all-electron energy =     -8533.651878 Ry

     The total energy is the sum of the following terms:

     one-electron contribution =   -1141.62791018 Ry
     hartree contribution      =     746.03035845 Ry
     xc contribution           =    -438.81510563 Ry
     ewald contribution        =    -838.43111108 Ry
     Dispersion Correction     =      -0.47315633 Ry
     one-center paw contrib.   =    -604.00320705 Ry

     convergence has been achieved in  16 iterations

     Forces acting on atoms (cartesian axes, Ry/au):

     atom    1 type  1   force =     0.00086849    0.00029153   -0.00015090
     atom    2 type  1   force =    -0.00068672    0.00060482   -0.00014850
     atom    3 type  1   force =    -0.00018114   -0.00089759   -0.00016082
     atom    4 type  4   force =    -0.00002845    0.00019627    0.00017263
     atom    5 type  4   force =    -0.00015670   -0.00012203    0.00017516
     atom    6 type  4   force =     0.00018487   -0.00007442    0.00017478
     atom    7 type  1   force =    -0.00043973   -0.00005592   -0.00018890
     atom    8 type  1   force =     0.00026907   -0.00035287   -0.00017395
     atom    9 type  1   force =     0.00017111    0.00040976   -0.00018049
     atom   10 type  2   force =    -0.00000214   -0.00050176   -0.00114081
     atom   11 type  2   force =     0.00043616    0.00024990   -0.00114167
     atom   12 type  2   force =    -0.00043331    0.00025230   -0.00114105
     atom   13 type  1   force =    -0.00014957    0.00012709    0.00001144
     atom   14 type  1   force =    -0.00003521   -0.00019330    0.00000988
     atom   15 type  1   force =     0.00018526    0.00006616   -0.00000209
     atom   16 type  4   force =    -0.00020576    0.00018574   -0.00026112
     atom   17 type  4   force =    -0.00005815   -0.00027150   -0.00026041
     atom   18 type  4   force =     0.00026377    0.00008626   -0.00026037
     atom   19 type  1   force =     0.00031419   -0.00029943   -0.00038271
     atom   20 type  1   force =     0.00010354    0.00042116   -0.00037857
     atom   21 type  1   force =    -0.00041614   -0.00012270   -0.00036920
     atom   22 type  2   force =     0.00010734   -0.00041904   -0.00003715
     atom   23 type  2   force =     0.00030904    0.00030300   -0.00003680
     atom   24 type  2   force =    -0.00041645    0.00011641   -0.00003698
     atom   25 type  1   force =    -0.00032295   -0.00000213    0.00040970
     atom   26 type  1   force =     0.00016300   -0.00027878    0.00040893
     atom   27 type  1   force =     0.00015978    0.00028073    0.00042164
     atom   28 type  2   force =     0.00043060    0.00030476   -0.00061533
     atom   29 type  2   force =    -0.00047934    0.00022070   -0.00061398
     atom   30 type  2   force =     0.00004911   -0.00052527   -0.00061558
     atom   31 type  1   force =    -0.00025809    0.00035693   -0.00032951
     atom   32 type  1   force =    -0.00018042   -0.00040227   -0.00034345
     atom   33 type  1   force =     0.00043876    0.00004487   -0.00033624
     atom   34 type  2   force =     0.00022169   -0.00032244   -0.00038442
     atom   35 type  2   force =     0.00016930    0.00035208   -0.00038464
     atom   36 type  2   force =    -0.00038941   -0.00003045   -0.00038480
     atom   37 type  2   force =    -0.00010540    0.00003541    0.00003864
     atom   38 type  2   force =     0.00002538   -0.00011418    0.00003967
     atom   39 type  2   force =     0.00008515    0.00007707    0.00003872
     atom   40 type  4   force =    -0.00050067   -0.00089370    0.00037224
     atom   41 type  4   force =     0.00101855    0.00001928    0.00037807
     atom   42 type  4   force =    -0.00052488    0.00087525    0.00037631
     atom   43 type  4   force =    -0.00012701   -0.00030912    0.00070828
     atom   44 type  4   force =     0.00032697    0.00005206    0.00070396
     atom   45 type  4   force =    -0.00020648    0.00025992    0.00070683
     atom   46 type  2   force =    -0.00025586   -0.00067708    0.00024960
     atom   47 type  2   force =     0.00071679    0.00011594    0.00024849
     atom   48 type  2   force =    -0.00045940    0.00056216    0.00024899
     atom   49 type  4   force =    -0.00028084   -0.00060278    0.00043423
     atom   50 type  4   force =     0.00065679    0.00005856    0.00043678
     atom   51 type  4   force =    -0.00037952    0.00054003    0.00043735
     atom   52 type  4   force =    -0.00001141    0.00080296   -0.00044450
     atom   53 type  4   force =    -0.00068922   -0.00041154   -0.00044505
     atom   54 type  4   force =     0.00070255   -0.00039212   -0.00044589
     atom   55 type  2   force =     0.00058709    0.00107545    0.00135702
     atom   56 type  2   force =    -0.00122132   -0.00003318    0.00135622
     atom   57 type  2   force =     0.00063816   -0.00104564    0.00135694
     atom   58 type  4   force =     0.00086322    0.00041525   -0.00113736
     atom   59 type  4   force =    -0.00079374    0.00054549   -0.00114197
     atom   60 type  4   force =    -0.00007139   -0.00095513   -0.00113983
     atom   61 type  4   force =    -0.00075574   -0.00035922   -0.00049066
     atom   62 type  4   force =     0.00068231   -0.00047084   -0.00048679
     atom   63 type  4   force =     0.00006730    0.00083273   -0.00049028
     atom   64 type  2   force =     0.00025989   -0.00077344   -0.00020830
     atom   65 type  2   force =     0.00053947    0.00061249   -0.00020890
     atom   66 type  2   force =    -0.00080216    0.00016242   -0.00020805
     atom   67 type  4   force =    -0.00011688    0.00058054    0.00020571
     atom   68 type  4   force =    -0.00044445   -0.00039169    0.00020444
     atom   69 type  4   force =     0.00056628   -0.00019172    0.00020314
     atom   70 type  4   force =    -0.00014131   -0.00079290    0.00089666
     atom   71 type  4   force =     0.00075704    0.00027361    0.00089859
     atom   72 type  4   force =    -0.00061338    0.00051951    0.00089846
     atom   73 type  3   force =     0.00007943    0.00023897    0.00024086
     atom   74 type  3   force =    -0.00024652   -0.00005090    0.00024110
     atom   75 type  3   force =     0.00016762   -0.00018828    0.00024085
     atom   76 type  3   force =     0.00039193   -0.00052462    0.00016379
     atom   77 type  3   force =     0.00025859    0.00060164    0.00016392
     atom   78 type  3   force =    -0.00065011   -0.00007710    0.00016392
     atom   79 type  3   force =    -0.00065107    0.00006614    0.00012694
     atom   80 type  3   force =     0.00026848   -0.00059704    0.00012710
     atom   81 type  3   force =     0.00038307    0.00053080    0.00012722
     atom   82 type  3   force =    -0.00013519   -0.00005049   -0.00038439
     atom   83 type  3   force =     0.00011159   -0.00009191   -0.00038468
     atom   84 type  3   force =     0.00002404    0.00014243   -0.00038442
     atom   85 type  3   force =     0.00007412    0.00020073    0.00038895
     atom   86 type  3   force =    -0.00021066   -0.00003634    0.00038889
     atom   87 type  3   force =     0.00013709   -0.00016453    0.00038915
     atom   88 type  3   force =    -0.00043364   -0.00018586    0.00037301
     atom   89 type  3   force =     0.00037796   -0.00028261    0.00037318
     atom   90 type  3   force =     0.00005602    0.00046850    0.00037317

     Total force =     0.007673     Total SCF correction =     0.000130


     Computing stress (Cartesian axis) and pressure

          total   stress  (Ry/bohr**3)                   (kbar)     P=    0.26
  -0.00000301   0.00000000  -0.00000000         -0.44      0.00     -0.00
   0.00000000  -0.00000301  -0.00000000          0.00     -0.44     -0.00
  -0.00000000  -0.00000000   0.00001141         -0.00     -0.00      1.68


     Writing output data file scf.save
 
     init_run     :     50.31s CPU     51.87s WALL (       1 calls)
     electrons    :   2138.30s CPU   2203.84s WALL (       1 calls)
     forces       :     23.58s CPU     23.77s WALL (       1 calls)
     stress       :    117.15s CPU    117.58s WALL (       1 calls)

     Called by init_run:
     wfcinit      :     46.82s CPU     48.27s WALL (       1 calls)
     potinit      :      1.27s CPU      1.30s WALL (       1 calls)

     Called by electrons:
     c_bands      :   1930.56s CPU   1988.29s WALL (      16 calls)
     sum_band     :    195.26s CPU    201.86s WALL (      16 calls)
     v_of_rho     :      2.04s CPU      2.22s WALL (      17 calls)
     newd         :      3.78s CPU      4.70s WALL (      17 calls)
     PAW_pot      :      6.15s CPU      6.16s WALL (      17 calls)
     mix_rho      :      0.42s CPU      0.45s WALL (      16 calls)

     Called by c_bands:
     init_us_2    :      7.34s CPU      7.38s WALL (     280 calls)
     cegterg      :   1897.24s CPU   1954.86s WALL (     128 calls)

     Called by sum_band:
     sum_band:bec :      0.12s CPU      0.12s WALL (     128 calls)
     addusdens    :      3.79s CPU      4.68s WALL (      16 calls)

     Called by *egterg:
     h_psi        :   1022.31s CPU   1065.76s WALL (     556 calls)
     s_psi        :    219.01s CPU    219.11s WALL (     556 calls)
     g_psi        :      4.06s CPU      4.07s WALL (     420 calls)
     cdiaghg      :    129.77s CPU    129.84s WALL (     548 calls)

     Called by h_psi:
     h_psi:pot    :   1016.53s CPU   1059.89s WALL (     556 calls)
     h_psi:calbec :    212.59s CPU    213.11s WALL (     556 calls)
     vloc_psi     :    584.37s CPU    627.09s WALL (     556 calls)
     add_vuspsi   :    219.57s CPU    219.68s WALL (     556 calls)

     General routines
     calbec       :    312.61s CPU    313.31s WALL (     724 calls)
     fft          :      1.47s CPU      1.79s WALL (     245 calls)
     fftw         :    642.66s CPU    687.38s WALL (  196086 calls)
 
     Parallel routines
     fft_scatter  :    105.12s CPU    141.73s WALL (  196331 calls)
 
     PWSCF        : 39m 2.19s CPU    41m11.33s WALL

 
   This run was terminated on:  13: 5:13  13Nov2017            

=------------------------------------------------------------------------------=
   JOB DONE.
=------------------------------------------------------------------------------=
