
     Program PWSCF v.6.1 (svn rev. 13369) starts on  4Nov2017 at  2: 4:38 

     This program is part of the open-source Quantum ESPRESSO suite
     for quantum simulation of materials; please cite
         "P. Giannozzi et al., J. Phys.:Condens. Matter 21 395502 (2009);
          URL http://www.quantum-espresso.org", 
     in publications or presentations arising from this work. More details at
     http://www.quantum-espresso.org/quote

     Parallel version (MPI), running on     8 processors
     R & G space division:  proc/nbgrp/npool/nimage =       8
     Waiting for input...
     Reading input from standard input

     Current dimensions of program PWSCF are:
     Max number of different atomic species (ntypx) = 10
     Max number of k-points (npk) =  40000
     Max angular momentum in pseudopotentials (lmaxx) =  3
               file C.pbe-n-kjpaw_psl.0.1.UPF: wavefunction(s)  2P renormalized
               file N.pbe-n-kjpaw_psl.0.1.UPF: wavefunction(s)  2P renormalized
               file H.pbe-kjpaw_psl.0.1.UPF: wavefunction(s)  1S renormalized
               file O.pbe-n-kjpaw_psl.0.1.UPF: wavefunction(s)  2P renormalized

     -------------------------------------
     Parameters for Dispersion Correction:
     -------------------------------------
       atom      VdW radius       C_6     

        C          2.744         60.710
        N          2.640         42.670
        H          1.892          4.857
        O          2.536         24.284

     Subspace diagonalization in iterative solution of the eigenvalue problem:
     a serial algorithm will be used

 
     Parallelization info
     --------------------
     sticks:   dense  smooth     PW     G-vecs:    dense   smooth      PW
     Min         833     833    218                83559    83559   11236
     Max         834     834    219                83566    83566   11241
     Sum        6667    6667   1749               668497   668497   89901
 


     bravais-lattice index     =            0
     lattice parameter (alat)  =      13.9122  a.u.
     unit-cell volume          =    4948.2514 (a.u.)^3
     number of atoms/cell      =           80
     number of atomic types    =            4
     number of electrons       =       248.00
     number of Kohn-Sham states=          148
     kinetic-energy cutoff     =     100.0000  Ry
     charge density cutoff     =     400.0000  Ry
     convergence threshold     =      1.0E-08
     mixing beta               =       0.5000
     number of iterations used =            8  plain     mixing
     Exchange-correlation      =  SLA  PW   PBX  PBC ( 1  4  3  4 0 0)

     celldm(1)=  13.912164  celldm(2)=   0.000000  celldm(3)=   0.000000
     celldm(4)=   0.000000  celldm(5)=   0.000000  celldm(6)=   0.000000

     crystal axes: (cart. coord. in units of alat)
               a(1) = (   1.000000   0.000000   0.000000 )  
               a(2) = (   0.000000   1.082315   0.000000 )  
               a(3) = (   0.000000   0.000000   1.697908 )  

     reciprocal axes: (cart. coord. in units 2 pi/alat)
               b(1) = (  1.000000  0.000000  0.000000 )  
               b(2) = (  0.000000  0.923946  0.000000 )  
               b(3) = (  0.000000  0.000000  0.588960 )  


     PseudoPot. # 1 for  C read from file:
     /scratch/ahofstet/pseudo/C.pbe-n-kjpaw_psl.0.1.UPF
     MD5 check sum: 430fe95172b1e11ef3f8ed03bac87931
     Pseudo is Projector augmented-wave + core cor, Zval =  4.0
     Generated using "atomic" code by A. Dal Corso  v.5.0.99 svn rev. 10869
     Shape of augmentation charge: BESSEL
     Using radial grid of 1073 points,  4 beta functions with: 
                l(1) =   0
                l(2) =   0
                l(3) =   1
                l(4) =   1
     Q(r) pseudized with 0 coefficients 


     PseudoPot. # 2 for  N read from file:
     /scratch/ahofstet/pseudo/N.pbe-n-kjpaw_psl.0.1.UPF
     MD5 check sum: f73187c8b701007e77325f868c9291d7
     Pseudo is Projector augmented-wave + core cor, Zval =  5.0
     Generated using "atomic" code by A. Dal Corso  v.5.0.99 svn rev. 10869
     Shape of augmentation charge: PSQ
     Using radial grid of 1085 points,  4 beta functions with: 
                l(1) =   0
                l(2) =   0
                l(3) =   1
                l(4) =   1
     Q(r) pseudized with 0 coefficients 


     PseudoPot. # 3 for  H read from file:
     /scratch/ahofstet/pseudo/H.pbe-kjpaw_psl.0.1.UPF
     MD5 check sum: 94e484f906d9e9773b2f6e52662335b2
     Pseudo is Projector augmented-wave, Zval =  1.0
     Generated using "atomic" code by A. Dal Corso  v.5.0.99 svn rev. 10869
     Shape of augmentation charge: PSQ
     Using radial grid of  929 points,  2 beta functions with: 
                l(1) =   0
                l(2) =   0
     Q(r) pseudized with 0 coefficients 


     PseudoPot. # 4 for  O read from file:
     /scratch/ahofstet/pseudo/O.pbe-n-kjpaw_psl.0.1.UPF
     MD5 check sum: 3f94a2996a3169367d6eb21d9b593f20
     Pseudo is Projector augmented-wave + core cor, Zval =  6.0
     Generated using "atomic" code by A. Dal Corso  v.5.0.99 svn rev. 10869
     Shape of augmentation charge: BESSEL
     Using radial grid of 1095 points,  4 beta functions with: 
                l(1) =   0
                l(2) =   0
                l(3) =   1
                l(4) =   1
     Q(r) pseudized with 0 coefficients 


     atomic species   valence    mass     pseudopotential
        C              4.00    12.01070      C( 1.00)
        N              5.00    14.00670      N( 1.00)
        H              1.00     1.00794      H( 1.00)
        O              6.00    15.99940      O( 1.00)

      2 Sym. Ops. (no inversion) found ( 1 have fractional translation)



   Cartesian axes

     site n.     atom                  positions (alat units)
         1           C   tau(   1) = (   0.5736339   1.0060093   0.7964813  )
         2           C   tau(   2) = (   0.0736341   0.6174496   0.9014285  )
         3           C   tau(   3) = (   0.4263659   0.4648650   0.0524744  )
         4           C   tau(   4) = (   0.9263661   0.0763053   1.6454354  )
         5           C   tau(   5) = (   0.7571543   0.0357592   0.7941040  )
         6           C   tau(   6) = (   0.2571570   0.5054038   0.9038075  )
         7           C   tau(   7) = (   0.2428430   0.5769108   0.0548534  )
         8           C   tau(   8) = (   0.7428457   1.0465554   1.6430580  )
         9           C   tau(   9) = (   0.8267885   0.0091752   0.5988867  )
        10           C   tau(  10) = (   0.3267881   0.5319704   1.0990264  )
        11           C   tau(  11) = (   0.1732119   0.5503441   0.2500723  )
        12           C   tau(  12) = (   0.6732115   1.0731394   1.4478408  )
        13           C   tau(  13) = (   0.6732134   0.9702566   0.5086545  )
        14           C   tau(  14) = (   0.1732144   0.6532249   1.1892553  )
        15           C   tau(  15) = (   0.3267856   0.4290897   0.3403012  )
        16           C   tau(  16) = (   0.8267866   0.1120579   1.3576086  )
        17           C   tau(  17) = (   0.6897432   0.7879235   0.6028040  )
        18           C   tau(  18) = (   0.1897473   0.8355435   1.0950990  )
        19           C   tau(  19) = (   0.3102527   0.2467710   0.2461449  )
        20           C   tau(  20) = (   0.8102568   0.2943911   1.4517581  )
        21           C   tau(  21) = (   0.6315068   0.8093466   0.7742990  )
        22           C   tau(  22) = (   0.1315033   0.8141219   0.9236066  )
        23           C   tau(  23) = (   0.3684967   0.2681927   0.0746525  )
        24           C   tau(  24) = (   0.8684932   0.2729680   1.6232531  )
        25           C   tau(  25) = (   0.5026635   1.0466755   0.6035004  )
        26           C   tau(  26) = (   0.0026633   0.5768017   1.0944098  )
        27           C   tau(  27) = (   0.4973367   0.5055129   0.2454557  )
        28           C   tau(  28) = (   0.9973365   0.0356391   1.4524545  )
        29           C   tau(  29) = (   0.7215736   0.2363987   0.8089129  )
        30           C   tau(  30) = (   0.2215754   0.3047630   0.8889925  )
        31           C   tau(  31) = (   0.2784246   0.7775515   0.0400384  )
        32           C   tau(  32) = (   0.7784264   0.8459159   1.6578670  )
        33           C   tau(  33) = (   0.8306894   0.1962571   0.5193300  )
        34           C   tau(  34) = (   0.3306887   0.3448828   1.1785774  )
        35           C   tau(  35) = (   0.1693113   0.7374318   0.3296233  )
        36           C   tau(  36) = (   0.6693106   0.8860575   1.3682841  )
        37           O   tau(  37) = (   0.7629642   0.3230454   0.6448171  )
        38           O   tau(  38) = (   0.2629630   0.2181077   1.0530877  )
        39           O   tau(  39) = (   0.2370370   0.8642069   0.2041336  )
        40           O   tau(  40) = (   0.7370358   0.7592692   1.4937712  )
        41           O   tau(  41) = (   0.6609910   0.3231349   0.9340976  )
        42           O   tau(  42) = (   0.1609914   0.2180302   0.7638089  )
        43           O   tau(  43) = (   0.3390086   0.8642843   1.6127630  )
        44           O   tau(  44) = (   0.8390090   0.7591797   0.0851435  )
        45           O   tau(  45) = (   0.8756223   0.2452965   0.3698386  )
        46           O   tau(  46) = (   0.3756226   0.2958484   1.3280696  )
        47           O   tau(  47) = (   0.1243774   0.7864662   0.4791155  )
        48           O   tau(  48) = (   0.6243777   0.8370181   1.2187927  )
        49           H   tau(  49) = (   0.4862754   1.0377950   0.9122397  )
        50           H   tau(  50) = (   0.9862751   0.5856709   0.7856684  )
        51           H   tau(  51) = (   0.5137249   0.4966437   1.6346225  )
        52           H   tau(  52) = (   0.0137246   0.0445196   0.0632856  )
        53           H   tau(  53) = (   0.8502132   1.0743612   0.9019871  )
        54           H   tau(  54) = (   0.3502143   0.5491169   0.7959222  )
        55           H   tau(  55) = (   0.1497857   0.5331977   1.6448763  )
        56           H   tau(  56) = (   0.6497868   0.0079534   0.0530330  )
        57           H   tau(  57) = (   0.9605440   1.0286253   0.5848384  )
        58           H   tau(  58) = (   0.4605427   0.5948377   1.1130728  )
        59           H   tau(  59) = (   0.0394573   0.4874769   0.2641187  )
        60           H   tau(  60) = (   0.5394560   0.0536893   1.4337925  )
        61           H   tau(  61) = (   0.6788390   0.9703299   0.3600760  )
        62           H   tau(  62) = (   0.1788386   0.6531453   1.3378336  )
        63           H   tau(  63) = (   0.3211614   0.4291693   0.4888795  )
        64           H   tau(  64) = (   0.8211610   0.1119847   1.2090301  )
        65           H   tau(  65) = (   0.7547964   0.6688667   0.5443573  )
        66           H   tau(  66) = (   0.2547962   0.9546020   1.1535464  )
        67           H   tau(  67) = (   0.2452038   0.1277126   0.3045924  )
        68           H   tau(  68) = (   0.7452036   0.4134479   1.3933114  )
        69           H   tau(  69) = (   0.6402179   0.7118371   0.8850682  )
        70           H   tau(  70) = (   0.1402167   0.9116323   0.8128377  )
        71           H   tau(  71) = (   0.3597833   0.1706823   1.6617918  )
        72           H   tau(  72) = (   0.8597821   0.3704775   0.0361141  )
        73           H   tau(  73) = (   0.4773393   0.1092264   0.5768614  )
        74           H   tau(  74) = (   0.9773408   0.4319368   1.1210530  )
        75           H   tau(  75) = (   0.5226592   0.6503777   0.2720989  )
        76           H   tau(  76) = (   0.0226607   0.9730882   1.4258155  )
        77           H   tau(  77) = (   0.3799012   0.9690789   0.5714439  )
        78           H   tau(  78) = (   0.8798978   0.6543939   1.1264622  )
        79           H   tau(  79) = (   0.6201022   0.4279207   0.2775081  )
        80           H   tau(  80) = (   0.1200988   0.1132357   1.4203980  )

     number of k points=    10
                       cart. coord. in units 2pi/alat
        k(    1) = (   0.0000000   0.0000000   0.0000000), wk =   0.1111111
        k(    2) = (   0.0000000   0.0000000  -0.2944800), wk =   0.1111111
        k(    3) = (   0.0000000   0.3079819   0.0000000), wk =   0.2222222
        k(    4) = (   0.0000000   0.3079819  -0.2944800), wk =   0.2222222
        k(    5) = (   0.3333333   0.0000000   0.0000000), wk =   0.2222222
        k(    6) = (   0.3333333   0.0000000  -0.2944800), wk =   0.2222222
        k(    7) = (   0.3333333   0.3079819   0.0000000), wk =   0.2222222
        k(    8) = (   0.3333333   0.3079819  -0.2944800), wk =   0.2222222
        k(    9) = (  -0.3333333   0.3079819   0.0000000), wk =   0.2222222
        k(   10) = (  -0.3333333   0.3079819   0.2944800), wk =   0.2222222

     Dense  grid:   668497 G-vectors     FFT dimensions: (  90,  96, 160)

     Estimated max dynamical RAM per process >     580.44MB

     Estimated total allocated dynamical RAM >    4643.52MB

     Check: negative/imaginary core charge=   -0.000002    0.000000

     Initial potential from superposition of free atoms

     starting charge  247.99818, renormalised to  248.00000
     Starting wfc are  224 randomized atomic wfcs
     Checking if some PAW data can be deallocated... 

     total cpu time spent up to now is       30.0 secs

     per-process dynamical memory:   457.4 Mb

     Self-consistent Calculation

     iteration #  1     ecut=   100.00 Ry     beta=0.50
     Davidson diagonalization with overlap
     ethr =  1.00E-02,  avg # of iterations =  3.4

     total cpu time spent up to now is      110.2 secs

     total energy              =   -1199.87059432 Ry
     Harris-Foulkes estimate   =   -1204.47872888 Ry
     estimated scf accuracy    <       8.61294870 Ry

     iteration #  2     ecut=   100.00 Ry     beta=0.50
     Davidson diagonalization with overlap
     ethr =  3.47E-03,  avg # of iterations =  2.6

     total cpu time spent up to now is      154.0 secs

     total energy              =   -1200.29551602 Ry
     Harris-Foulkes estimate   =   -1201.00018268 Ry
     estimated scf accuracy    <       1.38203402 Ry

     iteration #  3     ecut=   100.00 Ry     beta=0.50
     Davidson diagonalization with overlap
     ethr =  5.57E-04,  avg # of iterations =  5.0

     total cpu time spent up to now is      246.2 secs

     total energy              =   -1201.41026088 Ry
     Harris-Foulkes estimate   =   -1202.11714088 Ry
     estimated scf accuracy    <       1.97522864 Ry

     iteration #  4     ecut=   100.00 Ry     beta=0.50
     Davidson diagonalization with overlap
     ethr =  5.57E-04,  avg # of iterations =  1.1

     total cpu time spent up to now is      286.7 secs

     total energy              =   -1201.08164167 Ry
     Harris-Foulkes estimate   =   -1201.51877956 Ry
     estimated scf accuracy    <       0.61224033 Ry

     iteration #  5     ecut=   100.00 Ry     beta=0.50
     Davidson diagonalization with overlap
     ethr =  2.47E-04,  avg # of iterations =  5.0

     total cpu time spent up to now is      375.6 secs

     total energy              =   -1201.42665155 Ry
     Harris-Foulkes estimate   =   -1201.93828925 Ry
     estimated scf accuracy    <       1.20898283 Ry

     iteration #  6     ecut=   100.00 Ry     beta=0.50
     Davidson diagonalization with overlap
     ethr =  2.47E-04,  avg # of iterations =  4.3

     total cpu time spent up to now is      425.1 secs

     total energy              =   -1201.44337600 Ry
     Harris-Foulkes estimate   =   -1201.52319409 Ry
     estimated scf accuracy    <       0.18569710 Ry

     iteration #  7     ecut=   100.00 Ry     beta=0.50
     Davidson diagonalization with overlap
     ethr =  7.49E-05,  avg # of iterations =  7.6

     total cpu time spent up to now is      515.0 secs

     total energy              =   -1201.56684375 Ry
     Harris-Foulkes estimate   =   -1201.56926034 Ry
     estimated scf accuracy    <       0.02408940 Ry

     iteration #  8     ecut=   100.00 Ry     beta=0.50
     Davidson diagonalization with overlap
     ethr =  9.71E-06,  avg # of iterations =  1.9

     total cpu time spent up to now is      556.8 secs

     total energy              =   -1201.56115509 Ry
     Harris-Foulkes estimate   =   -1201.56727567 Ry
     estimated scf accuracy    <       0.01940603 Ry

     iteration #  9     ecut=   100.00 Ry     beta=0.50
     Davidson diagonalization with overlap
     ethr =  7.83E-06,  avg # of iterations =  1.0

     total cpu time spent up to now is      597.1 secs

     total energy              =   -1201.55911460 Ry
     Harris-Foulkes estimate   =   -1201.56200278 Ry
     estimated scf accuracy    <       0.00738336 Ry

     iteration # 10     ecut=   100.00 Ry     beta=0.50
     Davidson diagonalization with overlap
     ethr =  2.98E-06,  avg # of iterations =  6.8

     total cpu time spent up to now is      677.7 secs

     total energy              =   -1201.56273002 Ry
     Harris-Foulkes estimate   =   -1201.56280329 Ry
     estimated scf accuracy    <       0.00086380 Ry

     iteration # 11     ecut=   100.00 Ry     beta=0.50
     Davidson diagonalization with overlap
     ethr =  3.48E-07,  avg # of iterations =  1.0

     total cpu time spent up to now is      718.0 secs

     total energy              =   -1201.56245530 Ry
     Harris-Foulkes estimate   =   -1201.56274273 Ry
     estimated scf accuracy    <       0.00073867 Ry

     iteration # 12     ecut=   100.00 Ry     beta=0.50
     Davidson diagonalization with overlap
     ethr =  2.98E-07,  avg # of iterations =  1.0

     total cpu time spent up to now is      758.3 secs

     total energy              =   -1201.56233459 Ry
     Harris-Foulkes estimate   =   -1201.56248935 Ry
     estimated scf accuracy    <       0.00022948 Ry

     iteration # 13     ecut=   100.00 Ry     beta=0.50
     Davidson diagonalization with overlap
     ethr =  9.25E-08,  avg # of iterations =  4.0

     total cpu time spent up to now is      840.4 secs

     total energy              =   -1201.56258174 Ry
     Harris-Foulkes estimate   =   -1201.56265257 Ry
     estimated scf accuracy    <       0.00035148 Ry

     iteration # 14     ecut=   100.00 Ry     beta=0.50
     Davidson diagonalization with overlap
     ethr =  9.25E-08,  avg # of iterations =  1.0

     total cpu time spent up to now is      880.8 secs

     total energy              =   -1201.56241015 Ry
     Harris-Foulkes estimate   =   -1201.56258401 Ry
     estimated scf accuracy    <       0.00023275 Ry

     iteration # 15     ecut=   100.00 Ry     beta=0.50
     Davidson diagonalization with overlap
     ethr =  9.25E-08,  avg # of iterations =  4.0

     total cpu time spent up to now is      957.5 secs

     total energy              =   -1201.56249754 Ry
     Harris-Foulkes estimate   =   -1201.56261789 Ry
     estimated scf accuracy    <       0.00023727 Ry

     iteration # 16     ecut=   100.00 Ry     beta=0.50
     Davidson diagonalization with overlap
     ethr =  9.25E-08,  avg # of iterations =  1.0

     total cpu time spent up to now is      997.8 secs

     total energy              =   -1201.56249432 Ry
     Harris-Foulkes estimate   =   -1201.56251032 Ry
     estimated scf accuracy    <       0.00005046 Ry

     iteration # 17     ecut=   100.00 Ry     beta=0.50
     Davidson diagonalization with overlap
     ethr =  2.03E-08,  avg # of iterations =  4.0

     total cpu time spent up to now is     1077.1 secs

     total energy              =   -1201.56254502 Ry
     Harris-Foulkes estimate   =   -1201.56254848 Ry
     estimated scf accuracy    <       0.00001555 Ry

     iteration # 18     ecut=   100.00 Ry     beta=0.50
     Davidson diagonalization with overlap
     ethr =  6.27E-09,  avg # of iterations =  1.0

     total cpu time spent up to now is     1117.4 secs

     total energy              =   -1201.56254143 Ry
     Harris-Foulkes estimate   =   -1201.56254516 Ry
     estimated scf accuracy    <       0.00000978 Ry

     iteration # 19     ecut=   100.00 Ry     beta=0.50
     Davidson diagonalization with overlap
     ethr =  3.94E-09,  avg # of iterations =  4.3

     total cpu time spent up to now is     1165.1 secs

     total energy              =   -1201.56254257 Ry
     Harris-Foulkes estimate   =   -1201.56254273 Ry
     estimated scf accuracy    <       0.00000129 Ry

     iteration # 20     ecut=   100.00 Ry     beta=0.50
     Davidson diagonalization with overlap
     ethr =  5.21E-10,  avg # of iterations =  4.0

     total cpu time spent up to now is     1244.7 secs

     total energy              =   -1201.56254365 Ry
     Harris-Foulkes estimate   =   -1201.56254366 Ry
     estimated scf accuracy    <       0.00000003 Ry

     iteration # 21     ecut=   100.00 Ry     beta=0.50
     Davidson diagonalization with overlap
     ethr =  1.07E-11,  avg # of iterations =  4.8

     total cpu time spent up to now is     1301.3 secs

     total energy              =   -1201.56254365 Ry
     Harris-Foulkes estimate   =   -1201.56254366 Ry
     estimated scf accuracy    <       0.00000002 Ry

     iteration # 22     ecut=   100.00 Ry     beta=0.50
     Davidson diagonalization with overlap
     ethr =  7.50E-12,  avg # of iterations =  4.3

     total cpu time spent up to now is     1371.5 secs

     End of self-consistent calculation

          k = 0.0000 0.0000 0.0000 ( 83517 PWs)   bands (ev):

   -21.6879 -21.6842 -21.6436 -21.6417 -20.0764 -20.0690 -20.0656 -20.0641
   -19.0216 -19.0205 -18.9990 -18.9961 -15.5529 -15.5466 -15.5266 -15.5261
   -12.6881 -12.6823 -12.6496 -12.6412 -11.5255 -11.5104 -11.4935 -11.4770
   -10.6008 -10.5984 -10.5720 -10.5515  -9.8580  -9.8350  -9.7962  -9.7520
    -8.3994  -8.3703  -8.3615  -8.3181  -7.7747  -7.7661  -7.7114  -7.7023
    -6.6251  -6.5383  -6.5363  -6.5219  -6.2940  -6.2785  -6.1520  -6.1120
    -6.0507  -5.9532  -5.9445  -5.8696  -5.6619  -5.6299  -5.5853  -5.5797
    -5.0258  -4.9982  -4.9637  -4.9039  -4.7706  -4.7560  -4.5783  -4.4003
    -4.3814  -4.2945  -4.1898  -4.0357  -3.8473  -3.7360  -3.7089  -3.6926
    -3.4799  -3.4640  -3.4540  -3.4215  -3.2771  -3.2753  -3.2302  -3.2080
    -3.0129  -2.8970  -2.8680  -2.7742  -2.1703  -2.0670  -2.0424  -1.9879
    -1.9776  -1.8925  -1.8761  -1.8482  -1.8479  -1.7531  -1.7097  -1.6260
    -1.5241  -1.5128  -1.4953  -1.4437  -1.4048  -1.3240  -1.3218  -1.2994
    -1.2671  -1.1805  -1.1799  -1.1623  -1.1326  -1.1168  -1.0183  -0.9849
    -0.4308  -0.4097  -0.3696  -0.2360   0.2403   0.2967   0.3264   0.3710
     0.8983   0.9370   1.0218   1.0448   4.7012   4.8129   4.8174   4.8325
     5.2539   5.4531   5.4759   5.5966   5.9074   6.0645   6.2568   6.3881
     6.7055   7.4345   7.7471   8.0230   8.0867   8.3510   8.4796   8.5086
     8.6532   8.9742   9.0296   9.1452

          k = 0.0000 0.0000-0.2945 ( 83520 PWs)   bands (ev):

   -21.6861 -21.6861 -21.6426 -21.6426 -20.0734 -20.0734 -20.0642 -20.0642
   -19.0211 -19.0211 -18.9975 -18.9975 -15.5499 -15.5499 -15.5262 -15.5262
   -12.6853 -12.6853 -12.6452 -12.6452 -11.5196 -11.5196 -11.4835 -11.4835
   -10.5985 -10.5985 -10.5630 -10.5630  -9.8276  -9.8276  -9.7939  -9.7939
    -8.3820  -8.3820  -8.3445  -8.3445  -7.7699  -7.7699  -7.7056  -7.7056
    -6.5955  -6.5955  -6.5111  -6.5111  -6.2863  -6.2863  -6.1501  -6.1501
    -5.9932  -5.9932  -5.9018  -5.9018  -5.6199  -5.6199  -5.6030  -5.6030
    -4.9924  -4.9924  -4.9470  -4.9470  -4.7732  -4.7732  -4.4804  -4.4804
    -4.3575  -4.3575  -4.1008  -4.1008  -3.8025  -3.8025  -3.7084  -3.7084
    -3.4867  -3.4867  -3.3709  -3.3709  -3.3156  -3.3156  -3.2542  -3.2542
    -2.9674  -2.9674  -2.7976  -2.7976  -2.0813  -2.0813  -2.0199  -2.0199
    -1.9205  -1.9205  -1.8621  -1.8621  -1.7931  -1.7931  -1.6874  -1.6874
    -1.5307  -1.5307  -1.4569  -1.4569  -1.3483  -1.3483  -1.3036  -1.3036
    -1.2796  -1.2796  -1.1566  -1.1566  -1.0795  -1.0795  -1.0316  -1.0316
    -0.4220  -0.4220  -0.2859  -0.2859   0.2583   0.2583   0.3357   0.3357
     0.9148   0.9148   1.0360   1.0360   4.7439   4.7439   4.8305   4.8305
     5.3396   5.3396   5.5597   5.5597   5.9714   5.9714   6.3358   6.3358
     6.9728   6.9728   7.9860   7.9860   8.1276   8.1276   8.6336   8.6336
     8.6806   8.6806   9.1403   9.1403

          k = 0.0000 0.3080 0.0000 ( 83558 PWs)   bands (ev):

   -21.6869 -21.6850 -21.6431 -21.6421 -20.0746 -20.0709 -20.0652 -20.0644
   -19.0213 -19.0208 -18.9983 -18.9968 -15.5632 -15.5608 -15.5222 -15.5217
   -12.6570 -12.6549 -12.6380 -12.6325 -11.5197 -11.5054 -11.5014 -11.4915
   -10.6079 -10.5955 -10.5910 -10.5721  -9.8508  -9.8404  -9.7840  -9.7635
    -8.3778  -8.3669  -8.3303  -8.3100  -7.8349  -7.8299  -7.7917  -7.7848
    -6.6715  -6.6268  -6.5308  -6.5219  -6.2777  -6.2668  -6.1620  -6.0581
    -5.9550  -5.9015  -5.8369  -5.8332  -5.6740  -5.6681  -5.5198  -5.4845
    -5.0825  -5.0765  -4.9084  -4.8988  -4.7408  -4.6793  -4.6396  -4.5239
    -4.2910  -4.2675  -4.2211  -4.1095  -3.7832  -3.7323  -3.7039  -3.6787
    -3.5086  -3.4833  -3.4414  -3.3528  -3.3444  -3.2997  -3.2979  -3.2659
    -2.8263  -2.8162  -2.7450  -2.6595  -2.2167  -2.1936  -2.0349  -2.0302
    -1.9477  -1.9463  -1.8662  -1.8306  -1.8031  -1.7860  -1.7180  -1.6928
    -1.5599  -1.5500  -1.5275  -1.5252  -1.3284  -1.3104  -1.3037  -1.2785
    -1.2536  -1.1806  -1.1552  -1.1124  -1.1092  -1.1072  -1.0242  -1.0198
    -0.4563  -0.4432  -0.3420  -0.2756   0.2306   0.2692   0.2939   0.3311
     0.8484   0.8761   1.0311   1.0420   4.7178   4.7820   4.8306   4.8427
     5.2687   5.3304   5.5540   5.6454   5.9576   6.0308   6.2974   6.3743
     6.9819   7.4091   7.9183   8.0730   8.1045   8.3060   8.4262   8.4393
     8.6563   8.7769   8.8042   9.0382

          k = 0.0000 0.3080-0.2945 ( 83572 PWs)   bands (ev):

   -21.6860 -21.6860 -21.6426 -21.6426 -20.0729 -20.0729 -20.0647 -20.0647
   -19.0211 -19.0211 -18.9975 -18.9975 -15.5620 -15.5620 -15.5220 -15.5220
   -12.6560 -12.6560 -12.6352 -12.6352 -11.5145 -11.5145 -11.4945 -11.4945
   -10.6027 -10.6027 -10.5806 -10.5806  -9.8252  -9.8252  -9.7952  -9.7952
    -8.3574  -8.3574  -8.3372  -8.3372  -7.8314  -7.8314  -7.7878  -7.7878
    -6.6437  -6.6437  -6.5332  -6.5332  -6.2856  -6.2856  -6.0903  -6.0903
    -5.9330  -5.9330  -5.8261  -5.8261  -5.6725  -5.6725  -5.4982  -5.4982
    -5.0411  -5.0411  -4.9635  -4.9635  -4.7202  -4.7202  -4.5523  -4.5523
    -4.2887  -4.2887  -4.1592  -4.1592  -3.7600  -3.7600  -3.7133  -3.7133
    -3.4567  -3.4567  -3.4077  -3.4077  -3.3344  -3.3344  -3.3097  -3.3097
    -2.8166  -2.8166  -2.7022  -2.7022  -2.1754  -2.1754  -2.0340  -2.0340
    -1.9033  -1.9033  -1.8787  -1.8787  -1.7718  -1.7718  -1.7322  -1.7322
    -1.5904  -1.5904  -1.4919  -1.4919  -1.3163  -1.3163  -1.2744  -1.2744
    -1.2337  -1.2337  -1.1591  -1.1591  -1.0871  -1.0871  -1.0269  -1.0269
    -0.4375  -0.4375  -0.3035  -0.3035   0.2505   0.2505   0.2873   0.2873
     0.8624   0.8624   1.0359   1.0359   4.7438   4.7438   4.8414   4.8414
     5.3023   5.3023   5.5962   5.5962   5.9966   5.9966   6.3326   6.3326
     7.2119   7.2119   7.8355   7.8355   8.2621   8.2621   8.4484   8.4484
     8.7790   8.7790   8.9465   8.9465

          k = 0.3333 0.0000 0.0000 ( 83486 PWs)   bands (ev):

   -21.6767 -21.6738 -21.6545 -21.6527 -20.0740 -20.0688 -20.0675 -20.0648
   -19.0160 -19.0143 -19.0047 -19.0021 -15.5493 -15.5378 -15.5371 -15.5265
   -12.6905 -12.6709 -12.6637 -12.6434 -11.5267 -11.5181 -11.4852 -11.4784
   -10.6052 -10.6021 -10.5694 -10.5654  -9.8465  -9.8357  -9.7842  -9.7628
    -8.3994  -8.3854  -8.3358  -8.3158  -7.7812  -7.7485  -7.7390  -7.7078
    -6.6013  -6.5814  -6.5045  -6.4760  -6.2063  -6.1946  -6.1021  -6.0859
    -6.0158  -5.9651  -5.9124  -5.8750  -5.7433  -5.6913  -5.6291  -5.5796
    -5.0541  -5.0478  -4.9381  -4.8930  -4.8108  -4.7644  -4.5251  -4.4440
    -4.3663  -4.2573  -4.2067  -4.1060  -3.8446  -3.7747  -3.7531  -3.7257
    -3.4611  -3.4587  -3.4459  -3.4390  -3.2979  -3.2621  -3.2211  -3.2098
    -2.9889  -2.9263  -2.8295  -2.7825  -2.1607  -2.1234  -2.0063  -1.9940
    -1.9641  -1.9276  -1.8919  -1.8391  -1.8242  -1.7873  -1.7519  -1.6742
    -1.5837  -1.5639  -1.4468  -1.4443  -1.3533  -1.3373  -1.3295  -1.3212
    -1.2259  -1.1978  -1.1354  -1.1027  -1.0993  -1.0846  -1.0609  -1.0263
    -0.3955  -0.3666  -0.3517  -0.2942   0.2607   0.2924   0.3524   0.3794
     0.9081   0.9575   0.9686   1.0325   4.7062   4.7566   4.8033   4.8057
     5.3153   5.4213   5.5158   5.6104   5.8685   6.0736   6.1918   6.3343
     7.0503   7.6312   7.6487   7.9821   8.0540   8.1554   8.6761   8.7345
     8.8365   8.8476   8.9773   9.0565

          k = 0.3333 0.0000-0.2945 ( 83532 PWs)   bands (ev):

   -21.6753 -21.6753 -21.6535 -21.6535 -20.0718 -20.0718 -20.0657 -20.0657
   -19.0152 -19.0152 -19.0034 -19.0034 -15.5456 -15.5456 -15.5298 -15.5298
   -12.6839 -12.6839 -12.6502 -12.6502 -11.5228 -11.5228 -11.4813 -11.4813
   -10.6055 -10.6055 -10.5653 -10.5653  -9.8184  -9.8184  -9.7975  -9.7975
    -8.3827  -8.3827  -8.3374  -8.3374  -7.7699  -7.7699  -7.7175  -7.7175
    -6.5726  -6.5726  -6.5115  -6.5115  -6.1948  -6.1948  -6.1041  -6.1041
    -5.9728  -5.9728  -5.8972  -5.8972  -5.7151  -5.7151  -5.6030  -5.6030
    -5.0159  -5.0159  -4.9715  -4.9715  -4.7755  -4.7755  -4.4822  -4.4822
    -4.3150  -4.3150  -4.1512  -4.1512  -3.8215  -3.8215  -3.7427  -3.7427
    -3.4731  -3.4731  -3.3746  -3.3746  -3.3380  -3.3380  -3.2320  -3.2320
    -2.9657  -2.9657  -2.7956  -2.7956  -2.1042  -2.1042  -2.0198  -2.0198
    -1.9294  -1.9294  -1.8482  -1.8482  -1.8108  -1.8108  -1.7165  -1.7165
    -1.5610  -1.5610  -1.4589  -1.4589  -1.3519  -1.3519  -1.3089  -1.3089
    -1.2265  -1.2265  -1.1220  -1.1220  -1.0765  -1.0765  -1.0589  -1.0589
    -0.3776  -0.3776  -0.3126  -0.3126   0.2731   0.2731   0.3432   0.3432
     0.9225   0.9225   1.0130   1.0130   4.7409   4.7409   4.7932   4.7932
     5.3608   5.3608   5.5655   5.5655   5.9651   5.9651   6.2781   6.2781
     7.2385   7.2385   7.9091   7.9091   8.0933   8.0933   8.6584   8.6584
     8.8563   8.8563   9.0596   9.0596

          k = 0.3333 0.3080 0.0000 ( 83620 PWs)   bands (ev):

   -21.6759 -21.6745 -21.6540 -21.6531 -20.0724 -20.0691 -20.0677 -20.0657
   -19.0156 -19.0147 -19.0041 -19.0028 -15.5545 -15.5492 -15.5342 -15.5290
   -12.6592 -12.6494 -12.6456 -12.6348 -11.5177 -11.5131 -11.4992 -11.4913
   -10.6070 -10.6024 -10.5886 -10.5772  -9.8478  -9.8415  -9.7808  -9.7694
    -8.3736  -8.3687  -8.3215  -8.3107  -7.8367  -7.8216  -7.8101  -7.7923
    -6.6103  -6.5792  -6.5123  -6.4897  -6.2234  -6.2051  -6.1376  -6.0877
    -5.9469  -5.9333  -5.8702  -5.8230  -5.7106  -5.6450  -5.5897  -5.5088
    -5.0518  -5.0295  -4.9223  -4.9160  -4.7489  -4.7271  -4.6130  -4.5499
    -4.2948  -4.2498  -4.2224  -4.1710  -3.7891  -3.7557  -3.7365  -3.7200
    -3.5179  -3.4963  -3.3900  -3.3617  -3.3453  -3.3132  -3.2844  -3.2542
    -2.8066  -2.7704  -2.7562  -2.7047  -2.2263  -2.2084  -2.0577  -2.0282
    -1.9420  -1.9411  -1.8827  -1.8500  -1.8187  -1.7745  -1.7574  -1.6884
    -1.6036  -1.5723  -1.5467  -1.5331  -1.3354  -1.3102  -1.2904  -1.2713
    -1.2349  -1.1940  -1.1493  -1.1415  -1.0689  -1.0507  -1.0268  -1.0146
    -0.4254  -0.4040  -0.3277  -0.3041   0.2562   0.2671   0.3061   0.3223
     0.8832   0.9150   0.9653   1.0035   4.7294   4.7771   4.7957   4.8125
     5.3280   5.3640   5.5228   5.5787   5.9746   6.0968   6.1961   6.3025
     7.2809   7.6214   7.8993   8.0537   8.1283   8.2421   8.3633   8.4804
     8.6195   8.7851   8.9199   9.0502

          k = 0.3333 0.3080-0.2945 ( 83578 PWs)   bands (ev):

   -21.6752 -21.6752 -21.6535 -21.6535 -20.0710 -20.0710 -20.0665 -20.0665
   -19.0152 -19.0152 -19.0034 -19.0034 -15.5521 -15.5521 -15.5314 -15.5314
   -12.6560 -12.6560 -12.6385 -12.6385 -11.5159 -11.5159 -11.4947 -11.4947
   -10.6048 -10.6048 -10.5826 -10.5826  -9.8186  -9.8186  -9.8023  -9.8023
    -8.3575  -8.3575  -8.3317  -8.3317  -7.8297  -7.8297  -7.7998  -7.7998
    -6.5802  -6.5802  -6.5173  -6.5173  -6.2170  -6.2170  -6.1005  -6.1005
    -5.9342  -5.9342  -5.8612  -5.8612  -5.6734  -5.6734  -5.5448  -5.5448
    -5.0031  -5.0031  -4.9686  -4.9686  -4.7170  -4.7170  -4.5947  -4.5947
    -4.2729  -4.2729  -4.1931  -4.1931  -3.7765  -3.7765  -3.7362  -3.7362
    -3.4569  -3.4569  -3.4278  -3.4278  -3.3490  -3.3490  -3.2690  -3.2690
    -2.7971  -2.7971  -2.7214  -2.7214  -2.1670  -2.1670  -2.0927  -2.0927
    -1.9086  -1.9086  -1.8712  -1.8712  -1.7728  -1.7728  -1.7275  -1.7275
    -1.5913  -1.5913  -1.5433  -1.5433  -1.3147  -1.3147  -1.2770  -1.2770
    -1.2099  -1.2099  -1.1694  -1.1694  -1.0466  -1.0466  -1.0318  -1.0318
    -0.3952  -0.3952  -0.3224  -0.3224   0.2560   0.2560   0.2944   0.2944
     0.8961   0.8961   0.9884   0.9884   4.7536   4.7536   4.8061   4.8061
     5.3569   5.3569   5.5287   5.5287   6.0375   6.0375   6.2546   6.2546
     7.4691   7.4691   7.9884   7.9884   8.0672   8.0672   8.3695   8.3695
     8.8972   8.8972   9.0307   9.0307

          k =-0.3333 0.3080 0.0000 ( 83620 PWs)   bands (ev):

   -21.6759 -21.6745 -21.6540 -21.6531 -20.0724 -20.0692 -20.0677 -20.0658
   -19.0156 -19.0147 -19.0041 -19.0028 -15.5545 -15.5492 -15.5342 -15.5290
   -12.6593 -12.6494 -12.6456 -12.6348 -11.5178 -11.5132 -11.4991 -11.4913
   -10.6070 -10.6023 -10.5886 -10.5772  -9.8478  -9.8416  -9.7808  -9.7694
    -8.3737  -8.3687  -8.3215  -8.3108  -7.8367  -7.8216  -7.8101  -7.7923
    -6.6103  -6.5792  -6.5123  -6.4897  -6.2234  -6.2051  -6.1376  -6.0877
    -5.9469  -5.9333  -5.8702  -5.8230  -5.7106  -5.6450  -5.5897  -5.5088
    -5.0518  -5.0294  -4.9223  -4.9160  -4.7489  -4.7270  -4.6130  -4.5499
    -4.2948  -4.2498  -4.2225  -4.1710  -3.7890  -3.7557  -3.7365  -3.7200
    -3.5179  -3.4963  -3.3900  -3.3617  -3.3453  -3.3132  -3.2844  -3.2542
    -2.8065  -2.7705  -2.7562  -2.7047  -2.2263  -2.2084  -2.0577  -2.0282
    -1.9420  -1.9411  -1.8825  -1.8500  -1.8187  -1.7745  -1.7574  -1.6884
    -1.6036  -1.5723  -1.5468  -1.5330  -1.3353  -1.3102  -1.2904  -1.2713
    -1.2349  -1.1940  -1.1494  -1.1415  -1.0689  -1.0508  -1.0268  -1.0146
    -0.4254  -0.4040  -0.3277  -0.3041   0.2562   0.2670   0.3061   0.3223
     0.8832   0.9150   0.9653   1.0035   4.7294   4.7771   4.7957   4.8125
     5.3280   5.3640   5.5229   5.5787   5.9746   6.0968   6.1960   6.3025
     7.2809   7.6214   7.8993   8.0536   8.1283   8.2421   8.3634   8.4804
     8.6195   8.7851   8.9199   9.0502

          k =-0.3333 0.3080 0.2945 ( 83578 PWs)   bands (ev):

   -21.6752 -21.6752 -21.6535 -21.6535 -20.0710 -20.0710 -20.0665 -20.0665
   -19.0152 -19.0152 -19.0034 -19.0034 -15.5521 -15.5521 -15.5314 -15.5314
   -12.6560 -12.6560 -12.6385 -12.6385 -11.5159 -11.5159 -11.4947 -11.4947
   -10.6048 -10.6048 -10.5826 -10.5826  -9.8186  -9.8186  -9.8023  -9.8023
    -8.3575  -8.3575  -8.3317  -8.3317  -7.8297  -7.8297  -7.7998  -7.7998
    -6.5802  -6.5802  -6.5173  -6.5173  -6.2170  -6.2170  -6.1005  -6.1005
    -5.9342  -5.9342  -5.8612  -5.8612  -5.6734  -5.6734  -5.5448  -5.5448
    -5.0031  -5.0031  -4.9686  -4.9686  -4.7170  -4.7170  -4.5947  -4.5947
    -4.2729  -4.2729  -4.1931  -4.1931  -3.7765  -3.7765  -3.7362  -3.7362
    -3.4569  -3.4569  -3.4279  -3.4279  -3.3490  -3.3490  -3.2690  -3.2690
    -2.7971  -2.7971  -2.7214  -2.7214  -2.1670  -2.1670  -2.0927  -2.0927
    -1.9086  -1.9086  -1.8712  -1.8712  -1.7728  -1.7728  -1.7275  -1.7275
    -1.5913  -1.5913  -1.5433  -1.5433  -1.3147  -1.3147  -1.2769  -1.2769
    -1.2099  -1.2099  -1.1694  -1.1694  -1.0466  -1.0466  -1.0317  -1.0317
    -0.3952  -0.3952  -0.3224  -0.3224   0.2560   0.2560   0.2944   0.2944
     0.8961   0.8961   0.9884   0.9884   4.7536   4.7536   4.8061   4.8061
     5.3568   5.3568   5.5287   5.5287   6.0375   6.0375   6.2546   6.2546
     7.4691   7.4691   7.9884   7.9884   8.0672   8.0672   8.3695   8.3695
     8.8971   8.8971   9.0307   9.0307

     highest occupied, lowest unoccupied level (ev):     1.0448    4.7012

!    total energy              =   -1201.56254365 Ry
     Harris-Foulkes estimate   =   -1201.56254366 Ry
     estimated scf accuracy    <          9.0E-09 Ry

     total all-electron energy =     -4587.232765 Ry

     The total energy is the sum of the following terms:

     one-electron contribution =    -624.51832396 Ry
     hartree contribution      =     411.11057300 Ry
     xc contribution           =    -260.68243258 Ry
     ewald contribution        =    -373.34872113 Ry
     Dispersion Correction     =      -0.38781941 Ry
     one-center paw contrib.   =    -353.73581957 Ry

     convergence has been achieved in  22 iterations

     Forces acting on atoms (cartesian axes, Ry/au):

     atom    1 type  1   force =    -0.00046412   -0.00057074    0.00137932
     atom    2 type  1   force =    -0.00046447    0.00068968   -0.00138222
     atom    3 type  1   force =     0.00046447   -0.00068968   -0.00138222
     atom    4 type  1   force =     0.00046412    0.00057074    0.00137932
     atom    5 type  1   force =    -0.00088976   -0.00159705    0.00035084
     atom    6 type  1   force =    -0.00089039    0.00151746   -0.00035513
     atom    7 type  1   force =     0.00089039   -0.00151746   -0.00035513
     atom    8 type  1   force =     0.00088976    0.00159705    0.00035084
     atom    9 type  1   force =    -0.00259623   -0.00113428    0.00034134
     atom   10 type  1   force =    -0.00259878    0.00120174   -0.00033723
     atom   11 type  1   force =     0.00259878   -0.00120174   -0.00033723
     atom   12 type  1   force =     0.00259623    0.00113428    0.00034134
     atom   13 type  1   force =     0.00043823    0.00057879   -0.00103586
     atom   14 type  1   force =     0.00043905   -0.00069186    0.00103216
     atom   15 type  1   force =    -0.00043905    0.00069186    0.00103216
     atom   16 type  1   force =    -0.00043823   -0.00057879   -0.00103586
     atom   17 type  1   force =     0.00208559   -0.00225432   -0.00130152
     atom   18 type  1   force =     0.00208474    0.00230757    0.00130156
     atom   19 type  1   force =    -0.00208474   -0.00230757    0.00130156
     atom   20 type  1   force =    -0.00208559    0.00225432   -0.00130152
     atom   21 type  1   force =    -0.00070367   -0.00022137    0.00322017
     atom   22 type  1   force =    -0.00069648    0.00019359   -0.00322728
     atom   23 type  1   force =     0.00069648   -0.00019359   -0.00322728
     atom   24 type  1   force =     0.00070367    0.00022137    0.00322017
     atom   25 type  1   force =    -0.00021284    0.00046553   -0.00040322
     atom   26 type  1   force =    -0.00020941   -0.00050592    0.00041287
     atom   27 type  1   force =     0.00020941    0.00050592    0.00041287
     atom   28 type  1   force =     0.00021284   -0.00046553   -0.00040322
     atom   29 type  1   force =    -0.00048041    0.00116948   -0.00001653
     atom   30 type  1   force =    -0.00046878   -0.00116067    0.00003133
     atom   31 type  1   force =     0.00046878    0.00116067    0.00003133
     atom   32 type  1   force =     0.00048041   -0.00116948   -0.00001653
     atom   33 type  1   force =    -0.00012995    0.00171177   -0.00202253
     atom   34 type  1   force =    -0.00014360   -0.00162127    0.00200620
     atom   35 type  1   force =     0.00014360    0.00162127    0.00200620
     atom   36 type  1   force =     0.00012995   -0.00171177   -0.00202253
     atom   37 type  4   force =    -0.00042042   -0.00004130    0.00050445
     atom   38 type  4   force =    -0.00042272    0.00001365   -0.00050975
     atom   39 type  4   force =     0.00042272   -0.00001365   -0.00050975
     atom   40 type  4   force =     0.00042042    0.00004130    0.00050445
     atom   41 type  4   force =     0.00198676   -0.00015296   -0.00017537
     atom   42 type  4   force =     0.00197586    0.00013666    0.00014789
     atom   43 type  4   force =    -0.00197586   -0.00013666    0.00014789
     atom   44 type  4   force =    -0.00198676    0.00015296   -0.00017537
     atom   45 type  4   force =    -0.00020485   -0.00145488    0.00149476
     atom   46 type  4   force =    -0.00020185    0.00142906   -0.00148167
     atom   47 type  4   force =     0.00020185   -0.00142906   -0.00148167
     atom   48 type  4   force =     0.00020485    0.00145488    0.00149476
     atom   49 type  3   force =     0.00033289   -0.00030439   -0.00011362
     atom   50 type  3   force =     0.00033487    0.00029021    0.00011830
     atom   51 type  3   force =    -0.00033487   -0.00029021    0.00011830
     atom   52 type  3   force =    -0.00033289    0.00030439   -0.00011362
     atom   53 type  3   force =    -0.00003275   -0.00020539   -0.00045299
     atom   54 type  3   force =    -0.00003421    0.00020740    0.00046347
     atom   55 type  3   force =     0.00003421   -0.00020740    0.00046347
     atom   56 type  3   force =     0.00003275    0.00020539   -0.00045299
     atom   57 type  3   force =     0.00086987   -0.00045499   -0.00037927
     atom   58 type  3   force =     0.00087258    0.00044580    0.00038596
     atom   59 type  3   force =    -0.00087258   -0.00044580    0.00038596
     atom   60 type  3   force =    -0.00086987    0.00045499   -0.00037927
     atom   61 type  3   force =     0.00001101    0.00024599    0.00001187
     atom   62 type  3   force =     0.00001117   -0.00023255   -0.00001123
     atom   63 type  3   force =    -0.00001117    0.00023255   -0.00001123
     atom   64 type  3   force =    -0.00001101   -0.00024599    0.00001187
     atom   65 type  3   force =    -0.00037282    0.00038710    0.00019511
     atom   66 type  3   force =    -0.00036804   -0.00038190   -0.00020050
     atom   67 type  3   force =     0.00036804    0.00038190   -0.00020050
     atom   68 type  3   force =     0.00037282   -0.00038710    0.00019511
     atom   69 type  3   force =    -0.00044212    0.00045067   -0.00107590
     atom   70 type  3   force =    -0.00044565   -0.00045806    0.00107691
     atom   71 type  3   force =     0.00044565    0.00045806    0.00107691
     atom   72 type  3   force =     0.00044212   -0.00045067   -0.00107590
     atom   73 type  3   force =     0.00036304   -0.00011190   -0.00036941
     atom   74 type  3   force =     0.00036266    0.00010827    0.00037931
     atom   75 type  3   force =    -0.00036266   -0.00010827    0.00037931
     atom   76 type  3   force =    -0.00036304    0.00011190   -0.00036941
     atom   77 type  3   force =    -0.00032894    0.00011008   -0.00012022
     atom   78 type  3   force =    -0.00032853   -0.00010106    0.00011767
     atom   79 type  3   force =     0.00032853    0.00010106    0.00011767
     atom   80 type  3   force =     0.00032894   -0.00011008   -0.00012022

     Total force =     0.015427     Total SCF correction =     0.000180


     Computing stress (Cartesian axis) and pressure

          total   stress  (Ry/bohr**3)                   (kbar)     P=   -2.59
  -0.00002183   0.00000003   0.00000000         -3.21      0.01      0.00
   0.00000003  -0.00001585   0.00000000          0.01     -2.33      0.00
   0.00000000   0.00000000  -0.00001511          0.00      0.00     -2.22


     Writing output data file scf.save
 
     init_run     :     27.75s CPU     29.27s WALL (       1 calls)
     electrons    :   1282.21s CPU   1341.72s WALL (       1 calls)
     forces       :     12.17s CPU     12.33s WALL (       1 calls)
     stress       :     78.98s CPU     79.29s WALL (       1 calls)

     Called by init_run:
     wfcinit      :     22.54s CPU     23.78s WALL (       1 calls)
     potinit      :      1.88s CPU      1.92s WALL (       1 calls)

     Called by electrons:
     c_bands      :   1142.39s CPU   1194.48s WALL (      22 calls)
     sum_band     :    125.06s CPU    130.91s WALL (      22 calls)
     v_of_rho     :      2.08s CPU      2.31s WALL (      23 calls)
     newd         :      3.87s CPU      5.12s WALL (      23 calls)
     PAW_pot      :      7.97s CPU      7.98s WALL (      23 calls)
     mix_rho      :      0.60s CPU      0.66s WALL (      22 calls)

     Called by c_bands:
     init_us_2    :     11.07s CPU     11.09s WALL (     470 calls)
     cegterg      :   1103.43s CPU   1155.43s WALL (     220 calls)

     Called by sum_band:
     sum_band:bec :      0.09s CPU      0.09s WALL (     220 calls)
     addusdens    :      4.33s CPU      5.50s WALL (      22 calls)

     Called by *egterg:
     h_psi        :    660.73s CPU    699.09s WALL (     961 calls)
     s_psi        :    111.07s CPU    111.14s WALL (     961 calls)
     g_psi        :      5.40s CPU      5.40s WALL (     731 calls)
     cdiaghg      :     62.10s CPU     62.18s WALL (     951 calls)

     Called by h_psi:
     h_psi:pot    :    654.66s CPU    692.93s WALL (     961 calls)
     h_psi:calbec :    104.03s CPU    104.42s WALL (     961 calls)
     vloc_psi     :    439.57s CPU    477.38s WALL (     961 calls)
     add_vuspsi   :    111.06s CPU    111.13s WALL (     961 calls)

     General routines
     calbec       :    147.81s CPU    148.34s WALL (    1231 calls)
     fft          :      1.26s CPU      1.69s WALL (     323 calls)
     fftw         :    469.72s CPU    508.44s WALL (  223718 calls)
 
     Parallel routines
     fft_scatter  :    105.51s CPU    131.88s WALL (  224041 calls)
 
     PWSCF        : 23m30.00s CPU    25m16.88s WALL

 
   This run was terminated on:   2:29:55   4Nov2017            

=------------------------------------------------------------------------------=
   JOB DONE.
=------------------------------------------------------------------------------=
