
     Program PWSCF v.6.1 (svn rev. 13369) starts on  3Nov2017 at 21:24:25 

     This program is part of the open-source Quantum ESPRESSO suite
     for quantum simulation of materials; please cite
         "P. Giannozzi et al., J. Phys.:Condens. Matter 21 395502 (2009);
          URL http://www.quantum-espresso.org", 
     in publications or presentations arising from this work. More details at
     http://www.quantum-espresso.org/quote

     Parallel version (MPI), running on     8 processors
     R & G space division:  proc/nbgrp/npool/nimage =       8
     Waiting for input...
     Reading input from standard input

     Current dimensions of program PWSCF are:
     Max number of different atomic species (ntypx) = 10
     Max number of k-points (npk) =  40000
     Max angular momentum in pseudopotentials (lmaxx) =  3
               file C.pbe-n-kjpaw_psl.0.1.UPF: wavefunction(s)  2P renormalized
               file N.pbe-n-kjpaw_psl.0.1.UPF: wavefunction(s)  2P renormalized
               file H.pbe-kjpaw_psl.0.1.UPF: wavefunction(s)  1S renormalized
               file O.pbe-n-kjpaw_psl.0.1.UPF: wavefunction(s)  2P renormalized

     -------------------------------------
     Parameters for Dispersion Correction:
     -------------------------------------
       atom      VdW radius       C_6     

        C          2.744         60.710
        N          2.640         42.670
        H          1.892          4.857
        O          2.536         24.284

     Subspace diagonalization in iterative solution of the eigenvalue problem:
     a serial algorithm will be used

 
     Parallelization info
     --------------------
     sticks:   dense  smooth     PW     G-vecs:    dense   smooth      PW
     Min         533     533    145                46729    46729    6654
     Max         534     534    146                46733    46733    6660
     Sum        4271    4271   1165               373855   373855   53259
 


     bravais-lattice index     =            0
     lattice parameter (alat)  =       9.0612  a.u.
     unit-cell volume          =    2766.8234 (a.u.)^3
     number of atoms/cell      =           48
     number of atomic types    =            4
     number of electrons       =       108.00
     number of Kohn-Sham states=           64
     kinetic-energy cutoff     =     100.0000  Ry
     charge density cutoff     =     400.0000  Ry
     convergence threshold     =      1.0E-08
     mixing beta               =       0.5000
     number of iterations used =            8  plain     mixing
     Exchange-correlation      =  SLA  PW   PBX  PBC ( 1  4  3  4 0 0)

     celldm(1)=   9.061237  celldm(2)=   0.000000  celldm(3)=   0.000000
     celldm(4)=   0.000000  celldm(5)=   0.000000  celldm(6)=   0.000000

     crystal axes: (cart. coord. in units of alat)
               a(1) = (   1.000000   0.000000   0.000000 )  
               a(2) = (   0.377850   1.634046   0.000000 )  
               a(3) = (   0.172441   0.506024   2.275908 )  

     reciprocal axes: (cart. coord. in units 2 pi/alat)
               b(1) = (  1.000000 -0.231236 -0.024355 )  
               b(2) = (  0.000000  0.611978 -0.136067 )  
               b(3) = (  0.000000  0.000000  0.439385 )  


     PseudoPot. # 1 for  C read from file:
     /scratch/ahofstet/pseudo/C.pbe-n-kjpaw_psl.0.1.UPF
     MD5 check sum: 430fe95172b1e11ef3f8ed03bac87931
     Pseudo is Projector augmented-wave + core cor, Zval =  4.0
     Generated using "atomic" code by A. Dal Corso  v.5.0.99 svn rev. 10869
     Shape of augmentation charge: BESSEL
     Using radial grid of 1073 points,  4 beta functions with: 
                l(1) =   0
                l(2) =   0
                l(3) =   1
                l(4) =   1
     Q(r) pseudized with 0 coefficients 


     PseudoPot. # 2 for  N read from file:
     /scratch/ahofstet/pseudo/N.pbe-n-kjpaw_psl.0.1.UPF
     MD5 check sum: f73187c8b701007e77325f868c9291d7
     Pseudo is Projector augmented-wave + core cor, Zval =  5.0
     Generated using "atomic" code by A. Dal Corso  v.5.0.99 svn rev. 10869
     Shape of augmentation charge: PSQ
     Using radial grid of 1085 points,  4 beta functions with: 
                l(1) =   0
                l(2) =   0
                l(3) =   1
                l(4) =   1
     Q(r) pseudized with 0 coefficients 


     PseudoPot. # 3 for  H read from file:
     /scratch/ahofstet/pseudo/H.pbe-kjpaw_psl.0.1.UPF
     MD5 check sum: 94e484f906d9e9773b2f6e52662335b2
     Pseudo is Projector augmented-wave, Zval =  1.0
     Generated using "atomic" code by A. Dal Corso  v.5.0.99 svn rev. 10869
     Shape of augmentation charge: PSQ
     Using radial grid of  929 points,  2 beta functions with: 
                l(1) =   0
                l(2) =   0
     Q(r) pseudized with 0 coefficients 


     PseudoPot. # 4 for  O read from file:
     /scratch/ahofstet/pseudo/O.pbe-n-kjpaw_psl.0.1.UPF
     MD5 check sum: 3f94a2996a3169367d6eb21d9b593f20
     Pseudo is Projector augmented-wave + core cor, Zval =  6.0
     Generated using "atomic" code by A. Dal Corso  v.5.0.99 svn rev. 10869
     Shape of augmentation charge: BESSEL
     Using radial grid of 1095 points,  4 beta functions with: 
                l(1) =   0
                l(2) =   0
                l(3) =   1
                l(4) =   1
     Q(r) pseudized with 0 coefficients 


     atomic species   valence    mass     pseudopotential
        C              4.00    12.01070      C( 1.00)
        N              5.00    14.00670      N( 1.00)
        H              1.00     1.00794      H( 1.00)
        O              6.00    15.99940      O( 1.00)

      2 Sym. Ops., with inversion, found



   Cartesian axes

     site n.     atom                  positions (alat units)
         1           N   tau(   1) = (   0.6799317   1.0258799   1.6702311  )
         2           N   tau(   2) = (   0.8703593   1.1141902   0.6056766  )
         3           H   tau(   3) = (   0.5428160   1.1823863   1.6139483  )
         4           H   tau(   4) = (   1.0074750   0.9576838   0.6619594  )
         5           C   tau(   5) = (   0.6753098   1.0150469   1.9816045  )
         6           C   tau(   6) = (   0.8749812   1.1250232   0.2943031  )
         7           H   tau(   7) = (   0.5191804   1.1443608   2.0859405  )
         8           H   tau(   8) = (   1.0311106   0.9957093   0.1899672  )
         9           H   tau(   9) = (   0.7084502   0.8088153   2.0714142  )
        10           H   tau(  10) = (   0.8418408   1.3312548   0.2044935  )
        11           C   tau(  11) = (   0.9049227   1.1579931   1.8337882  )
        12           C   tau(  12) = (   0.6453683   0.9820770   0.4421195  )
        13           H   tau(  13) = (   0.9114929   1.3849589   1.8370458  )
        14           H   tau(  14) = (   0.6387981   0.7551112   0.4388619  )
        15           H   tau(  15) = (   1.1141596   1.0556151   1.8183258  )
        16           H   tau(  16) = (   0.4361314   1.0844550   0.4575819  )
        17           N   tau(  17) = (   0.3842610   0.5234764   1.3952722  )
        18           N   tau(  18) = (   1.1660300   1.6165937   0.8806355  )
        19           H   tau(  19) = (   0.5079011   0.6569689   1.5107276  )
        20           H   tau(  20) = (   1.0423899   1.4831012   0.7651800  )
        21           C   tau(  21) = (   0.4440267   0.5801488   1.0953713  )
        22           C   tau(  22) = (   1.1062643   1.5599213   1.1805364  )
        23           H   tau(  23) = (   0.6105218   0.7302561   1.0514150  )
        24           H   tau(  24) = (   0.9397692   1.4098140   1.2244926  )
        25           H   tau(  25) = (   0.4361742   0.4006554   0.9566389  )
        26           H   tau(  26) = (   1.1141169   1.7394147   1.3192687  )
        27           C   tau(  27) = (   1.1893306   0.6926377   1.2278647  )
        28           C   tau(  28) = (   0.3609604   1.4474324   1.0480430  )
        29           H   tau(  29) = (   1.1761947   0.9152617   1.2741070  )
        30           H   tau(  30) = (   0.3740963   1.2248084   1.0018007  )
        31           H   tau(  31) = (   0.9845024   0.5937966   1.1799192  )
        32           H   tau(  32) = (   0.5657887   1.5462735   1.0959885  )
        33           N   tau(  33) = (   0.4996124   1.6954073   1.7393551  )
        34           N   tau(  34) = (   1.0506786   0.4446628   0.5365525  )
        35           H   tau(  35) = (   0.6154140   1.7885088   1.5825276  )
        36           H   tau(  36) = (   0.9348770   0.3515613   0.6933800  )
        37           C   tau(  37) = (   1.3132310   1.9135081   1.8490625  )
        38           C   tau(  38) = (   0.2370600   0.2265620   0.4268452  )
        39           H   tau(  39) = (   0.9261634   0.4762835   1.7338665  )
        40           H   tau(  40) = (   0.6241276   1.6637866   0.5420412  )
        41           H   tau(  41) = (   1.1087277   1.8412284   1.9319941  )
        42           H   tau(  42) = (   0.4415633   0.2988417   0.3439135  )
        43           C   tau(  43) = (   0.5724417   1.8456378   2.0020843  )
        44           C   tau(  44) = (   0.9778493   0.2944323   0.2738234  )
        45           H   tau(  45) = (   0.7390420   2.0015457   1.9894819  )
        46           H   tau(  46) = (   0.8112490   0.1385244   0.2864258  )
        47           H   tau(  47) = (   0.5691257   1.7212614   2.1922920  )
        48           H   tau(  48) = (   0.9811653   0.4188087   0.0836157  )

     number of k points=    14
                       cart. coord. in units 2pi/alat
        k(    1) = (   0.0000000   0.0000000   0.0000000), wk =   0.0833333
        k(    2) = (   0.0000000   0.0000000  -0.2196926), wk =   0.0833333
        k(    3) = (   0.0000000   0.2039926  -0.0453556), wk =   0.1666667
        k(    4) = (   0.0000000   0.2039926  -0.2650481), wk =   0.1666667
        k(    5) = (   0.2500000  -0.0578090  -0.0060888), wk =   0.1666667
        k(    6) = (   0.2500000  -0.0578090  -0.2257813), wk =   0.1666667
        k(    7) = (   0.2500000   0.1461836  -0.0514444), wk =   0.1666667
        k(    8) = (   0.2500000   0.1461836  -0.2711369), wk =   0.1666667
        k(    9) = (   0.2500000  -0.2618016   0.0392668), wk =   0.1666667
        k(   10) = (   0.2500000  -0.2618016  -0.1804258), wk =   0.1666667
        k(   11) = (  -0.5000000   0.1156179   0.0121776), wk =   0.0833333
        k(   12) = (  -0.5000000   0.1156179  -0.2075150), wk =   0.0833333
        k(   13) = (  -0.5000000   0.3196105  -0.0331780), wk =   0.1666667
        k(   14) = (  -0.5000000   0.3196105  -0.2528706), wk =   0.1666667

     Dense  grid:   373855 G-vectors     FFT dimensions: (  60, 100, 135)

     Estimated max dynamical RAM per process >     179.41MB

     Estimated total allocated dynamical RAM >    1435.29MB

     Check: negative/imaginary core charge=   -0.000002    0.000000

     Initial potential from superposition of free atoms

     starting charge  107.99917, renormalised to  108.00000
     Starting wfc are  102 randomized atomic wfcs
     Checking if some PAW data can be deallocated... 

     total cpu time spent up to now is       12.9 secs

     per-process dynamical memory:   203.0 Mb

     Self-consistent Calculation

     iteration #  1     ecut=   100.00 Ry     beta=0.50
     Davidson diagonalization with overlap
     ethr =  1.00E-02,  avg # of iterations =  3.0

     total cpu time spent up to now is       33.7 secs

     total energy              =    -425.05761548 Ry
     Harris-Foulkes estimate   =    -427.39809889 Ry
     estimated scf accuracy    <       4.60707881 Ry

     iteration #  2     ecut=   100.00 Ry     beta=0.50
     Davidson diagonalization with overlap
     ethr =  4.27E-03,  avg # of iterations =  3.0

     total cpu time spent up to now is       45.9 secs

     total energy              =    -425.33899093 Ry
     Harris-Foulkes estimate   =    -425.55946053 Ry
     estimated scf accuracy    <       0.49714423 Ry

     iteration #  3     ecut=   100.00 Ry     beta=0.50
     Davidson diagonalization with overlap
     ethr =  4.60E-04,  avg # of iterations =  5.1

     total cpu time spent up to now is       68.5 secs

     total energy              =    -425.80233638 Ry
     Harris-Foulkes estimate   =    -426.01994896 Ry
     estimated scf accuracy    <       0.62410101 Ry

     iteration #  4     ecut=   100.00 Ry     beta=0.50
     Davidson diagonalization with overlap
     ethr =  4.60E-04,  avg # of iterations =  3.4

     total cpu time spent up to now is       80.2 secs

     total energy              =    -425.64261999 Ry
     Harris-Foulkes estimate   =    -425.82107961 Ry
     estimated scf accuracy    <       0.24286660 Ry

     iteration #  5     ecut=   100.00 Ry     beta=0.50
     Davidson diagonalization with overlap
     ethr =  2.25E-04,  avg # of iterations =  4.1

     total cpu time spent up to now is      103.2 secs

     total energy              =    -425.68941191 Ry
     Harris-Foulkes estimate   =    -426.04681412 Ry
     estimated scf accuracy    <       0.70793897 Ry

     iteration #  6     ecut=   100.00 Ry     beta=0.50
     Davidson diagonalization with overlap
     ethr =  2.25E-04,  avg # of iterations =  5.6

     total cpu time spent up to now is      120.4 secs

     total energy              =    -425.79911583 Ry
     Harris-Foulkes estimate   =    -425.80297726 Ry
     estimated scf accuracy    <       0.00980707 Ry

     iteration #  7     ecut=   100.00 Ry     beta=0.50
     Davidson diagonalization with overlap
     ethr =  9.08E-06,  avg # of iterations = 10.7

     total cpu time spent up to now is      143.2 secs

     total energy              =    -425.81952237 Ry
     Harris-Foulkes estimate   =    -425.82023323 Ry
     estimated scf accuracy    <       0.00134591 Ry

     iteration #  8     ecut=   100.00 Ry     beta=0.50
     Davidson diagonalization with overlap
     c_bands:  1 eigenvalues not converged
     ethr =  1.25E-06,  avg # of iterations =  7.1

     total cpu time spent up to now is      158.9 secs

     total energy              =    -425.81977637 Ry
     Harris-Foulkes estimate   =    -425.81980189 Ry
     estimated scf accuracy    <       0.00012121 Ry

     iteration #  9     ecut=   100.00 Ry     beta=0.50
     Davidson diagonalization with overlap
     ethr =  1.12E-07,  avg # of iterations =  4.4

     total cpu time spent up to now is      178.1 secs

     total energy              =    -425.81989656 Ry
     Harris-Foulkes estimate   =    -425.81990137 Ry
     estimated scf accuracy    <       0.00001373 Ry

     iteration # 10     ecut=   100.00 Ry     beta=0.50
     Davidson diagonalization with overlap
     ethr =  1.27E-08,  avg # of iterations =  3.1

     total cpu time spent up to now is      191.7 secs

     total energy              =    -425.81989864 Ry
     Harris-Foulkes estimate   =    -425.81989904 Ry
     estimated scf accuracy    <       0.00000188 Ry

     iteration # 11     ecut=   100.00 Ry     beta=0.50
     Davidson diagonalization with overlap
     ethr =  1.74E-09,  avg # of iterations =  4.0

     total cpu time spent up to now is      212.1 secs

     total energy              =    -425.81989903 Ry
     Harris-Foulkes estimate   =    -425.81990038 Ry
     estimated scf accuracy    <       0.00000347 Ry

     iteration # 12     ecut=   100.00 Ry     beta=0.50
     Davidson diagonalization with overlap
     ethr =  1.74E-09,  avg # of iterations =  3.0

     total cpu time spent up to now is      224.3 secs

     total energy              =    -425.81989881 Ry
     Harris-Foulkes estimate   =    -425.81989927 Ry
     estimated scf accuracy    <       0.00000075 Ry

     iteration # 13     ecut=   100.00 Ry     beta=0.50
     Davidson diagonalization with overlap
     ethr =  6.93E-10,  avg # of iterations =  4.0

     total cpu time spent up to now is      244.5 secs

     total energy              =    -425.81989946 Ry
     Harris-Foulkes estimate   =    -425.81989974 Ry
     estimated scf accuracy    <       0.00000098 Ry

     iteration # 14     ecut=   100.00 Ry     beta=0.50
     Davidson diagonalization with overlap
     ethr =  6.93E-10,  avg # of iterations =  1.0

     total cpu time spent up to now is      255.3 secs

     total energy              =    -425.81989922 Ry
     Harris-Foulkes estimate   =    -425.81989948 Ry
     estimated scf accuracy    <       0.00000046 Ry

     iteration # 15     ecut=   100.00 Ry     beta=0.50
     Davidson diagonalization with overlap
     ethr =  4.30E-10,  avg # of iterations =  4.0

     total cpu time spent up to now is      274.2 secs

     total energy              =    -425.81989944 Ry
     Harris-Foulkes estimate   =    -425.81989952 Ry
     estimated scf accuracy    <       0.00000018 Ry

     iteration # 16     ecut=   100.00 Ry     beta=0.50
     Davidson diagonalization with overlap
     ethr =  1.66E-10,  avg # of iterations =  1.0

     total cpu time spent up to now is      285.0 secs

     total energy              =    -425.81989942 Ry
     Harris-Foulkes estimate   =    -425.81989945 Ry
     estimated scf accuracy    <       0.00000005 Ry

     iteration # 17     ecut=   100.00 Ry     beta=0.50
     Davidson diagonalization with overlap
     ethr =  4.46E-11,  avg # of iterations =  4.0

     total cpu time spent up to now is      305.2 secs

     total energy              =    -425.81989947 Ry
     Harris-Foulkes estimate   =    -425.81989948 Ry
     estimated scf accuracy    <       0.00000004 Ry

     iteration # 18     ecut=   100.00 Ry     beta=0.50
     Davidson diagonalization with overlap
     ethr =  4.09E-11,  avg # of iterations =  1.0

     total cpu time spent up to now is      316.0 secs

     total energy              =    -425.81989946 Ry
     Harris-Foulkes estimate   =    -425.81989947 Ry
     estimated scf accuracy    <       0.00000003 Ry

     iteration # 19     ecut=   100.00 Ry     beta=0.50
     Davidson diagonalization with overlap
     ethr =  2.33E-11,  avg # of iterations =  4.1

     total cpu time spent up to now is      333.8 secs

     End of self-consistent calculation

          k = 0.0000 0.0000 0.0000 ( 46775 PWs)   bands (ev):

   -18.6096 -18.5954 -18.3738 -18.3417 -18.2505 -18.2403 -11.0016 -10.9069
   -10.7424 -10.7327 -10.5723 -10.4963  -9.6683  -9.5861  -9.4309  -9.4119
    -9.4072  -9.1500  -7.6526  -7.5492  -7.4709  -7.3411  -7.2594  -7.1489
    -6.2891  -6.1806  -6.0597  -5.9036  -5.8428  -5.5780  -4.0616  -3.8743
    -3.8475  -3.7600  -3.7016  -3.5664  -3.2347  -3.2063  -2.9888  -2.9584
    -2.8411  -2.7637  -2.7195  -2.6570  -2.6016  -2.5458  -2.4425  -2.3957
    -1.1720  -1.1138  -0.9592  -0.9255  -0.1722  -0.1627   4.8623   5.2880
     5.4970   5.7724   6.2261   6.2773   6.6420   6.7346   6.8207   6.9089

          k = 0.0000 0.0000-0.2197 ( 46736 PWs)   bands (ev):

   -18.6029 -18.6018 -18.3769 -18.3397 -18.2483 -18.2416 -11.0529 -10.8732
   -10.7080 -10.6488 -10.6024 -10.5712  -9.6525  -9.6027  -9.4317  -9.4247
    -9.3804  -9.1646  -7.6261  -7.5593  -7.4512  -7.3182  -7.3108  -7.1481
    -6.2679  -6.1913  -6.0843  -5.9275  -5.8106  -5.5746  -4.0798  -3.8893
    -3.8450  -3.7424  -3.6326  -3.6186  -3.2331  -3.2068  -3.0082  -2.9278
    -2.8532  -2.7722  -2.6821  -2.6652  -2.5862  -2.5535  -2.4656  -2.4073
    -1.1282  -1.0929  -1.0764  -0.8794  -0.1717  -0.1539   4.9458   5.3793
     5.5768   5.5866   5.9732   6.3290   6.4985   6.7218   6.7481   7.2274

          k = 0.0000 0.2040-0.0454 ( 46737 PWs)   bands (ev):

   -18.6012 -18.5918 -18.3882 -18.3518 -18.2431 -18.2361 -10.9703 -10.9056
   -10.7997 -10.7340 -10.5348 -10.5007  -9.6667  -9.5991  -9.4250  -9.4113
    -9.3649  -9.1855  -7.6554  -7.5598  -7.4526  -7.3753  -7.2483  -7.1245
    -6.2883  -6.1937  -6.0698  -5.9169  -5.8350  -5.6058  -4.0572  -3.8745
    -3.8272  -3.7690  -3.6942  -3.5559  -3.2087  -3.1801  -2.9416  -2.9363
    -2.8676  -2.8045  -2.7547  -2.6733  -2.6373  -2.5643  -2.4448  -2.3433
    -1.3943  -1.1222  -0.8109  -0.6755  -0.3002  -0.1605   4.9947   5.2093
     5.4690   5.7915   5.9946   6.3297   6.4363   6.6038   6.9398   7.2242

          k = 0.0000 0.2040-0.2650 ( 46772 PWs)   bands (ev):

   -18.5967 -18.5961 -18.3880 -18.3530 -18.2422 -18.2361 -11.0087 -10.9034
   -10.7668 -10.6137 -10.6016 -10.5583  -9.6419  -9.6210  -9.4318  -9.3864
    -9.3708  -9.1979  -7.6378  -7.5390  -7.4500  -7.3847  -7.2720  -7.1295
    -6.2574  -6.2108  -6.0848  -5.9319  -5.8302  -5.5945  -4.0403  -3.8978
    -3.8628  -3.7334  -3.6678  -3.5702  -3.2109  -3.1839  -2.9907  -2.8902
    -2.8653  -2.7976  -2.7834  -2.6294  -2.5924  -2.5733  -2.4862  -2.3593
    -1.3284  -1.2127  -0.7835  -0.6711  -0.2971  -0.1716   5.0533   5.2795
     5.4791   5.6517   6.0966   6.2950   6.3857   6.6388   6.7061   7.1420

          k = 0.2500-0.0578-0.0061 ( 46720 PWs)   bands (ev):

   -18.5909 -18.5816 -18.3594 -18.3326 -18.2473 -18.2302 -10.9886 -10.9100
   -10.7417 -10.6740 -10.6104 -10.4266  -9.8116  -9.7833  -9.6934  -9.6225
    -9.5307  -9.3883  -7.5908  -7.5444  -7.4441  -7.2836  -7.1882  -6.9906
    -6.1897  -6.1518  -5.9906  -5.9373  -5.7808  -5.6225  -3.8359  -3.6684
    -3.6176  -3.5516  -3.4895  -3.3761  -3.1778  -3.1662  -3.0774  -2.9403
    -2.9167  -2.8621  -2.7276  -2.6543  -2.5913  -2.5276  -2.4314  -2.3876
    -1.0933  -1.0150  -0.9137  -0.8362  -0.2336  -0.0804   5.1419   5.1927
     5.5691   5.9133   6.3035   6.3853   6.5295   6.7808   6.9185   6.9687

          k = 0.2500-0.0578-0.2258 ( 46741 PWs)   bands (ev):

   -18.5867 -18.5856 -18.3607 -18.3321 -18.2471 -18.2297 -11.0122 -10.9030
   -10.6864 -10.6631 -10.6190 -10.4771  -9.8299  -9.7528  -9.7027  -9.6028
    -9.5338  -9.4001  -7.6136  -7.4796  -7.4750  -7.2784  -7.1954  -6.9980
    -6.1756  -6.1458  -6.0415  -5.8991  -5.8078  -5.6013  -3.8476  -3.6807
    -3.6265  -3.5546  -3.4245  -3.4080  -3.1965  -3.1377  -3.0253  -2.9733
    -2.9221  -2.8296  -2.8064  -2.6959  -2.5356  -2.5242  -2.4345  -2.3765
    -1.0736  -0.9987  -0.9789  -0.8131  -0.2231  -0.0862   5.2155   5.2750
     5.6660   5.6956   6.1506   6.2775   6.6295   6.7494   6.7844   7.0858

          k = 0.2500 0.1462-0.0514 ( 46738 PWs)   bands (ev):

   -18.5877 -18.5804 -18.3678 -18.3395 -18.2471 -18.2191 -10.9823 -10.9206
   -10.7782 -10.6404 -10.5760 -10.4595  -9.8540  -9.7801  -9.7016  -9.6080
    -9.5142  -9.3774  -7.5664  -7.4837  -7.4083  -7.3302  -7.1918  -7.0345
    -6.2249  -6.1064  -5.9874  -5.9078  -5.8108  -5.6014  -3.8262  -3.7708
    -3.6264  -3.5680  -3.5169  -3.3849  -3.2134  -3.1501  -3.0882  -2.9446
    -2.8476  -2.8151  -2.7227  -2.6547  -2.6112  -2.5500  -2.4137  -2.3779
    -1.2284  -1.0556  -0.7425  -0.6772  -0.2443  -0.2325   5.1208   5.4081
     5.7223   5.7898   6.0007   6.4111   6.4935   6.6375   6.9104   6.9766

          k = 0.2500 0.1462-0.2711 ( 46713 PWs)   bands (ev):

   -18.5844 -18.5836 -18.3677 -18.3403 -18.2468 -18.2189 -11.0012 -10.9073
   -10.7589 -10.6383 -10.5520 -10.5057  -9.8254  -9.7997  -9.7174  -9.5906
    -9.5243  -9.3737  -7.5538  -7.4448  -7.4127  -7.3299  -7.2443  -7.0319
    -6.1887  -6.1254  -6.0277  -5.9175  -5.7831  -5.5901  -3.8213  -3.7694
    -3.6444  -3.5911  -3.4920  -3.3780  -3.2481  -3.1237  -3.0451  -2.9525
    -2.8747  -2.8093  -2.7198  -2.6941  -2.5750  -2.5506  -2.4280  -2.3610
    -1.2044  -1.1068  -0.7252  -0.6704  -0.2452  -0.2343   5.1893   5.3877
     5.6339   5.7041   6.1153   6.4619   6.5278   6.7196   6.7764   6.9316

          k = 0.2500-0.2618 0.0393 ( 46736 PWs)   bands (ev):

   -18.5844 -18.5786 -18.3704 -18.3424 -18.2428 -18.2239 -10.9715 -10.9084
   -10.7778 -10.6760 -10.5814 -10.4343  -9.8430  -9.7785  -9.6979  -9.6078
    -9.4997  -9.3993  -7.5670  -7.5090  -7.4286  -7.2600  -7.2448  -7.0355
    -6.2226  -6.1480  -6.0071  -5.9113  -5.7976  -5.5944  -3.8283  -3.7247
    -3.6501  -3.5698  -3.4507  -3.4021  -3.2093  -3.0901  -3.0629  -2.9292
    -2.8826  -2.8285  -2.7851  -2.6330  -2.5860  -2.5580  -2.4380  -2.3668
    -1.2691  -1.0564  -0.7554  -0.6104  -0.3271  -0.1324   5.1908   5.3278
     5.4692   5.9065   6.0936   6.1952   6.5071   6.7640   6.8402   6.9277

          k = 0.2500-0.2618-0.1804 ( 46714 PWs)   bands (ev):

   -18.5822 -18.5808 -18.3692 -18.3441 -18.2439 -18.2224 -10.9757 -10.9194
   -10.7636 -10.6532 -10.5769 -10.4642  -9.8505  -9.7826  -9.6763  -9.5952
    -9.5189  -9.4006  -7.5554  -7.4904  -7.4345  -7.3039  -7.2313  -7.0310
    -6.1895  -6.1362  -6.0702  -5.9041  -5.8005  -5.5764  -3.8373  -3.7366
    -3.6361  -3.5659  -3.4320  -3.3875  -3.1913  -3.1231  -3.0140  -3.0063
    -2.8962  -2.8212  -2.7893  -2.6714  -2.5478  -2.5263  -2.4539  -2.3593
    -1.2237  -1.1279  -0.7365  -0.6101  -0.3130  -0.1425   5.2106   5.3864
     5.5155   5.7221   6.1946   6.3829   6.4914   6.6715   6.8074   6.8830

          k =-0.5000 0.1156 0.0122 ( 46696 PWs)   bands (ev):

   -18.5707 -18.5688 -18.3422 -18.3253 -18.2449 -18.2202 -10.9955 -10.9231
   -10.6884 -10.6562 -10.5946 -10.3747  -9.9805  -9.9325  -9.8655  -9.8323
    -9.6858  -9.5952  -7.4982  -7.4754  -7.4050  -7.2237  -7.2069  -6.9631
    -6.1100  -6.0692  -6.0238  -5.9099  -5.8398  -5.5992  -3.6191  -3.5285
    -3.4174  -3.4089  -3.3438  -3.2109  -3.1613  -3.0651  -3.0425  -3.0187
    -2.9175  -2.9016  -2.7374  -2.6497  -2.5489  -2.4899  -2.3489  -2.2978
    -0.9500  -0.8896  -0.8144  -0.7491  -0.2841  -0.0570   5.3275   5.3983
     5.6478   5.8529   5.9747   6.0229   6.3678   6.4713   6.4887   6.7277

          k =-0.5000 0.1156-0.2075 ( 46736 PWs)   bands (ev):

   -18.5707 -18.5688 -18.3403 -18.3273 -18.2457 -18.2193 -10.9661 -10.9519
   -10.6929 -10.6836 -10.5399 -10.4023 -10.0175  -9.8894  -9.8482  -9.8158
    -9.7243  -9.5950  -7.4896  -7.4446  -7.4221  -7.2742  -7.1715  -6.9662
    -6.1132  -6.0941  -5.9715  -5.9673  -5.7901  -5.6118  -3.6670  -3.5295
    -3.4506  -3.4070  -3.2627  -3.2072  -3.1528  -3.0659  -3.0363  -2.9784
    -2.9327  -2.9022  -2.8016  -2.7317  -2.4772  -2.4684  -2.3709  -2.2630
    -0.9705  -0.8715  -0.8036  -0.7647  -0.2757  -0.0639   5.2277   5.5004
     5.5557   5.8592   5.9419   6.0723   6.3845   6.5661   6.6574   6.8990

          k =-0.5000 0.3196-0.0332 ( 46687 PWs)   bands (ev):

   -18.5697 -18.5681 -18.3458 -18.3335 -18.2447 -18.2097 -11.0010 -10.9240
   -10.7248 -10.6573 -10.5303 -10.3992 -10.0205  -9.9458  -9.8703  -9.8010
    -9.6906  -9.5784  -7.4627  -7.4403  -7.3810  -7.2740  -7.1758  -6.9649
    -6.0909  -6.0560  -6.0015  -5.9491  -5.8292  -5.6246  -3.7050  -3.5897
    -3.4857  -3.4377  -3.3840  -3.2355  -3.1595  -3.1263  -2.9917  -2.9030
    -2.8694  -2.8216  -2.7562  -2.6547  -2.5140  -2.4931  -2.3454  -2.3168
    -1.0089  -0.9792  -0.6656  -0.6131  -0.3396  -0.1682   5.2575   5.4569
     5.6449   5.8663   5.9882   6.0591   6.3200   6.4747   6.6662   6.7557

          k =-0.5000 0.3196-0.2529 ( 46685 PWs)   bands (ev):

   -18.5699 -18.5679 -18.3441 -18.3351 -18.2456 -18.2089 -10.9655 -10.9564
   -10.7406 -10.6513 -10.5144 -10.4154 -10.0142  -9.9517  -9.8722  -9.7763
    -9.7047  -9.5798  -7.4572  -7.4341  -7.3830  -7.2720  -7.1929  -6.9619
    -6.1242  -6.0865  -5.9635  -5.9225  -5.8153  -5.6325  -3.7240  -3.5927
    -3.5588  -3.4405  -3.2698  -3.2125  -3.1404  -3.0862  -2.9835  -2.9613
    -2.8658  -2.8092  -2.7954  -2.7602  -2.4804  -2.4741  -2.3483  -2.2870
    -1.0552  -0.9440  -0.6737  -0.6075  -0.3267  -0.1718   5.3393   5.5242
     5.5984   5.7667   5.9135   6.1162   6.3400   6.4435   6.5477   6.7379

     highest occupied, lowest unoccupied level (ev):    -0.0570    4.8623

!    total energy              =    -425.81989946 Ry
     Harris-Foulkes estimate   =    -425.81989947 Ry
     estimated scf accuracy    <          4.0E-09 Ry

     total all-electron energy =     -1606.781793 Ry

     The total energy is the sum of the following terms:

     one-electron contribution =    -212.43866059 Ry
     hartree contribution      =     142.23489801 Ry
     xc contribution           =    -103.66661372 Ry
     ewald contribution        =    -122.28004723 Ry
     Dispersion Correction     =      -0.19690600 Ry
     one-center paw contrib.   =    -129.47256994 Ry

     convergence has been achieved in  19 iterations

     Forces acting on atoms (cartesian axes, Ry/au):

     atom    1 type  2   force =    -0.01134372    0.00486217    0.00781618
     atom    2 type  2   force =     0.01134372   -0.00486217   -0.00781618
     atom    3 type  3   force =     0.00749445   -0.00142999    0.00001828
     atom    4 type  3   force =    -0.00749445    0.00142999   -0.00001828
     atom    5 type  1   force =    -0.00535235    0.00302806   -0.00570061
     atom    6 type  1   force =     0.00535235   -0.00302806    0.00570061
     atom    7 type  3   force =     0.00246551   -0.00035307    0.00065106
     atom    8 type  3   force =    -0.00246551    0.00035307   -0.00065106
     atom    9 type  3   force =     0.00064363   -0.00187083    0.00039263
     atom   10 type  3   force =    -0.00064363    0.00187083   -0.00039263
     atom   11 type  1   force =     0.03650421   -0.01377746   -0.00426348
     atom   12 type  1   force =    -0.03650421    0.01377746    0.00426348
     atom   13 type  3   force =    -0.00132181    0.00169102    0.00098054
     atom   14 type  3   force =     0.00132181   -0.00169102   -0.00098054
     atom   15 type  3   force =    -0.02956112    0.01039426    0.00031200
     atom   16 type  3   force =     0.02956112   -0.01039426   -0.00031200
     atom   17 type  2   force =     0.00758021   -0.00123678   -0.00742388
     atom   18 type  2   force =    -0.00758021    0.00123678    0.00742388
     atom   19 type  3   force =    -0.00231870    0.00166062   -0.00099334
     atom   20 type  3   force =     0.00231870   -0.00166062    0.00099334
     atom   21 type  1   force =     0.00448171    0.00798191    0.00847538
     atom   22 type  1   force =    -0.00448171   -0.00798191   -0.00847538
     atom   23 type  3   force =    -0.00370621   -0.00279884   -0.00121433
     atom   24 type  3   force =     0.00370621    0.00279884    0.00121433
     atom   25 type  3   force =    -0.00250894   -0.00031079   -0.00020544
     atom   26 type  3   force =     0.00250894    0.00031079    0.00020544
     atom   27 type  1   force =    -0.03113122   -0.01254146   -0.00644057
     atom   28 type  1   force =     0.03113122    0.01254146    0.00644057
     atom   29 type  3   force =     0.00081926    0.00068928   -0.00121087
     atom   30 type  3   force =    -0.00081926   -0.00068928    0.00121087
     atom   31 type  3   force =     0.02725008    0.00844352    0.01048158
     atom   32 type  3   force =    -0.02725008   -0.00844352   -0.01048158
     atom   33 type  2   force =     0.00665807    0.00047826    0.01055729
     atom   34 type  2   force =    -0.00665807   -0.00047826   -0.01055729
     atom   35 type  3   force =    -0.00271676    0.00244251    0.00052440
     atom   36 type  3   force =     0.00271676   -0.00244251   -0.00052440
     atom   37 type  1   force =    -0.03117946   -0.00757087    0.00897133
     atom   38 type  1   force =     0.03117946    0.00757087   -0.00897133
     atom   39 type  3   force =     0.00160354   -0.00024868    0.00181185
     atom   40 type  3   force =    -0.00160354    0.00024868   -0.00181185
     atom   41 type  3   force =     0.02666112    0.00325007   -0.01204825
     atom   42 type  3   force =    -0.02666112   -0.00325007    0.01204825
     atom   43 type  1   force =     0.00370130    0.00562120   -0.01260998
     atom   44 type  1   force =    -0.00370130   -0.00562120    0.01260998
     atom   45 type  3   force =    -0.00449432   -0.00344002    0.00217936
     atom   46 type  3   force =     0.00449432    0.00344002   -0.00217936
     atom   47 type  3   force =    -0.00181508   -0.00105068    0.00132766
     atom   48 type  3   force =     0.00181508    0.00105068   -0.00132766

     Total force =     0.123957     Total SCF correction =     0.000128


     Computing stress (Cartesian axis) and pressure

          total   stress  (Ry/bohr**3)                   (kbar)     P=  -12.93
  -0.00007421  -0.00001774   0.00000563        -10.92     -2.61      0.83
  -0.00001774  -0.00009701  -0.00000592         -2.61    -14.27     -0.87
   0.00000563  -0.00000592  -0.00009256          0.83     -0.87    -13.62


     Writing output data file scf.save
 
     init_run     :     11.87s CPU     12.28s WALL (       1 calls)
     electrons    :    311.86s CPU    320.99s WALL (       1 calls)
     forces       :      6.42s CPU      6.45s WALL (       1 calls)
     stress       :     16.09s CPU     16.10s WALL (       1 calls)

     Called by init_run:
     wfcinit      :      6.18s CPU      6.52s WALL (       1 calls)
     potinit      :      2.01s CPU      2.05s WALL (       1 calls)

     Called by electrons:
     c_bands      :    271.84s CPU    279.30s WALL (      19 calls)
     sum_band     :     33.64s CPU     35.08s WALL (      19 calls)
     v_of_rho     :      1.03s CPU      1.13s WALL (      20 calls)
     newd         :      2.09s CPU      2.12s WALL (      20 calls)
     PAW_pot      :      2.73s CPU      2.74s WALL (      20 calls)
     mix_rho      :      0.26s CPU      0.28s WALL (      19 calls)

     Called by c_bands:
     init_us_2    :      4.26s CPU      4.26s WALL (     574 calls)
     cegterg      :    260.69s CPU    268.11s WALL (     266 calls)

     Called by sum_band:
     sum_band:bec :      0.03s CPU      0.03s WALL (     266 calls)
     addusdens    :      2.28s CPU      2.28s WALL (      19 calls)

     Called by *egterg:
     h_psi        :    177.40s CPU    184.96s WALL (    1340 calls)
     s_psi        :     18.72s CPU     18.72s WALL (    1340 calls)
     g_psi        :      1.76s CPU      1.76s WALL (    1060 calls)
     cdiaghg      :     14.57s CPU     14.57s WALL (    1326 calls)

     Called by h_psi:
     h_psi:pot    :    175.66s CPU    183.19s WALL (    1340 calls)
     h_psi:calbec :     16.79s CPU     16.92s WALL (    1340 calls)
     vloc_psi     :    140.30s CPU    147.69s WALL (    1340 calls)
     add_vuspsi   :     18.56s CPU     18.57s WALL (    1340 calls)

     General routines
     calbec       :     23.11s CPU     23.26s WALL (    1676 calls)
     fft          :      0.78s CPU      0.94s WALL (     284 calls)
     fftw         :    148.11s CPU    156.37s WALL (  124622 calls)
 
     Parallel routines
     fft_scatter  :     37.76s CPU     42.73s WALL (  124906 calls)
 
     PWSCF        :  5m49.84s CPU     6m 0.54s WALL

 
   This run was terminated on:  21:30:26   3Nov2017            

=------------------------------------------------------------------------------=
   JOB DONE.
=------------------------------------------------------------------------------=
