
     Program PWSCF v.6.1 (svn rev. 13369) starts on 18Dec2017 at 23:55:37 

     This program is part of the open-source Quantum ESPRESSO suite
     for quantum simulation of materials; please cite
         "P. Giannozzi et al., J. Phys.:Condens. Matter 21 395502 (2009);
          URL http://www.quantum-espresso.org", 
     in publications or presentations arising from this work. More details at
     http://www.quantum-espresso.org/quote

     Parallel version (MPI), running on     8 processors
     R & G space division:  proc/nbgrp/npool/nimage =       8
     Waiting for input...
     Reading input from standard input

     Current dimensions of program PWSCF are:
     Max number of different atomic species (ntypx) = 10
     Max number of k-points (npk) =  40000
     Max angular momentum in pseudopotentials (lmaxx) =  3
               file C.pbe-n-kjpaw_psl.0.1.UPF: wavefunction(s)  2P renormalized
               file N.pbe-n-kjpaw_psl.0.1.UPF: wavefunction(s)  2P renormalized
               file H.pbe-kjpaw_psl.0.1.UPF: wavefunction(s)  1S renormalized
               file O.pbe-n-kjpaw_psl.0.1.UPF: wavefunction(s)  2P renormalized

     -------------------------------------
     Parameters for Dispersion Correction:
     -------------------------------------
       atom      VdW radius       C_6     

        C          2.744         60.710
        N          2.640         42.670
        H          1.892          4.857
        O          2.536         24.284

     Subspace diagonalization in iterative solution of the eigenvalue problem:
     a serial algorithm will be used

 
     Parallelization info
     --------------------
     sticks:   dense  smooth     PW     G-vecs:    dense   smooth      PW
     Min         583     583    156                52376    52376    7330
     Max         584     584    157                52382    52382    7335
     Sum        4669    4669   1253               419027   419027   58657
 


     bravais-lattice index     =            0
     lattice parameter (alat)  =       9.6079  a.u.
     unit-cell volume          =    3101.1622 (a.u.)^3
     number of atoms/cell      =           52
     number of atomic types    =            4
     number of electrons       =       164.00
     number of Kohn-Sham states=           98
     kinetic-energy cutoff     =     100.0000  Ry
     charge density cutoff     =     400.0000  Ry
     convergence threshold     =      1.0E-08
     mixing beta               =       0.5000
     number of iterations used =            8  plain     mixing
     Exchange-correlation      =  SLA  PW   PBX  PBC ( 1  4  3  4 0 0)

     celldm(1)=   9.607935  celldm(2)=   0.000000  celldm(3)=   0.000000
     celldm(4)=   0.000000  celldm(5)=   0.000000  celldm(6)=   0.000000

     crystal axes: (cart. coord. in units of alat)
               a(1) = (   1.000000   0.000000   0.000000 )  
               a(2) = (   0.000000   1.588636   0.000000 )  
               a(3) = (  -0.046641   0.000000   2.200950 )  

     reciprocal axes: (cart. coord. in units 2 pi/alat)
               b(1) = (  1.000000  0.000000  0.021191 )  
               b(2) = (  0.000000  0.629471  0.000000 )  
               b(3) = (  0.000000  0.000000  0.454349 )  


     PseudoPot. # 1 for  C read from file:
     /scratch/ahofstet/pseudo/C.pbe-n-kjpaw_psl.0.1.UPF
     MD5 check sum: 430fe95172b1e11ef3f8ed03bac87931
     Pseudo is Projector augmented-wave + core cor, Zval =  4.0
     Generated using "atomic" code by A. Dal Corso  v.5.0.99 svn rev. 10869
     Shape of augmentation charge: BESSEL
     Using radial grid of 1073 points,  4 beta functions with: 
                l(1) =   0
                l(2) =   0
                l(3) =   1
                l(4) =   1
     Q(r) pseudized with 0 coefficients 


     PseudoPot. # 2 for  N read from file:
     /scratch/ahofstet/pseudo/N.pbe-n-kjpaw_psl.0.1.UPF
     MD5 check sum: f73187c8b701007e77325f868c9291d7
     Pseudo is Projector augmented-wave + core cor, Zval =  5.0
     Generated using "atomic" code by A. Dal Corso  v.5.0.99 svn rev. 10869
     Shape of augmentation charge: PSQ
     Using radial grid of 1085 points,  4 beta functions with: 
                l(1) =   0
                l(2) =   0
                l(3) =   1
                l(4) =   1
     Q(r) pseudized with 0 coefficients 


     PseudoPot. # 3 for  H read from file:
     /scratch/ahofstet/pseudo/H.pbe-kjpaw_psl.0.1.UPF
     MD5 check sum: 94e484f906d9e9773b2f6e52662335b2
     Pseudo is Projector augmented-wave, Zval =  1.0
     Generated using "atomic" code by A. Dal Corso  v.5.0.99 svn rev. 10869
     Shape of augmentation charge: PSQ
     Using radial grid of  929 points,  2 beta functions with: 
                l(1) =   0
                l(2) =   0
     Q(r) pseudized with 0 coefficients 


     PseudoPot. # 4 for  O read from file:
     /scratch/ahofstet/pseudo/O.pbe-n-kjpaw_psl.0.1.UPF
     MD5 check sum: 3f94a2996a3169367d6eb21d9b593f20
     Pseudo is Projector augmented-wave + core cor, Zval =  6.0
     Generated using "atomic" code by A. Dal Corso  v.5.0.99 svn rev. 10869
     Shape of augmentation charge: BESSEL
     Using radial grid of 1095 points,  4 beta functions with: 
                l(1) =   0
                l(2) =   0
                l(3) =   1
                l(4) =   1
     Q(r) pseudized with 0 coefficients 


     atomic species   valence    mass     pseudopotential
        C              4.00    12.01070      C( 1.00)
        N              5.00    14.00670      N( 1.00)
        H              1.00     1.00794      H( 1.00)
        O              6.00    15.99940      O( 1.00)

     No symmetry found



   Cartesian axes

     site n.     atom                  positions (alat units)
         1           O   tau(   1) = (   0.4071601   0.8024789   0.5545250  )
         2           O   tau(   2) = (   0.5461345   0.0080881   1.6464125  )
         3           O   tau(   3) = (   0.2835416   0.8030322   0.9790836  )
         4           O   tau(   4) = (   0.6698056   0.0086128   1.2218732  )
         5           O   tau(   5) = (   0.7727270   0.5032314   0.4030603  )
         6           O   tau(   6) = (   0.1806037   1.2974312   1.7978662  )
         7           O   tau(   7) = (   0.0064419   0.2756596   0.6987601  )
         8           O   tau(   8) = (   0.9469913   1.0697042   1.5021835  )
         9           N   tau(   9) = (   1.0046624   1.1438822   0.4195623  )
        10           N   tau(  10) = (  -0.0513358   0.3494948   1.7813664  )
        11           N   tau(  11) = (   0.8673778   1.1879286   0.8549751  )
        12           N   tau(  12) = (   0.0859497   0.3936198   1.3459655  )
        13           N   tau(  13) = (   0.4409288   1.4968148   0.6785157  )
        14           N   tau(  14) = (   0.5124260   0.7024332   1.5224684  )
        15           C   tau(  15) = (   0.8371967   1.2486166   0.5975827  )
        16           C   tau(  16) = (   0.1161311   0.4542761   1.6033629  )
        17           C   tau(  17) = (   0.6157426   1.3966844   0.5018164  )
        18           C   tau(  18) = (   0.3375980   0.6023013   1.6991542  )
        19           C   tau(  19) = (   0.5791697   1.4129548   0.2291490  )
        20           C   tau(  20) = (   0.3742102   0.6184779   1.9718228  )
        21           H   tau(  21) = (   0.4074211   1.5187673   0.1559985  )
        22           H   tau(  22) = (   0.5459950   0.7242159   2.0449881  )
        23           C   tau(  23) = (   0.7617988   1.2997473   0.0547997  )
        24           C   tau(  24) = (   0.1916132   0.5051704   2.1461502  )
        25           H   tau(  25) = (   0.6938459   1.3191894   2.0437448  )
        26           H   tau(  26) = (   0.2595928   0.5245528   0.1572109  )
        27           C   tau(  27) = (   0.9746395   1.1662375   0.1532147  )
        28           C   tau(  28) = (  -0.0212614   0.3717412   2.0477192  )
        29           H   tau(  29) = (   0.1285628   1.0781798   0.0345432  )
        30           H   tau(  30) = (   0.8248004   0.2836859   2.1663789  )
        31           C   tau(  31) = (   0.4329057   0.7290594   0.7935807  )
        32           C   tau(  32) = (   0.5204405   1.5232504   1.4073622  )
        33           C   tau(  33) = (   0.6622654   0.5516783   0.8647105  )
        34           C   tau(  34) = (   0.2911131   1.3458206   1.3362325  )
        35           H   tau(  35) = (   0.8025333   0.6726601   0.9809252  )
        36           H   tau(  36) = (   0.1508023   1.4668266   1.2200875  )
        37           H   tau(  37) = (   0.5969661   0.3947172   0.9983563  )
        38           H   tau(  38) = (   0.3563993   1.1889098   1.2025239  )
        39           C   tau(  39) = (   0.8281992   0.4301591   0.6476632  )
        40           C   tau(  40) = (   0.1252170   1.2242717   1.5532794  )
        41           H   tau(  41) = (   0.2969898   0.0335122   0.6152964  )
        42           H   tau(  42) = (   0.6564105   0.8276975   1.5857061  )
        43           H   tau(  43) = (   0.7949602   1.3128898   0.9949598  )
        44           H   tau(  44) = (   0.1583595   0.5185948   1.2059916  )
        45           H   tau(  45) = (   0.1620043   1.0281936   0.4874971  )
        46           H   tau(  46) = (   0.7913036   0.2338521   1.7134125  )
        47           H   tau(  47) = (   0.0268986   1.0751905   0.9081246  )
        48           H   tau(  48) = (   0.9264398   0.2808731   1.2928056  )
        49           H   tau(  49) = (   0.4996983   1.5274044   0.8685311  )
        50           H   tau(  50) = (   0.4536460   0.7330989   1.3324665  )
        51           H   tau(  51) = (   0.6193081   0.6366268   0.4191964  )
        52           H   tau(  52) = (   0.3339933   1.4308615   1.7817240  )

     number of k points=    14
                       cart. coord. in units 2pi/alat
        k(    1) = (   0.0000000   0.0000000   0.0000000), wk =   0.0833333
        k(    2) = (   0.0000000   0.0000000  -0.2271747), wk =   0.0833333
        k(    3) = (   0.0000000   0.2098237   0.0000000), wk =   0.1666667
        k(    4) = (   0.0000000   0.2098237  -0.2271747), wk =   0.1666667
        k(    5) = (   0.2500000   0.0000000   0.0052979), wk =   0.1666667
        k(    6) = (   0.2500000   0.0000000  -0.2218768), wk =   0.1666667
        k(    7) = (   0.2500000   0.2098237   0.0052979), wk =   0.1666667
        k(    8) = (   0.2500000   0.2098237  -0.2218768), wk =   0.1666667
        k(    9) = (  -0.5000000   0.0000000  -0.0105957), wk =   0.0833333
        k(   10) = (  -0.5000000   0.0000000  -0.2377704), wk =   0.0833333
        k(   11) = (  -0.5000000   0.2098237  -0.0105957), wk =   0.1666667
        k(   12) = (  -0.5000000   0.2098237  -0.2377704), wk =   0.1666667
        k(   13) = (  -0.2500000   0.2098237  -0.0052979), wk =   0.1666667
        k(   14) = (  -0.2500000   0.2098237   0.2218768), wk =   0.1666667

     Dense  grid:   419027 G-vectors     FFT dimensions: (  64, 100, 135)

     Estimated max dynamical RAM per process >     289.47MB

     Estimated total allocated dynamical RAM >    2315.74MB

     Check: negative/imaginary core charge=   -0.000002    0.000000

     Initial potential from superposition of free atoms

     starting charge  163.99907, renormalised to  164.00000
     Starting wfc are  142 randomized atomic wfcs
     Checking if some PAW data can be deallocated... 

     total cpu time spent up to now is       18.7 secs

     per-process dynamical memory:   271.4 Mb

     Self-consistent Calculation

     iteration #  1     ecut=   100.00 Ry     beta=0.50
     Davidson diagonalization with overlap
     ethr =  1.00E-02,  avg # of iterations =  3.7

     total cpu time spent up to now is       64.6 secs

     total energy              =    -823.02560476 Ry
     Harris-Foulkes estimate   =    -826.00025931 Ry
     estimated scf accuracy    <       5.49302899 Ry

     iteration #  2     ecut=   100.00 Ry     beta=0.50
     Davidson diagonalization with overlap
     ethr =  3.35E-03,  avg # of iterations =  3.0

     total cpu time spent up to now is       93.4 secs

     total energy              =    -823.85666295 Ry
     Harris-Foulkes estimate   =    -824.16547595 Ry
     estimated scf accuracy    <       0.67175369 Ry

     iteration #  3     ecut=   100.00 Ry     beta=0.50
     Davidson diagonalization with overlap
     ethr =  4.10E-04,  avg # of iterations =  6.6

     total cpu time spent up to now is      141.4 secs

     total energy              =    -824.13729188 Ry
     Harris-Foulkes estimate   =    -824.22567083 Ry
     estimated scf accuracy    <       0.22256076 Ry

     iteration #  4     ecut=   100.00 Ry     beta=0.50
     Davidson diagonalization with overlap
     ethr =  1.36E-04,  avg # of iterations =  3.0

     total cpu time spent up to now is      166.9 secs

     total energy              =    -824.14048312 Ry
     Harris-Foulkes estimate   =    -824.16068947 Ry
     estimated scf accuracy    <       0.04600771 Ry

     iteration #  5     ecut=   100.00 Ry     beta=0.50
     Davidson diagonalization with overlap
     ethr =  2.81E-05,  avg # of iterations =  7.4

     total cpu time spent up to now is      218.7 secs

     total energy              =    -824.16506344 Ry
     Harris-Foulkes estimate   =    -824.18103987 Ry
     estimated scf accuracy    <       0.05140840 Ry

     iteration #  6     ecut=   100.00 Ry     beta=0.50
     Davidson diagonalization with overlap
     ethr =  2.81E-05,  avg # of iterations =  2.0

     total cpu time spent up to now is      242.6 secs

     total energy              =    -824.16336236 Ry
     Harris-Foulkes estimate   =    -824.16884212 Ry
     estimated scf accuracy    <       0.01882024 Ry

     iteration #  7     ecut=   100.00 Ry     beta=0.50
     Davidson diagonalization with overlap
     ethr =  1.15E-05,  avg # of iterations =  4.6

     total cpu time spent up to now is      274.6 secs

     total energy              =    -824.16562692 Ry
     Harris-Foulkes estimate   =    -824.16705343 Ry
     estimated scf accuracy    <       0.00242880 Ry

     iteration #  8     ecut=   100.00 Ry     beta=0.50
     Davidson diagonalization with overlap
     ethr =  1.48E-06,  avg # of iterations =  7.6

     total cpu time spent up to now is      323.1 secs

     total energy              =    -824.16658401 Ry
     Harris-Foulkes estimate   =    -824.16677768 Ry
     estimated scf accuracy    <       0.00056927 Ry

     iteration #  9     ecut=   100.00 Ry     beta=0.50
     Davidson diagonalization with overlap
     ethr =  3.47E-07,  avg # of iterations =  1.0

     total cpu time spent up to now is      346.2 secs

     total energy              =    -824.16651524 Ry
     Harris-Foulkes estimate   =    -824.16661489 Ry
     estimated scf accuracy    <       0.00018656 Ry

     iteration # 10     ecut=   100.00 Ry     beta=0.50
     Davidson diagonalization with overlap
     ethr =  1.14E-07,  avg # of iterations =  4.0

     total cpu time spent up to now is      386.1 secs

     total energy              =    -824.16662058 Ry
     Harris-Foulkes estimate   =    -824.16664100 Ry
     estimated scf accuracy    <       0.00005454 Ry

     iteration # 11     ecut=   100.00 Ry     beta=0.50
     Davidson diagonalization with overlap
     ethr =  3.33E-08,  avg # of iterations =  1.1

     total cpu time spent up to now is      408.9 secs

     total energy              =    -824.16661503 Ry
     Harris-Foulkes estimate   =    -824.16662377 Ry
     estimated scf accuracy    <       0.00001806 Ry

     iteration # 12     ecut=   100.00 Ry     beta=0.50
     Davidson diagonalization with overlap
     ethr =  1.10E-08,  avg # of iterations =  3.3

     total cpu time spent up to now is      445.7 secs

     total energy              =    -824.16662364 Ry
     Harris-Foulkes estimate   =    -824.16662483 Ry
     estimated scf accuracy    <       0.00000252 Ry

     iteration # 13     ecut=   100.00 Ry     beta=0.50
     Davidson diagonalization with overlap
     ethr =  1.54E-09,  avg # of iterations =  2.8

     total cpu time spent up to now is      469.4 secs

     total energy              =    -824.16662377 Ry
     Harris-Foulkes estimate   =    -824.16662392 Ry
     estimated scf accuracy    <       0.00000027 Ry

     iteration # 14     ecut=   100.00 Ry     beta=0.50
     Davidson diagonalization with overlap
     ethr =  1.67E-10,  avg # of iterations =  4.0

     total cpu time spent up to now is      515.6 secs

     total energy              =    -824.16662410 Ry
     Harris-Foulkes estimate   =    -824.16662420 Ry
     estimated scf accuracy    <       0.00000025 Ry

     iteration # 15     ecut=   100.00 Ry     beta=0.50
     Davidson diagonalization with overlap
     ethr =  1.49E-10,  avg # of iterations =  1.0

     total cpu time spent up to now is      538.6 secs

     total energy              =    -824.16662409 Ry
     Harris-Foulkes estimate   =    -824.16662411 Ry
     estimated scf accuracy    <       0.00000007 Ry

     iteration # 16     ecut=   100.00 Ry     beta=0.50
     Davidson diagonalization with overlap
     ethr =  4.31E-11,  avg # of iterations =  3.2

     total cpu time spent up to now is      576.0 secs

     End of self-consistent calculation

          k = 0.0000 0.0000 0.0000 ( 52401 PWs)   bands (ev):

   -20.4601 -20.4540 -19.6908 -19.6885 -18.2664 -18.2404 -18.2341 -18.2093
   -17.4452 -17.4256 -16.1289 -16.1154 -15.5464 -15.5450 -12.9094 -12.8866
   -11.9201 -11.8689 -11.5859 -11.5628  -9.3984  -9.3850  -9.0034  -8.9587
    -7.8378  -7.8017  -7.4145  -7.3696  -7.2060  -6.9946  -6.7072  -6.6918
    -6.0624  -5.9733  -5.4892  -5.4128  -5.2746  -5.2422  -5.0014  -4.9707
    -4.9218  -4.7510  -4.6803  -4.6333  -4.5525  -4.4635  -4.3160  -4.2890
    -3.9059  -3.7453  -3.6951  -3.6839  -3.5860  -3.4853  -3.4095  -3.3338
    -2.5698  -2.5222  -2.3263  -2.1922  -2.0921  -2.0629  -1.8409  -1.8223
    -1.6580  -1.6334  -1.0620  -1.0388  -0.5182  -0.4728  -0.2361  -0.1375
    -0.0100   0.0752   0.1566   0.2291   0.4387   0.4743   0.8416   0.8508
     2.0407   2.0974   4.9465   5.0355   5.8646   5.8959   6.1286   6.1815
     6.3725   6.5652   6.9284   7.8950   7.9005   8.8542   8.9961   9.3323
     9.3667   9.5185

          k = 0.0000 0.0000-0.2272 ( 52378 PWs)   bands (ev):

   -20.4597 -20.4544 -19.6910 -19.6883 -18.2720 -18.2464 -18.2302 -18.2008
   -17.4453 -17.4260 -16.1290 -16.1153 -15.5500 -15.5415 -12.9098 -12.8860
   -11.9343 -11.8795 -11.5650 -11.5525  -9.4102  -9.3741  -9.0020  -8.9643
    -7.8762  -7.7984  -7.5044  -7.2305  -7.1868  -6.9709  -6.7565  -6.7282
    -6.0245  -6.0050  -5.4779  -5.3518  -5.2680  -5.2283  -5.0871  -4.8508
    -4.8352  -4.7782  -4.7329  -4.6588  -4.6103  -4.5830  -4.3423  -4.2051
    -3.7878  -3.7489  -3.7199  -3.6778  -3.6521  -3.5367  -3.3597  -3.3576
    -2.5452  -2.5214  -2.3400  -2.1737  -2.1345  -1.9694  -1.8730  -1.8076
    -1.6764  -1.6088  -1.1426  -1.0178  -0.4925  -0.4910  -0.2808  -0.1333
    -0.0055   0.0965   0.2017   0.2029   0.4149   0.5191   0.8411   0.8426
     2.0213   2.1147   4.9367   5.0488   5.7470   6.0185   6.0695   6.2462
     6.3739   6.5579   7.1499   7.1751   8.7505   8.8849   8.9886   8.9908
     9.3114   9.5211

          k = 0.0000 0.2098 0.0000 ( 52382 PWs)   bands (ev):

   -20.4579 -20.4549 -19.6915 -19.6904 -18.2723 -18.2655 -18.2072 -18.2009
   -17.4421 -17.4323 -16.1252 -16.1185 -15.5458 -15.5451 -12.9046 -12.8933
   -11.9074 -11.8821 -11.5791 -11.5678  -9.4008  -9.3942  -8.9906  -8.9679
    -7.8037  -7.7866  -7.4120  -7.3873  -7.1422  -7.0345  -6.6946  -6.6795
    -6.1178  -6.0713  -5.4558  -5.4377  -5.3145  -5.2925  -5.0083  -4.9442
    -4.8029  -4.7344  -4.6942  -4.6140  -4.5541  -4.5202  -4.2170  -4.1914
    -3.8745  -3.8735  -3.8174  -3.6718  -3.5115  -3.5004  -3.4117  -3.3755
    -2.5567  -2.5364  -2.2541  -2.1907  -2.0694  -2.0622  -1.8332  -1.8254
    -1.6716  -1.6663  -1.0577  -1.0413  -0.5060  -0.4740  -0.2199  -0.1664
     0.0009   0.0364   0.1922   0.2312   0.4580   0.4798   0.8440   0.8480
     2.0302   2.0568   4.9314   4.9799   5.9334   5.9353   6.1503   6.1724
     6.3647   6.4835   7.2998   8.0279   8.1375   8.3257   8.8150   8.8206
     9.3326   9.4466

          k = 0.0000 0.2098-0.2272 ( 52390 PWs)   bands (ev):

   -20.4577 -20.4550 -19.6916 -19.6903 -18.2760 -18.2683 -18.2053 -18.1956
   -17.4423 -17.4326 -16.1252 -16.1184 -15.5477 -15.5435 -12.9049 -12.8930
   -11.9199 -11.8924 -11.5618 -11.5556  -9.4064  -9.3884  -8.9915  -8.9724
    -7.8406  -7.7996  -7.4534  -7.3213  -7.1000  -6.9969  -6.7346  -6.7167
    -6.0959  -6.0896  -5.4180  -5.4128  -5.2780  -5.2362  -5.0737  -5.0228
    -4.7923  -4.6857  -4.6776  -4.6186  -4.6134  -4.5786  -4.2129  -4.1512
    -3.8866  -3.8568  -3.7624  -3.6621  -3.5679  -3.5450  -3.3877  -3.3866
    -2.5338  -2.5214  -2.2498  -2.1505  -2.1183  -2.0490  -1.8629  -1.8345
    -1.6544  -1.6239  -1.1133  -1.0530  -0.4859  -0.4833  -0.2370  -0.1612
    -0.0017   0.0376   0.2178   0.2271   0.4531   0.5055   0.8422   0.8436
     2.0202   2.0646   4.9286   4.9879   5.8353   5.9949   6.0981   6.2257
     6.4141   6.4911   7.4373   7.4976   8.3062   8.4758   8.9516   8.9947
     9.1904   9.4214

          k = 0.2500 0.0000 0.0053 ( 52388 PWs)   bands (ev):

   -20.4436 -20.4389 -19.7073 -19.7028 -18.2485 -18.2343 -18.2096 -18.1996
   -17.4555 -17.4318 -16.1519 -16.1368 -15.5557 -15.5530 -12.9089 -12.8876
   -11.9511 -11.9039 -11.5983 -11.5821  -9.4279  -9.3995  -8.9714  -8.9223
    -7.7985  -7.7611  -7.3970  -7.3095  -7.1414  -7.0056  -6.7744  -6.6859
    -6.1582  -6.0628  -5.5574  -5.3892  -5.3202  -5.2185  -5.1271  -5.0153
    -4.9013  -4.7582  -4.7139  -4.6642  -4.5222  -4.4312  -4.2414  -4.2227
    -3.9187  -3.8693  -3.7613  -3.5903  -3.5306  -3.4203  -3.3649  -3.2802
    -2.5686  -2.5164  -2.2456  -2.1898  -2.1491  -1.9334  -1.7691  -1.6689
    -1.6002  -1.5731  -1.1194  -1.0807  -0.5306  -0.4800  -0.1941  -0.1031
    -0.0286   0.0672   0.1488   0.2413   0.4703   0.5347   0.7728   0.8920
     2.1081   2.1773   4.9735   5.0411   5.8574   5.8785   6.0024   6.1163
     6.1686   6.4217   7.3684   8.0021   8.1558   8.4871   8.8681   8.9495
     9.2487   9.5182

          k = 0.2500 0.0000-0.2219 ( 52328 PWs)   bands (ev):

   -20.4433 -20.4391 -19.7073 -19.7029 -18.2504 -18.2383 -18.2086 -18.1948
   -17.4557 -17.4314 -16.1527 -16.1363 -15.5568 -15.5520 -12.9098 -12.8871
   -11.9594 -11.9074 -11.6069 -11.5569  -9.4228  -9.4074  -8.9720  -8.9223
    -7.8090  -7.7729  -7.4130  -7.2912  -7.1060  -6.9866  -6.8081  -6.7055
    -6.1243  -6.0827  -5.5001  -5.4534  -5.2862  -5.1760  -5.1262  -4.9900
    -4.9154  -4.7856  -4.7359  -4.7016  -4.5922  -4.4924  -4.2176  -4.0836
    -3.9625  -3.8309  -3.7558  -3.5877  -3.5443  -3.4387  -3.3522  -3.3014
    -2.5626  -2.5071  -2.2883  -2.1222  -2.0988  -1.9783  -1.6992  -1.6715
    -1.6344  -1.5874  -1.1791  -1.0832  -0.5255  -0.4876  -0.2130  -0.1060
    -0.0273   0.0770   0.1739   0.2272   0.4805   0.5374   0.7644   0.8973
     2.1010   2.1921   4.9696   5.0355   5.7844   5.8924   6.0603   6.0748
     6.2593   6.4043   7.4485   7.6188   8.4763   8.5967   8.8352   9.0723
     9.2290   9.3159

          k = 0.2500 0.2098 0.0053 ( 52363 PWs)   bands (ev):

   -20.4421 -20.4397 -19.7066 -19.7042 -18.2574 -18.2518 -18.1939 -18.1893
   -17.4492 -17.4373 -16.1487 -16.1412 -15.5550 -15.5535 -12.9042 -12.8934
   -11.9379 -11.9127 -11.5978 -11.5840  -9.4128  -9.3981  -8.9638  -8.9388
    -7.8118  -7.7933  -7.4015  -7.3665  -7.0698  -7.0176  -6.7596  -6.7188
    -6.0677  -6.0114  -5.5018  -5.4196  -5.2944  -5.2353  -5.1159  -4.9860
    -4.8463  -4.8021  -4.7567  -4.7218  -4.5007  -4.4700  -4.2768  -4.2529
    -4.0031  -3.9786  -3.6983  -3.6331  -3.4901  -3.4192  -3.3223  -3.2899
    -2.5588  -2.5321  -2.1811  -2.1683  -2.1241  -1.9953  -1.7239  -1.6680
    -1.5631  -1.5509  -1.1118  -1.0923  -0.5123  -0.4745  -0.1799  -0.1404
     0.0116   0.0565   0.1533   0.2011   0.4932   0.5254   0.7998   0.8608
     2.1059   2.1391   4.9629   4.9998   5.8829   5.9066   6.0435   6.1044
     6.1856   6.3379   7.6157   8.0915   8.3026   8.4350   8.8390   8.8823
     9.0945   9.2795

          k = 0.2500 0.2098-0.2219 ( 52355 PWs)   bands (ev):

   -20.4420 -20.4398 -19.7066 -19.7042 -18.2589 -18.2536 -18.1931 -18.1868
   -17.4492 -17.4370 -16.1492 -16.1409 -15.5555 -15.5531 -12.9048 -12.8932
   -11.9459 -11.9184 -11.5953 -11.5679  -9.4116  -9.4033  -8.9638  -8.9382
    -7.8229  -7.8045  -7.4013  -7.3495  -7.0565  -7.0043  -6.7857  -6.7359
    -6.0404  -6.0158  -5.4803  -5.4023  -5.2994  -5.2095  -5.0901  -4.9649
    -4.9011  -4.8320  -4.7801  -4.7247  -4.5760  -4.5306  -4.2307  -4.1778
    -4.0018  -3.9551  -3.6856  -3.6285  -3.5147  -3.4369  -3.3188  -3.2892
    -2.5463  -2.5196  -2.2388  -2.1540  -2.0553  -1.9855  -1.6906  -1.6707
    -1.5783  -1.5552  -1.1595  -1.1133  -0.5127  -0.4783  -0.1968  -0.1494
     0.0085   0.0651   0.1731   0.2002   0.5004   0.5305   0.7958   0.8628
     2.1038   2.1489   4.9607   4.9968   5.8280   5.9423   5.9907   6.1212
     6.2606   6.3469   7.6467   7.8793   8.2691   8.6055   8.9117   8.9634
     9.1340   9.2410

          k =-0.5000 0.0000-0.0106 ( 52356 PWs)   bands (ev):

   -20.4263 -20.4232 -19.7225 -19.7196 -18.2336 -18.2276 -18.1908 -18.1824
   -17.4613 -17.4400 -16.1775 -16.1623 -15.5623 -15.5588 -12.9094 -12.8925
   -11.9948 -11.9328 -11.6058 -11.5892  -9.4281  -9.3997  -8.9335  -8.9142
    -7.8129  -7.7798  -7.4117  -7.3204  -7.0744  -6.9433  -6.7941  -6.7762
    -6.0635  -6.0146  -5.4721  -5.3854  -5.3571  -5.2398  -5.2018  -5.0738
    -4.8976  -4.8070  -4.7487  -4.7108  -4.5165  -4.4839  -4.3538  -4.1153
    -4.0559  -4.0160  -3.6911  -3.5421  -3.5000  -3.4319  -3.2425  -3.1536
    -2.5671  -2.5052  -2.3266  -2.1410  -2.1083  -1.8992  -1.7844  -1.5945
    -1.4105  -1.3949  -1.0910  -1.0438  -0.5185  -0.4771  -0.1369  -0.0513
    -0.0400   0.0005   0.1714   0.2047   0.4875   0.5444   0.7944   0.8420
     2.1623   2.2444   4.9407   5.0857   5.8145   5.8453   5.9334   6.0205
     6.0560   6.2665   7.9064   7.9735   8.2850   8.4572   8.7151   8.8861
     9.0717   9.1062

          k =-0.5000 0.0000-0.2378 ( 52348 PWs)   bands (ev):

   -20.4262 -20.4233 -19.7223 -19.7198 -18.2338 -18.2260 -18.1930 -18.1826
   -17.4606 -17.4394 -16.1787 -16.1616 -15.5609 -15.5603 -12.9064 -12.8964
   -12.0018 -11.9275 -11.6214 -11.5686  -9.4190  -9.4166  -8.9422  -8.8965
    -7.8044  -7.7776  -7.4521  -7.2965  -7.0463  -6.9992  -6.7919  -6.7630
    -6.0131  -6.0090  -5.4583  -5.4512  -5.3468  -5.3102  -5.0585  -5.0462
    -4.9089  -4.9050  -4.7495  -4.7300  -4.6142  -4.4608  -4.2799  -4.2346
    -3.9794  -3.9538  -3.6105  -3.5763  -3.5107  -3.4678  -3.2287  -3.1469
    -2.5629  -2.5236  -2.2673  -2.1992  -2.0398  -1.9305  -1.6962  -1.6364
    -1.4609  -1.4021  -1.0915  -1.0635  -0.5263  -0.4829  -0.1323  -0.0525
    -0.0477   0.0213   0.1624   0.1739   0.5191   0.5255   0.8031   0.8368
     2.1675   2.2568   4.9374   5.0762   5.7407   5.7990   5.9688   6.0459
     6.1931   6.2353   7.9090   8.0769   8.1331   8.3986   8.7129   9.0279
     9.0732   9.2804

          k =-0.5000 0.2098-0.0106 ( 52356 PWs)   bands (ev):

   -20.4255 -20.4240 -19.7214 -19.7200 -18.2404 -18.2372 -18.1812 -18.1771
   -17.4560 -17.4453 -16.1729 -16.1653 -15.5625 -15.5607 -12.9026 -12.8941
   -11.9669 -11.9347 -11.6176 -11.6104  -9.4341  -9.4193  -8.9209  -8.9123
    -7.7904  -7.7727  -7.3662  -7.3041  -7.0719  -6.9878  -6.7755  -6.7676
    -6.1062  -6.0870  -5.4493  -5.4452  -5.3259  -5.3210  -5.1026  -5.0202
    -4.8654  -4.8641  -4.7338  -4.7080  -4.4674  -4.4180  -4.3118  -4.1690
    -4.1411  -4.0761  -3.6793  -3.5915  -3.4947  -3.4602  -3.2053  -3.1432
    -2.5637  -2.5271  -2.2888  -2.1879  -2.0691  -1.9557  -1.7200  -1.6292
    -1.3680  -1.3646  -1.0720  -1.0443  -0.5016  -0.4807  -0.1457  -0.1083
    -0.0061   0.0341   0.1653   0.1898   0.5143   0.5388   0.8038   0.8266
     2.1703   2.2100   4.9510   5.0244   5.8086   5.8550   5.9131   6.0254
     6.1194   6.2127   7.9659   8.0654   8.3923   8.7598   8.8561   8.8742
     9.0801   9.1221

          k =-0.5000 0.2098-0.2378 ( 52366 PWs)   bands (ev):

   -20.4255 -20.4240 -19.7213 -19.7201 -18.2404 -18.2363 -18.1826 -18.1775
   -17.4553 -17.4447 -16.1736 -16.1651 -15.5619 -15.5615 -12.9012 -12.8962
   -11.9730 -11.9331 -11.6249 -11.5956  -9.4305  -9.4299  -8.9235  -8.9016
    -7.7824  -7.7673  -7.3873  -7.3062  -7.0548  -7.0306  -6.7731  -6.7601
    -6.0723  -6.0645  -5.4802  -5.4336  -5.3513  -5.3032  -4.9999  -4.9966
    -4.9060  -4.8926  -4.7668  -4.7488  -4.5773  -4.4869  -4.2225  -4.2218
    -4.0439  -4.0292  -3.6471  -3.6184  -3.4993  -3.4768  -3.1843  -3.1312
    -2.5593  -2.5417  -2.2462  -2.1939  -2.0133  -1.9627  -1.6920  -1.6616
    -1.4095  -1.3696  -1.0846  -1.0649  -0.5135  -0.4903  -0.1511  -0.1218
    -0.0068   0.0474   0.1723   0.1853   0.5262   0.5324   0.8094   0.8237
     2.1759   2.2189   4.9464   5.0162   5.7594   5.8114   6.0089   6.0300
     6.1735   6.1907   7.9390   8.0616   8.4593   8.6347   8.8893   8.9763
     9.0445   9.1481

          k =-0.2500 0.2098-0.0053 ( 52363 PWs)   bands (ev):

   -20.4421 -20.4397 -19.7066 -19.7041 -18.2575 -18.2516 -18.1940 -18.1893
   -17.4492 -17.4373 -16.1487 -16.1412 -15.5550 -15.5534 -12.9042 -12.8934
   -11.9378 -11.9128 -11.5978 -11.5840  -9.4128  -9.3980  -8.9638  -8.9388
    -7.8119  -7.7932  -7.4015  -7.3666  -7.0697  -7.0177  -6.7596  -6.7188
    -6.0678  -6.0114  -5.5019  -5.4196  -5.2943  -5.2352  -5.1158  -4.9860
    -4.8465  -4.8021  -4.7566  -4.7219  -4.5005  -4.4702  -4.2767  -4.2529
    -4.0032  -3.9785  -3.6980  -3.6334  -3.4899  -3.4193  -3.3223  -3.2899
    -2.5589  -2.5321  -2.1810  -2.1685  -2.1242  -1.9952  -1.7238  -1.6680
    -1.5631  -1.5509  -1.1119  -1.0922  -0.5121  -0.4747  -0.1799  -0.1403
     0.0115   0.0565   0.1533   0.2011   0.4931   0.5255   0.7998   0.8608
     2.1059   2.1390   4.9630   4.9998   5.8827   5.9067   6.0436   6.1044
     6.1857   6.3378   7.6157   8.0916   8.3029   8.4348   8.8390   8.8821
     9.0946   9.2796

          k =-0.2500 0.2098 0.2219 ( 52355 PWs)   bands (ev):

   -20.4420 -20.4399 -19.7066 -19.7042 -18.2591 -18.2534 -18.1932 -18.1867
   -17.4492 -17.4370 -16.1492 -16.1409 -15.5556 -15.5530 -12.9047 -12.8932
   -11.9458 -11.9185 -11.5954 -11.5679  -9.4117  -9.4032  -8.9637  -8.9382
    -7.8229  -7.8044  -7.4013  -7.3496  -7.0565  -7.0044  -6.7857  -6.7359
    -6.0403  -6.0159  -5.4804  -5.4023  -5.2993  -5.2095  -5.0900  -4.9650
    -4.9011  -4.8321  -4.7802  -4.7247  -4.5759  -4.5306  -4.2306  -4.1778
    -4.0018  -3.9552  -3.6855  -3.6287  -3.5144  -3.4370  -3.3188  -3.2892
    -2.5462  -2.5197  -2.2389  -2.1538  -2.0555  -1.9855  -1.6907  -1.6707
    -1.5783  -1.5552  -1.1595  -1.1133  -0.5125  -0.4785  -0.1967  -0.1493
     0.0085   0.0651   0.1732   0.2001   0.5004   0.5305   0.7958   0.8628
     2.1039   2.1489   4.9608   4.9968   5.8279   5.9421   5.9907   6.1214
     6.2607   6.3467   7.6466   7.8795   8.2690   8.6056   8.9116   8.9635
     9.1340   9.2412

     highest occupied, lowest unoccupied level (ev):     2.2568    4.9286

!    total energy              =    -824.16662412 Ry
     Harris-Foulkes estimate   =    -824.16662413 Ry
     estimated scf accuracy    <          6.5E-09 Ry

     total all-electron energy =     -3106.960098 Ry

     The total energy is the sum of the following terms:

     one-electron contribution =    -404.37888308 Ry
     hartree contribution      =     269.03040757 Ry
     xc contribution           =    -174.12802122 Ry
     ewald contribution        =    -282.25248383 Ry
     Dispersion Correction     =      -0.25369308 Ry
     one-center paw contrib.   =    -232.18395048 Ry

     convergence has been achieved in  16 iterations

     Forces acting on atoms (cartesian axes, Ry/au):

     atom    1 type  4   force =    -0.00037957   -0.00332736    0.00043106
     atom    2 type  4   force =     0.00037000   -0.00335851   -0.00046757
     atom    3 type  4   force =     0.00533001   -0.00720221   -0.00675164
     atom    4 type  4   force =    -0.00531324   -0.00720308    0.00672693
     atom    5 type  4   force =    -0.00060160    0.00102173   -0.00108270
     atom    6 type  4   force =     0.00061242    0.00100606    0.00108803
     atom    7 type  4   force =    -0.00255303    0.00277978   -0.00110511
     atom    8 type  4   force =     0.00286555    0.00303200    0.00117823
     atom    9 type  2   force =    -0.00258757    0.00019349   -0.00376658
     atom   10 type  2   force =     0.00265084    0.00024584    0.00375052
     atom   11 type  2   force =     0.00694979    0.00380180   -0.00834461
     atom   12 type  2   force =    -0.00695813    0.00379757    0.00831947
     atom   13 type  2   force =    -0.00103176    0.00387330    0.00522366
     atom   14 type  2   force =     0.00096854    0.00385824   -0.00525463
     atom   15 type  1   force =    -0.00996959   -0.00992796    0.00014875
     atom   16 type  1   force =     0.00991545   -0.01000311   -0.00011362
     atom   17 type  1   force =     0.00070200    0.00036564   -0.00730943
     atom   18 type  1   force =    -0.00064480    0.00035782    0.00731790
     atom   19 type  1   force =     0.01060447    0.00235511    0.01201394
     atom   20 type  1   force =    -0.01063871    0.00227314   -0.01201688
     atom   21 type  3   force =     0.00101207   -0.00045909   -0.00167232
     atom   22 type  3   force =    -0.00101164   -0.00044218    0.00167885
     atom   23 type  1   force =    -0.00299213    0.00203239   -0.00305096
     atom   24 type  1   force =     0.00303900    0.00215258    0.00308714
     atom   25 type  3   force =     0.00002064    0.00026203    0.00025342
     atom   26 type  3   force =    -0.00002491    0.00024725   -0.00026936
     atom   27 type  1   force =     0.00187643   -0.00236960    0.00900361
     atom   28 type  1   force =    -0.00194679   -0.00239684   -0.00901836
     atom   29 type  3   force =    -0.00180431   -0.00145276   -0.00167520
     atom   30 type  3   force =     0.00182940   -0.00145337    0.00166843
     atom   31 type  1   force =    -0.00688690    0.01140603    0.00452530
     atom   32 type  1   force =     0.00687384    0.01144551   -0.00446353
     atom   33 type  1   force =     0.01409476    0.00203102    0.00985056
     atom   34 type  1   force =    -0.01407656    0.00207900   -0.00985675
     atom   35 type  3   force =    -0.00960247   -0.00406598   -0.00339644
     atom   36 type  3   force =     0.00960665   -0.00407106    0.00338591
     atom   37 type  3   force =     0.00058584    0.00023458   -0.00153987
     atom   38 type  3   force =    -0.00058723    0.00023578    0.00155010
     atom   39 type  1   force =    -0.00201245   -0.00340315   -0.00095522
     atom   40 type  1   force =     0.00166348   -0.00361888    0.00087204
     atom   41 type  3   force =     0.00098395   -0.00153460    0.00112654
     atom   42 type  3   force =    -0.00095733   -0.00150195   -0.00111542
     atom   43 type  3   force =    -0.00215472    0.00140082    0.00139513
     atom   44 type  3   force =     0.00215462    0.00140456   -0.00139872
     atom   45 type  3   force =    -0.00193322    0.00147416   -0.00061811
     atom   46 type  3   force =     0.00192643    0.00145776    0.00061717
     atom   47 type  3   force =     0.00063636   -0.00059043    0.00028557
     atom   48 type  3   force =    -0.00063193   -0.00058202   -0.00028345
     atom   49 type  3   force =     0.00033220    0.00198783   -0.00228526
     atom   50 type  3   force =    -0.00032632    0.00198121    0.00230078
     atom   51 type  3   force =     0.00212026   -0.00091941    0.00008756
     atom   52 type  3   force =    -0.00209810   -0.00091045   -0.00007485

     Total force =     0.057729     Total SCF correction =     0.000146


     Computing stress (Cartesian axis) and pressure

          total   stress  (Ry/bohr**3)                   (kbar)     P=   -7.95
  -0.00005360  -0.00000014  -0.00000895         -7.89     -0.02     -1.32
  -0.00000014  -0.00004385   0.00000000         -0.02     -6.45      0.00
  -0.00000895   0.00000000  -0.00006468         -1.32      0.00     -9.51


     Writing output data file scf.save
 
     init_run     :     17.48s CPU     18.04s WALL (       1 calls)
     electrons    :    539.38s CPU    557.41s WALL (       1 calls)
     forces       :      8.97s CPU      9.03s WALL (       1 calls)
     stress       :     27.94s CPU     27.96s WALL (       1 calls)

     Called by init_run:
     wfcinit      :     12.32s CPU     12.84s WALL (       1 calls)
     potinit      :      1.88s CPU      1.89s WALL (       1 calls)

     Called by electrons:
     c_bands      :    480.88s CPU    497.17s WALL (      16 calls)
     sum_band     :     51.19s CPU     52.79s WALL (      16 calls)
     v_of_rho     :      0.97s CPU      1.07s WALL (      17 calls)
     newd         :      2.15s CPU      2.18s WALL (      17 calls)
     PAW_pot      :      3.81s CPU      3.81s WALL (      17 calls)
     mix_rho      :      0.24s CPU      0.26s WALL (      16 calls)

     Called by c_bands:
     init_us_2    :      4.34s CPU      4.35s WALL (     490 calls)
     cegterg      :    466.33s CPU    482.49s WALL (     224 calls)

     Called by sum_band:
     sum_band:bec :      0.05s CPU      0.05s WALL (     224 calls)
     addusdens    :      2.11s CPU      2.14s WALL (      16 calls)

     Called by *egterg:
     h_psi        :    268.50s CPU    278.34s WALL (    1053 calls)
     s_psi        :     47.38s CPU     47.38s WALL (    1053 calls)
     g_psi        :      1.84s CPU      1.84s WALL (     815 calls)
     cdiaghg      :     32.62s CPU     32.70s WALL (    1039 calls)

     Called by h_psi:
     h_psi:pot    :    265.95s CPU    275.76s WALL (    1053 calls)
     h_psi:calbec :     47.28s CPU     47.45s WALL (    1053 calls)
     vloc_psi     :    171.10s CPU    180.73s WALL (    1053 calls)
     add_vuspsi   :     47.57s CPU     47.59s WALL (    1053 calls)

     General routines
     calbec       :     68.98s CPU     69.18s WALL (    1347 calls)
     fft          :      0.92s CPU      1.06s WALL (     245 calls)
     fftw         :    181.01s CPU    191.43s WALL (  151358 calls)
 
     Parallel routines
     fft_scatter  :     50.35s CPU     56.54s WALL (  151603 calls)
 
     PWSCF        :  9m59.46s CPU    10m19.62s WALL

 
   This run was terminated on:   0: 5:57  19Dec2017            

=------------------------------------------------------------------------------=
   JOB DONE.
=------------------------------------------------------------------------------=
