
     Program PWSCF v.6.1 (svn rev. 13369) starts on 18Dec2017 at  4:57:25 

     This program is part of the open-source Quantum ESPRESSO suite
     for quantum simulation of materials; please cite
         "P. Giannozzi et al., J. Phys.:Condens. Matter 21 395502 (2009);
          URL http://www.quantum-espresso.org", 
     in publications or presentations arising from this work. More details at
     http://www.quantum-espresso.org/quote

     Parallel version (MPI), running on     8 processors
     R & G space division:  proc/nbgrp/npool/nimage =       8
     Waiting for input...
     Reading input from standard input

     Current dimensions of program PWSCF are:
     Max number of different atomic species (ntypx) = 10
     Max number of k-points (npk) =  40000
     Max angular momentum in pseudopotentials (lmaxx) =  3
               file C.pbe-n-kjpaw_psl.0.1.UPF: wavefunction(s)  2P renormalized
               file N.pbe-n-kjpaw_psl.0.1.UPF: wavefunction(s)  2P renormalized
               file H.pbe-kjpaw_psl.0.1.UPF: wavefunction(s)  1S renormalized
               file O.pbe-n-kjpaw_psl.0.1.UPF: wavefunction(s)  2P renormalized

     -------------------------------------
     Parameters for Dispersion Correction:
     -------------------------------------
       atom      VdW radius       C_6     

        C          2.744         60.710
        N          2.640         42.670
        H          1.892          4.857
        O          2.536         24.284

     Subspace diagonalization in iterative solution of the eigenvalue problem:
     a serial algorithm will be used

 
     Parallelization info
     --------------------
     sticks:   dense  smooth     PW     G-vecs:    dense   smooth      PW
     Min        1137    1137    300               116718   116718   15851
     Max        1138    1138    301               116722   116722   15854
     Sum        9103    9103   2401               933771   933771  126813
 


     bravais-lattice index     =            0
     lattice parameter (alat)  =      21.2519  a.u.
     unit-cell volume          =    6912.1749 (a.u.)^3
     number of atoms/cell      =          116
     number of atomic types    =            4
     number of electrons       =       320.00
     number of Kohn-Sham states=          192
     kinetic-energy cutoff     =     100.0000  Ry
     charge density cutoff     =     400.0000  Ry
     convergence threshold     =      1.0E-08
     mixing beta               =       0.5000
     number of iterations used =            8  plain     mixing
     Exchange-correlation      =  SLA  PW   PBX  PBC ( 1  4  3  4 0 0)

     celldm(1)=  21.251860  celldm(2)=   0.000000  celldm(3)=   0.000000
     celldm(4)=   0.000000  celldm(5)=   0.000000  celldm(6)=   0.000000

     crystal axes: (cart. coord. in units of alat)
               a(1) = (   1.000000   0.000000   0.000000 )  
               a(2) = (   0.000000   0.633559   0.000000 )  
               a(3) = (  -0.403077   0.000000   1.136677 )  

     reciprocal axes: (cart. coord. in units 2 pi/alat)
               b(1) = (  1.000000  0.000000  0.354610 )  
               b(2) = (  0.000000  1.578386  0.000000 )  
               b(3) = (  0.000000  0.000000  0.879757 )  


     PseudoPot. # 1 for  C read from file:
     /scratch/ahofstet/pseudo/C.pbe-n-kjpaw_psl.0.1.UPF
     MD5 check sum: 430fe95172b1e11ef3f8ed03bac87931
     Pseudo is Projector augmented-wave + core cor, Zval =  4.0
     Generated using "atomic" code by A. Dal Corso  v.5.0.99 svn rev. 10869
     Shape of augmentation charge: BESSEL
     Using radial grid of 1073 points,  4 beta functions with: 
                l(1) =   0
                l(2) =   0
                l(3) =   1
                l(4) =   1
     Q(r) pseudized with 0 coefficients 


     PseudoPot. # 2 for  N read from file:
     /scratch/ahofstet/pseudo/N.pbe-n-kjpaw_psl.0.1.UPF
     MD5 check sum: f73187c8b701007e77325f868c9291d7
     Pseudo is Projector augmented-wave + core cor, Zval =  5.0
     Generated using "atomic" code by A. Dal Corso  v.5.0.99 svn rev. 10869
     Shape of augmentation charge: PSQ
     Using radial grid of 1085 points,  4 beta functions with: 
                l(1) =   0
                l(2) =   0
                l(3) =   1
                l(4) =   1
     Q(r) pseudized with 0 coefficients 


     PseudoPot. # 3 for  H read from file:
     /scratch/ahofstet/pseudo/H.pbe-kjpaw_psl.0.1.UPF
     MD5 check sum: 94e484f906d9e9773b2f6e52662335b2
     Pseudo is Projector augmented-wave, Zval =  1.0
     Generated using "atomic" code by A. Dal Corso  v.5.0.99 svn rev. 10869
     Shape of augmentation charge: PSQ
     Using radial grid of  929 points,  2 beta functions with: 
                l(1) =   0
                l(2) =   0
     Q(r) pseudized with 0 coefficients 


     PseudoPot. # 4 for  O read from file:
     /scratch/ahofstet/pseudo/O.pbe-n-kjpaw_psl.0.1.UPF
     MD5 check sum: 3f94a2996a3169367d6eb21d9b593f20
     Pseudo is Projector augmented-wave + core cor, Zval =  6.0
     Generated using "atomic" code by A. Dal Corso  v.5.0.99 svn rev. 10869
     Shape of augmentation charge: BESSEL
     Using radial grid of 1095 points,  4 beta functions with: 
                l(1) =   0
                l(2) =   0
                l(3) =   1
                l(4) =   1
     Q(r) pseudized with 0 coefficients 


     atomic species   valence    mass     pseudopotential
        C              4.00    12.01070      C( 1.00)
        N              5.00    14.00670      N( 1.00)
        H              1.00     1.00794      H( 1.00)
        O              6.00    15.99940      O( 1.00)

      4 Sym. Ops., with inversion, found ( 2 have fractional translation)



   Cartesian axes

     site n.     atom                  positions (alat units)
         1           O   tau(   1) = (   0.3667787   0.0430441   0.9543663  )
         2           O   tau(   2) = (   0.0286062   0.3598234   0.7506492  )
         3           O   tau(   3) = (   0.2301446   0.5905145   0.1823107  )
         4           O   tau(   4) = (   0.5683171   0.2737352   0.3860278  )
         5           C   tau(   5) = (   0.3179723   0.5539143   1.1337673  )
         6           C   tau(   6) = (   0.0774127   0.2371350   0.5712482  )
         7           C   tau(   7) = (   0.2789510   0.0796443   0.0029097  )
         8           C   tau(   8) = (   0.5195106   0.3964236   0.5654288  )
         9           N   tau(   9) = (   0.6261903   0.3769273   0.0904240  )
        10           N   tau(  10) = (   0.1722714   0.0601480   0.4779145  )
        11           N   tau(  11) = (  -0.0292670   0.2566313   1.0462530  )
        12           N   tau(  12) = (   0.4246519   0.5734106   0.6587625  )
        13           H   tau(  13) = (   0.5650272   0.3087446   0.0907623  )
        14           H   tau(  14) = (   0.2334345   0.6255239   0.4775762  )
        15           H   tau(  15) = (   0.0318961   0.3248140   1.0459147  )
        16           H   tau(  16) = (   0.3634888   0.0080347   0.6591009  )
        17           H   tau(  17) = (   0.6790682   0.3884105   0.1651613  )
        18           H   tau(  18) = (   0.1193935   0.0716312   0.4031772  )
        19           H   tau(  19) = (  -0.0821449   0.2451481   0.9715157  )
        20           H   tau(  20) = (   0.4775298   0.5619274   0.7334998  )
        21           O   tau(  21) = (  -0.2544955   0.0610945   0.7335489  )
        22           O   tau(  22) = (   0.6498804   0.3778738   0.9714667  )
        23           O   tau(  23) = (   0.8514188   0.5724641   0.4031282  )
        24           O   tau(  24) = (  -0.0529571   0.2556848   0.1652104  )
        25           H   tau(  25) = (   0.7104314   0.0741732   0.6528110  )
        26           H   tau(  26) = (  -0.3150464   0.3909525   1.0522045  )
        27           H   tau(  27) = (  -0.1135081   0.5593854   0.4838660  )
        28           H   tau(  28) = (   0.9119697   0.2426061   0.0844725  )
        29           H   tau(  29) = (   0.6817257   0.0245404   0.7824448  )
        30           H   tau(  30) = (  -0.2863408   0.3413197   0.9225707  )
        31           H   tau(  31) = (  -0.0848024   0.6090182   0.3542322  )
        32           H   tau(  32) = (   0.8832641   0.2922389   0.2141063  )
        33           O   tau(  33) = (   0.7685407   0.3700914   0.2943630  )
        34           O   tau(  34) = (   0.0299210   0.0533121   0.2739755  )
        35           O   tau(  35) = (  -0.1716174   0.2634672   0.8423140  )
        36           O   tau(  36) = (   0.5670023   0.5802465   0.8627015  )
        37           H   tau(  37) = (   0.7968999   0.4413544   0.3388046  )
        38           H   tau(  38) = (   0.0015617   0.1245751   0.2295339  )
        39           H   tau(  39) = (  -0.1999766   0.1922042   0.7978724  )
        40           H   tau(  40) = (   0.5953616   0.5089835   0.9071432  )
        41           H   tau(  41) = (   0.6993961   0.3343314   0.3385949  )
        42           H   tau(  42) = (   0.0990656   0.0175521   0.2297437  )
        43           H   tau(  43) = (  -0.1024728   0.2992272   0.7980822  )
        44           H   tau(  44) = (   0.4978578   0.6160065   0.9069334  )
        45           N   tau(  45) = (   0.1876646   0.5279259   0.8425220  )
        46           N   tau(  46) = (   0.2077204   0.2111466   0.8624935  )
        47           N   tau(  47) = (   0.4092587   0.1056327   0.2941550  )
        48           N   tau(  48) = (   0.3892030   0.4224120   0.2741835  )
        49           H   tau(  49) = (   0.2145301   0.5976942   0.7909008  )
        50           H   tau(  50) = (   0.1808549   0.2809149   0.9141148  )
        51           H   tau(  51) = (   0.3823932   0.0358644   0.3457762  )
        52           H   tau(  52) = (   0.4160684   0.3526437   0.2225623  )
        53           H   tau(  53) = (   0.1260481   0.4672843   0.8090918  )
        54           H   tau(  54) = (   0.2693368   0.1505050   0.8959237  )
        55           H   tau(  55) = (   0.4708752   0.1662743   0.3275852  )
        56           H   tau(  56) = (   0.3275865   0.4830536   0.2407533  )
        57           N   tau(  57) = (   0.1816993   0.4296865   1.0294402  )
        58           N   tau(  58) = (   0.2136857   0.1129072   0.6755753  )
        59           N   tau(  59) = (   0.4152240   0.2038721   0.1072368  )
        60           N   tau(  60) = (   0.3832376   0.5206514   0.4611017  )
        61           C   tau(  61) = (   0.8512676   0.5266679   0.0235087  )
        62           C   tau(  62) = (  -0.0528060   0.2098886   0.5448298  )
        63           C   tau(  63) = (  -0.2543443   0.1068907   1.1131683  )
        64           C   tau(  64) = (   0.6497293   0.4236700   0.5918472  )
        65           H   tau(  65) = (   0.4827041   0.4573914   1.1012812  )
        66           H   tau(  66) = (  -0.0873191   0.1406121   0.6037343  )
        67           H   tau(  67) = (   0.1142193   0.1761672   0.0353958  )
        68           H   tau(  68) = (   0.6842424   0.4929465   0.5329427  )
        69           H   tau(  69) = (   0.9031961   0.6085349   0.0126179  )
        70           H   tau(  70) = (  -0.1047344   0.2917556   0.5557206  )
        71           H   tau(  71) = (  -0.3062728   0.0250237   1.1240591  )
        72           H   tau(  72) = (   0.7016578   0.3418030   0.5809564  )
        73           H   tau(  73) = (   0.8602693   0.4969835   0.1159706  )
        74           H   tau(  74) = (  -0.0618077   0.1802042   0.4523679  )
        75           H   tau(  75) = (  -0.2633460   0.1365751   1.0207064  )
        76           H   tau(  76) = (   0.6587310   0.4533544   0.6843091  )
        77           O   tau(  77) = (   0.4639398   0.2345327   1.0749968  )
        78           O   tau(  78) = (  -0.0685548   0.5513120   0.6300188  )
        79           O   tau(  79) = (   0.1329835   0.3990259   0.0616802  )
        80           O   tau(  80) = (   0.6654781   0.0822466   0.5066583  )
        81           H   tau(  81) = (   0.4325147   0.1626780   1.0343955  )
        82           H   tau(  82) = (  -0.0371297   0.4794573   0.6706200  )
        83           H   tau(  83) = (   0.1644086   0.4708806   0.1022815  )
        84           H   tau(  84) = (   0.6340530   0.1541013   0.4660570  )
        85           H   tau(  85) = (   0.5262526   0.2696250   1.0244608  )
        86           H   tau(  86) = (  -0.1308677   0.5864043   0.6805547  )
        87           H   tau(  87) = (   0.0706707   0.3639336   0.1122162  )
        88           H   tau(  88) = (   0.7277910   0.0471543   0.4561223  )
        89           C   tau(  89) = (   0.6732103   0.0151844   0.0824270  )
        90           C   tau(  90) = (   0.1252514   0.3319637   0.4859115  )
        91           C   tau(  91) = (  -0.0762870   0.6183742   1.0542500  )
        92           C   tau(  92) = (   0.4716719   0.3015949   0.6507655  )
        93           H   tau(  93) = (   0.7250886   0.0972091   0.0720016  )
        94           H   tau(  94) = (   0.0733730   0.4139884   0.4963369  )
        95           H   tau(  95) = (  -0.1281653   0.5363495   1.0646755  )
        96           H   tau(  96) = (   0.5235503   0.2195702   0.6403401  )
        97           H   tau(  97) = (   0.6821669   0.6174347   0.1745311  )
        98           H   tau(  98) = (   0.1162947   0.3006554   0.3938074  )
        99           H   tau(  99) = (  -0.0852436   0.0161239   0.9621459  )
       100           H   tau( 100) = (   0.4806286   0.3329032   0.7428696  )
       101           H   tau( 101) = (   0.5792001   0.0346863   0.0649997  )
       102           H   tau( 102) = (   0.2192615   0.3514656   0.5033388  )
       103           H   tau( 103) = (   0.0177232   0.5988723   1.0716773  )
       104           H   tau( 104) = (   0.3776618   0.2820930   0.6333382  )
       105           N   tau( 105) = (   0.3009469   0.5906483   1.0085314  )
       106           N   tau( 106) = (   0.0944380   0.2738690   0.6964842  )
       107           N   tau( 107) = (   0.2959764   0.0429103   0.1281457  )
       108           N   tau( 108) = (   0.5024853   0.3596896   0.4401928  )
       109           C   tau( 109) = (   0.2231480   0.5190028   0.9548275  )
       110           C   tau( 110) = (   0.1722370   0.2022235   0.7501880  )
       111           C   tau( 111) = (   0.3737753   0.1145558   0.1818495  )
       112           C   tau( 112) = (   0.4246863   0.4313351   0.3864890  )
       113           C   tau( 113) = (   0.2375091   0.4447394   1.1326409  )
       114           C   tau( 114) = (   0.1578759   0.1279601   0.5723746  )
       115           C   tau( 115) = (   0.3594142   0.1888192   0.0040361  )
       116           C   tau( 116) = (   0.4390474   0.5055985   0.5643024  )

     number of k points=     8
                       cart. coord. in units 2pi/alat
        k(    1) = (   0.0000000   0.0000000   0.0000000), wk =   0.1666667
        k(    2) = (   0.0000000   0.0000000  -0.4398787), wk =   0.1666667
        k(    3) = (   0.0000000   0.5261287   0.0000000), wk =   0.3333333
        k(    4) = (   0.0000000   0.5261287  -0.4398787), wk =   0.3333333
        k(    5) = (  -0.5000000   0.0000000  -0.1773048), wk =   0.1666667
        k(    6) = (  -0.5000000   0.0000000  -0.6171835), wk =   0.1666667
        k(    7) = (  -0.5000000   0.5261287  -0.1773048), wk =   0.3333333
        k(    8) = (  -0.5000000   0.5261287  -0.6171835), wk =   0.3333333

     Dense  grid:   933771 G-vectors     FFT dimensions: ( 135,  90, 180)

     Estimated max dynamical RAM per process >     938.64MB

     Estimated total allocated dynamical RAM >    7509.09MB

     Check: negative/imaginary core charge=   -0.000002    0.000000

     Initial potential from superposition of free atoms

     starting charge  319.99842, renormalised to  320.00000
     Starting wfc are  272 randomized atomic wfcs
     Checking if some PAW data can be deallocated... 

     total cpu time spent up to now is       61.0 secs

     per-process dynamical memory:   654.1 Mb

     Self-consistent Calculation

     iteration #  1     ecut=   100.00 Ry     beta=0.50
     Davidson diagonalization with overlap
     ethr =  1.00E-02,  avg # of iterations =  4.0

     total cpu time spent up to now is      229.6 secs

     total energy              =   -1560.90324737 Ry
     Harris-Foulkes estimate   =   -1567.70502485 Ry
     estimated scf accuracy    <      12.32875810 Ry

     iteration #  2     ecut=   100.00 Ry     beta=0.50
     Davidson diagonalization with overlap
     ethr =  3.85E-03,  avg # of iterations =  3.1

     total cpu time spent up to now is      349.1 secs

     total energy              =   -1563.39819514 Ry
     Harris-Foulkes estimate   =   -1563.95968024 Ry
     estimated scf accuracy    <       1.32144257 Ry

     iteration #  3     ecut=   100.00 Ry     beta=0.50
     Davidson diagonalization with overlap
     ethr =  4.13E-04,  avg # of iterations =  7.2

     total cpu time spent up to now is      503.1 secs

     total energy              =   -1563.68003780 Ry
     Harris-Foulkes estimate   =   -1563.76346696 Ry
     estimated scf accuracy    <       0.25180224 Ry

     iteration #  4     ecut=   100.00 Ry     beta=0.50
     Davidson diagonalization with overlap
     ethr =  7.87E-05,  avg # of iterations =  5.9

     total cpu time spent up to now is      606.4 secs

     total energy              =   -1563.69529203 Ry
     Harris-Foulkes estimate   =   -1563.70636788 Ry
     estimated scf accuracy    <       0.03954276 Ry

     iteration #  5     ecut=   100.00 Ry     beta=0.50
     Davidson diagonalization with overlap
     ethr =  1.24E-05,  avg # of iterations =  8.2

     total cpu time spent up to now is      782.7 secs

     total energy              =   -1563.70702317 Ry
     Harris-Foulkes estimate   =   -1563.71324549 Ry
     estimated scf accuracy    <       0.01676936 Ry

     iteration #  6     ecut=   100.00 Ry     beta=0.50
     Davidson diagonalization with overlap
     ethr =  5.24E-06,  avg # of iterations =  1.2

     total cpu time spent up to now is      870.7 secs

     total energy              =   -1563.70451373 Ry
     Harris-Foulkes estimate   =   -1563.70792658 Ry
     estimated scf accuracy    <       0.00552836 Ry

     iteration #  7     ecut=   100.00 Ry     beta=0.50
     Davidson diagonalization with overlap
     ethr =  1.73E-06,  avg # of iterations =  5.8

     total cpu time spent up to now is     1044.8 secs

     total energy              =   -1563.70808463 Ry
     Harris-Foulkes estimate   =   -1563.70944472 Ry
     estimated scf accuracy    <       0.00424970 Ry

     iteration #  8     ecut=   100.00 Ry     beta=0.50
     Davidson diagonalization with overlap
     ethr =  1.33E-06,  avg # of iterations =  1.0

     total cpu time spent up to now is     1132.3 secs

     total energy              =   -1563.70740043 Ry
     Harris-Foulkes estimate   =   -1563.70821711 Ry
     estimated scf accuracy    <       0.00169315 Ry

     iteration #  9     ecut=   100.00 Ry     beta=0.50
     Davidson diagonalization with overlap
     ethr =  5.29E-07,  avg # of iterations =  4.0

     total cpu time spent up to now is     1260.5 secs

     total energy              =   -1563.70819786 Ry
     Harris-Foulkes estimate   =   -1563.70821367 Ry
     estimated scf accuracy    <       0.00018867 Ry

     iteration # 10     ecut=   100.00 Ry     beta=0.50
     Davidson diagonalization with overlap
     ethr =  5.90E-08,  avg # of iterations =  1.0

     total cpu time spent up to now is     1347.6 secs

     total energy              =   -1563.70813321 Ry
     Harris-Foulkes estimate   =   -1563.70820349 Ry
     estimated scf accuracy    <       0.00014718 Ry

     iteration # 11     ecut=   100.00 Ry     beta=0.50
     Davidson diagonalization with overlap
     ethr =  4.60E-08,  avg # of iterations =  3.0

     total cpu time spent up to now is     1460.6 secs

     total energy              =   -1563.70816405 Ry
     Harris-Foulkes estimate   =   -1563.70816482 Ry
     estimated scf accuracy    <       0.00000231 Ry

     iteration # 12     ecut=   100.00 Ry     beta=0.50
     Davidson diagonalization with overlap
     ethr =  7.21E-10,  avg # of iterations =  4.0

     total cpu time spent up to now is     1614.7 secs

     total energy              =   -1563.70816452 Ry
     Harris-Foulkes estimate   =   -1563.70816517 Ry
     estimated scf accuracy    <       0.00000179 Ry

     iteration # 13     ecut=   100.00 Ry     beta=0.50
     Davidson diagonalization with overlap
     ethr =  5.61E-10,  avg # of iterations =  1.0

     total cpu time spent up to now is     1701.8 secs

     total energy              =   -1563.70816427 Ry
     Harris-Foulkes estimate   =   -1563.70816461 Ry
     estimated scf accuracy    <       0.00000066 Ry

     iteration # 14     ecut=   100.00 Ry     beta=0.50
     Davidson diagonalization with overlap
     ethr =  2.05E-10,  avg # of iterations =  4.0

     total cpu time spent up to now is     1845.5 secs

     total energy              =   -1563.70816462 Ry
     Harris-Foulkes estimate   =   -1563.70816470 Ry
     estimated scf accuracy    <       0.00000026 Ry

     iteration # 15     ecut=   100.00 Ry     beta=0.50
     Davidson diagonalization with overlap
     ethr =  8.25E-11,  avg # of iterations =  1.0

     total cpu time spent up to now is     1931.5 secs

     total energy              =   -1563.70816454 Ry
     Harris-Foulkes estimate   =   -1563.70816462 Ry
     estimated scf accuracy    <       0.00000011 Ry

     iteration # 16     ecut=   100.00 Ry     beta=0.50
     Davidson diagonalization with overlap
     ethr =  3.58E-11,  avg # of iterations =  4.0

     total cpu time spent up to now is     2088.5 secs

     total energy              =   -1563.70816462 Ry
     Harris-Foulkes estimate   =   -1563.70816465 Ry
     estimated scf accuracy    <       0.00000011 Ry

     iteration # 17     ecut=   100.00 Ry     beta=0.50
     Davidson diagonalization with overlap
     ethr =  3.35E-11,  avg # of iterations =  1.0

     total cpu time spent up to now is     2175.4 secs

     total energy              =   -1563.70816459 Ry
     Harris-Foulkes estimate   =   -1563.70816462 Ry
     estimated scf accuracy    <       0.00000005 Ry

     iteration # 18     ecut=   100.00 Ry     beta=0.50
     Davidson diagonalization with overlap
     ethr =  1.47E-11,  avg # of iterations =  4.0

     total cpu time spent up to now is     2322.3 secs

     total energy              =   -1563.70816462 Ry
     Harris-Foulkes estimate   =   -1563.70816463 Ry
     estimated scf accuracy    <       0.00000002 Ry

     iteration # 19     ecut=   100.00 Ry     beta=0.50
     Davidson diagonalization with overlap
     ethr =  4.81E-12,  avg # of iterations =  1.0

     total cpu time spent up to now is     2409.2 secs

     End of self-consistent calculation

          k = 0.0000 0.0000 0.0000 (116747 PWs)   bands (ev):

   -21.2080 -21.1994 -21.1556 -21.1542 -19.3295 -19.2446 -19.2033 -19.1125
   -19.0348 -19.0219 -18.9895 -18.9565 -18.8282 -18.8069 -18.7613 -18.7353
   -18.7283 -18.5279 -18.5059 -18.4106 -17.7135 -17.6939 -17.6458 -17.6387
   -16.6360 -16.5934 -16.5546 -16.4733 -15.0973 -15.0893 -15.0432 -15.0309
   -13.5858 -13.5473 -13.4399 -13.4352 -11.5156 -11.5112 -11.4299 -11.4279
   -10.8629 -10.7232 -10.6619 -10.6325  -9.5675  -9.4412  -9.3836  -9.3460
    -9.2016  -9.1772  -9.0156  -8.9172  -8.2604  -7.9877  -7.9262  -7.8355
    -7.5385  -7.3978  -7.3777  -7.3415  -7.1975  -7.1730  -7.1029  -7.0805
    -7.0366  -6.9944  -6.9437  -6.8869  -6.8441  -6.7714  -6.7506  -6.7075
    -6.6492  -6.5915  -6.4719  -6.2325  -6.1566  -6.1288  -6.0725  -6.0644
    -5.8427  -5.7531  -5.7245  -5.7201  -5.6929  -5.6439  -5.5609  -5.4858
    -5.1381  -5.1239  -4.9786  -4.8457  -4.6658  -4.4394  -4.3916  -4.3229
    -4.2753  -4.1678  -4.0827  -4.0281  -3.9886  -3.9706  -3.8446  -3.8091
    -3.7930  -3.7732  -3.7204  -3.6715  -3.6692  -3.6476  -3.5739  -3.5679
    -3.3154  -3.2966  -3.2661  -3.1264  -3.1095  -3.1001  -3.0817  -3.0756
    -3.0558  -3.0470  -2.9172  -2.7786  -2.7426  -2.5357  -2.5316  -2.2308
    -2.0459  -2.0119  -1.9015  -1.8999  -1.8779  -1.7652  -1.6207  -1.4745
    -1.4516  -1.4354  -1.4301  -1.4074  -1.3574  -1.3023  -1.2819  -1.2505
    -1.1127  -1.1057  -1.0817  -1.0563  -0.7300  -0.6793  -0.6291  -0.5215
    -0.5000  -0.4579  -0.3937  -0.3761   0.9999   1.0522   1.0838   1.0905
     4.0818   4.1141   4.1557   4.3235   4.8859   5.7006   6.0158   6.0796
     6.1451   6.1530   6.1983   6.2160   6.5291   6.6394   6.6513   7.0869
     7.2077   7.2204   7.4954   7.5574   7.6096   7.6324   7.6476   7.7215
     7.8158   7.8646   7.9331   7.9681   7.9727   8.1597   8.1753   8.3217

          k = 0.0000 0.0000-0.4399 (116704 PWs)   bands (ev):

   -21.2039 -21.2039 -21.1548 -21.1548 -19.3035 -19.3035 -19.1171 -19.1171
   -19.0505 -19.0505 -18.9982 -18.9982 -18.7953 -18.7953 -18.7384 -18.7384
   -18.6608 -18.6608 -18.4356 -18.4356 -17.6777 -17.6777 -17.6683 -17.6683
   -16.6155 -16.6155 -16.5122 -16.5122 -15.0936 -15.0936 -15.0367 -15.0367
   -13.5666 -13.5666 -13.4374 -13.4374 -11.5134 -11.5134 -11.4289 -11.4289
   -10.8028 -10.8028 -10.6382 -10.6382  -9.5254  -9.5254  -9.3417  -9.3417
    -9.1963  -9.1963  -8.9671  -8.9671  -8.1183  -8.1183  -7.8842  -7.8842
    -7.4736  -7.4736  -7.3049  -7.3049  -7.2244  -7.2244  -7.1640  -7.1640
    -6.9766  -6.9766  -6.9171  -6.9171  -6.8143  -6.8143  -6.6886  -6.6886
    -6.6386  -6.6386  -6.2749  -6.2749  -6.1901  -6.1901  -6.0910  -6.0910
    -5.8428  -5.8428  -5.7280  -5.7280  -5.6221  -5.6221  -5.5268  -5.5268
    -5.1172  -5.1172  -4.8998  -4.8998  -4.5998  -4.5998  -4.3518  -4.3518
    -4.1949  -4.1949  -4.0213  -4.0213  -3.9282  -3.9282  -3.9044  -3.9044
    -3.7829  -3.7829  -3.7461  -3.7461  -3.6202  -3.6202  -3.5758  -3.5758
    -3.3282  -3.3282  -3.1837  -3.1837  -3.0901  -3.0901  -3.0838  -3.0838
    -3.0319  -3.0319  -2.8270  -2.8270  -2.7241  -2.7241  -2.3274  -2.3274
    -1.9800  -1.9800  -1.9545  -1.9545  -1.8417  -1.8417  -1.5478  -1.5478
    -1.4350  -1.4350  -1.3982  -1.3982  -1.3665  -1.3665  -1.2410  -1.2410
    -1.1087  -1.1087  -1.0693  -1.0693  -0.6006  -0.6006  -0.5870  -0.5870
    -0.5278  -0.5278  -0.4257  -0.4257   1.0387   1.0387   1.0801   1.0801
     4.1016   4.1016   4.2357   4.2357   5.1798   5.1798   6.0294   6.0294
     6.1650   6.1650   6.2527   6.2527   6.6996   6.6996   6.9695   6.9695
     7.1366   7.1366   7.4243   7.4243   7.6115   7.6115   7.7456   7.7456
     7.8263   7.8263   7.9514   7.9514   8.1028   8.1028   8.1485   8.1485

          k = 0.0000 0.5261 0.0000 (116753 PWs)   bands (ev):

   -21.1936 -21.1876 -21.1668 -21.1656 -19.2968 -19.2238 -19.2153 -19.1725
   -19.0665 -19.0460 -18.9732 -18.9712 -18.8091 -18.8030 -18.7789 -18.7461
   -18.6339 -18.5439 -18.4922 -18.4325 -17.7069 -17.6962 -17.6471 -17.6443
   -16.6069 -16.5667 -16.5611 -16.5002 -15.0863 -15.0784 -15.0561 -15.0516
   -13.5731 -13.5166 -13.5055 -13.4556 -11.5161 -11.5140 -11.4281 -11.4271
   -10.8025 -10.6915 -10.6884 -10.6590  -9.5159  -9.4233  -9.4180  -9.3722
    -9.1894  -9.1579  -8.9938  -8.9304  -8.1843  -8.0073  -7.9319  -7.8575
    -7.4437  -7.4293  -7.4163  -7.2592  -7.2171  -7.1745  -7.1368  -7.1273
    -7.0286  -7.0032  -6.9825  -6.9366  -6.8601  -6.7775  -6.7378  -6.7059
    -6.5573  -6.4798  -6.4376  -6.2717  -6.1583  -6.1304  -6.1171  -6.0715
    -5.8710  -5.8397  -5.7324  -5.7100  -5.6662  -5.5930  -5.5626  -5.5422
    -5.1228  -5.0898  -5.0095  -4.9780  -4.6435  -4.4540  -4.3880  -4.2948
    -4.2362  -4.2235  -4.1611  -4.0632  -4.0009  -3.9914  -3.9698  -3.8713
    -3.7825  -3.7793  -3.6968  -3.6736  -3.6456  -3.5806  -3.4836  -3.4321
    -3.3538  -3.3309  -3.2740  -3.1943  -3.1923  -3.1564  -3.0503  -3.0246
    -2.9955  -2.9465  -2.8253  -2.7474  -2.7417  -2.6282  -2.4725  -2.3017
    -2.0694  -2.0324  -1.9208  -1.8885  -1.8127  -1.7371  -1.5692  -1.4947
    -1.4710  -1.4432  -1.4184  -1.4112  -1.3294  -1.3178  -1.2588  -1.2293
    -1.1427  -1.1339  -1.0878  -1.0736  -0.7300  -0.7014  -0.5805  -0.5315
    -0.5106  -0.4519  -0.4281  -0.3957   0.9819   1.0051   1.0677   1.0711
     4.1649   4.1787   4.2714   4.3513   5.2451   5.8942   5.9017   6.1126
     6.1634   6.2435   6.3892   6.4989   6.5143   6.7800   6.7840   6.8188
     6.8995   7.0207   7.2642   7.3582   7.3911   7.5407   7.5455   7.6265
     7.7103   7.7714   7.8558   7.9456   8.0571   8.1127   8.2794   8.2841

          k = 0.0000 0.5261-0.4399 (116702 PWs)   bands (ev):

   -21.1907 -21.1907 -21.1661 -21.1661 -19.2792 -19.2792 -19.1514 -19.1514
   -19.0893 -19.0893 -18.9738 -18.9738 -18.7931 -18.7931 -18.7514 -18.7514
   -18.6161 -18.6161 -18.4486 -18.4486 -17.6771 -17.6771 -17.6704 -17.6704
   -16.5849 -16.5849 -16.5317 -16.5317 -15.0826 -15.0826 -15.0536 -15.0536
   -13.5529 -13.5529 -13.4724 -13.4724 -11.5151 -11.5151 -11.4276 -11.4276
   -10.7525 -10.7525 -10.6694 -10.6694  -9.4877  -9.4877  -9.3774  -9.3774
    -9.1714  -9.1714  -8.9682  -8.9682  -8.0610  -8.0610  -7.9273  -7.9273
    -7.4378  -7.4378  -7.3341  -7.3341  -7.1929  -7.1929  -7.1464  -7.1464
    -7.0089  -7.0089  -6.9534  -6.9534  -6.8560  -6.8560  -6.7103  -6.7103
    -6.5427  -6.5427  -6.2583  -6.2583  -6.1651  -6.1651  -6.1005  -6.1005
    -5.8503  -5.8503  -5.7604  -5.7604  -5.6585  -5.6585  -5.5230  -5.5230
    -5.0974  -5.0974  -4.9807  -4.9807  -4.5715  -4.5715  -4.3642  -4.3642
    -4.1823  -4.1823  -4.1173  -4.1173  -3.9902  -3.9902  -3.9330  -3.9330
    -3.7792  -3.7792  -3.6793  -3.6793  -3.6065  -3.6065  -3.4707  -3.4707
    -3.3682  -3.3682  -3.2421  -3.2421  -3.1600  -3.1600  -3.0437  -3.0437
    -2.9473  -2.9473  -2.7641  -2.7641  -2.7174  -2.7174  -2.3802  -2.3802
    -2.0005  -2.0005  -1.9608  -1.9608  -1.7801  -1.7801  -1.5129  -1.5129
    -1.4601  -1.4601  -1.4174  -1.4174  -1.3328  -1.3328  -1.2416  -1.2416
    -1.1349  -1.1349  -1.0847  -1.0847  -0.6229  -0.6229  -0.5620  -0.5620
    -0.5250  -0.5250  -0.4526  -0.4526   1.0055   1.0055   1.0636   1.0636
     4.1988   4.1988   4.2843   4.2843   5.5048   5.5048   5.9734   5.9734
     6.2342   6.2342   6.4646   6.4646   6.6064   6.6064   6.9024   6.9024
     6.9980   6.9980   7.2376   7.2376   7.4916   7.4916   7.6129   7.6129
     7.8085   7.8085   7.9054   7.9054   8.0200   8.0200   8.1624   8.1624

          k =-0.5000 0.0000-0.1773 (116722 PWs)   bands (ev):

   -21.2077 -21.1996 -21.1554 -21.1546 -19.3305 -19.2603 -19.1898 -19.0589
   -19.0520 -19.0469 -19.0011 -18.9568 -18.8348 -18.8065 -18.7450 -18.7382
   -18.7319 -18.5251 -18.5109 -18.4082 -17.7135 -17.6941 -17.6426 -17.6415
   -16.6362 -16.5935 -16.5545 -16.4733 -15.0994 -15.0861 -15.0460 -15.0291
   -13.5903 -13.5418 -13.4459 -13.4306 -11.4855 -11.4803 -11.4637 -11.4605
   -10.8459 -10.7329 -10.6496 -10.6465  -9.5673  -9.4447  -9.3828  -9.3524
    -9.1820  -9.1573  -9.0381  -8.9326  -8.2602  -7.9892  -7.9269  -7.8297
    -7.4741  -7.4645  -7.4278  -7.2342  -7.2078  -7.1856  -7.1728  -7.1111
    -6.9998  -6.9634  -6.9524  -6.8903  -6.8257  -6.7831  -6.7254  -6.7149
    -6.6576  -6.5720  -6.4855  -6.2016  -6.1800  -6.1399  -6.0575  -6.0331
    -5.8325  -5.7722  -5.7581  -5.7335  -5.6822  -5.5938  -5.5719  -5.5572
    -5.1155  -5.0752  -4.9410  -4.9345  -4.6805  -4.4393  -4.3998  -4.2811
    -4.2279  -4.1836  -4.0856  -4.0112  -4.0024  -3.9209  -3.9038  -3.8590
    -3.7982  -3.7685  -3.7331  -3.7303  -3.6997  -3.5908  -3.4994  -3.4814
    -3.4222  -3.3406  -3.2862  -3.1860  -3.1466  -3.1238  -3.0949  -3.0454
    -2.9895  -2.9573  -2.9132  -2.7916  -2.7498  -2.5195  -2.5182  -2.2425
    -2.0728  -1.9948  -1.8847  -1.8727  -1.8632  -1.7167  -1.5705  -1.5360
    -1.4612  -1.4421  -1.4211  -1.3734  -1.3590  -1.3261  -1.3159  -1.2667
    -1.1167  -1.1022  -1.0802  -1.0684  -0.7314  -0.6893  -0.6174  -0.5142
    -0.5061  -0.4595  -0.4075  -0.3733   1.0040   1.0494   1.0843   1.0884
     4.0659   4.1235   4.1282   4.3546   5.1061   5.5847   5.8693   5.8791
     6.0939   6.1162   6.1809   6.2262   6.3187   6.7683   7.0738   7.1610
     7.4321   7.4439   7.4447   7.5716   7.6207   7.6551   7.6704   7.7081
     7.7861   7.8051   7.9278   7.9416   8.0107   8.0301   8.2502   8.2712

          k =-0.5000 0.0000-0.6172 (116792 PWs)   bands (ev):

   -21.2038 -21.2038 -21.1549 -21.1549 -19.3073 -19.3073 -19.0989 -19.0989
   -19.0459 -19.0459 -19.0202 -19.0202 -18.7873 -18.7873 -18.7464 -18.7464
   -18.6599 -18.6599 -18.4330 -18.4330 -17.6794 -17.6794 -17.6670 -17.6670
   -16.6156 -16.6156 -16.5121 -16.5121 -15.0942 -15.0942 -15.0360 -15.0360
   -13.5682 -13.5682 -13.4360 -13.4360 -11.4829 -11.4829 -11.4621 -11.4621
   -10.7967 -10.7967 -10.6412 -10.6412  -9.5252  -9.5252  -9.3456  -9.3456
    -9.1773  -9.1773  -8.9864  -8.9864  -8.1149  -8.1149  -7.8869  -7.8869
    -7.4669  -7.4669  -7.3509  -7.3509  -7.2308  -7.2308  -7.0881  -7.0881
    -6.9982  -6.9982  -6.9213  -6.9213  -6.8104  -6.8104  -6.7152  -6.7152
    -6.6224  -6.6224  -6.2892  -6.2892  -6.1737  -6.1737  -6.0341  -6.0341
    -5.8591  -5.8591  -5.7268  -5.7268  -5.6350  -5.6350  -5.5584  -5.5584
    -5.0865  -5.0865  -4.9339  -4.9339  -4.6251  -4.6251  -4.2520  -4.2520
    -4.2414  -4.2414  -4.0044  -4.0044  -3.9552  -3.9552  -3.9280  -3.9280
    -3.7751  -3.7751  -3.7349  -3.7349  -3.6507  -3.6507  -3.5392  -3.5392
    -3.3742  -3.3742  -3.2143  -3.2143  -3.1323  -3.1323  -3.0336  -3.0336
    -2.9731  -2.9731  -2.8235  -2.8235  -2.7459  -2.7459  -2.3161  -2.3161
    -1.9960  -1.9960  -1.9328  -1.9328  -1.8034  -1.8034  -1.5201  -1.5201
    -1.4380  -1.4380  -1.4367  -1.4367  -1.3168  -1.3168  -1.3091  -1.3091
    -1.1120  -1.1120  -1.0726  -1.0726  -0.5926  -0.5926  -0.5861  -0.5861
    -0.5290  -0.5290  -0.4336  -0.4336   1.0417   1.0417   1.0772   1.0772
     4.0887   4.0887   4.2439   4.2439   5.3170   5.3170   5.8296   5.8296
     6.0417   6.0417   6.1909   6.1909   6.8314   6.8314   7.2167   7.2167
     7.3214   7.3214   7.4797   7.4797   7.5716   7.5716   7.7108   7.7108
     7.7617   7.7617   7.8946   7.8946   7.9266   7.9266   8.2283   8.2283

          k =-0.5000 0.5261-0.1773 (116696 PWs)   bands (ev):

   -21.1935 -21.1876 -21.1670 -21.1654 -19.3005 -19.2253 -19.2233 -19.1518
   -19.0439 -19.0423 -19.0232 -18.9615 -18.8117 -18.8018 -18.7788 -18.7388
   -18.6276 -18.5479 -18.4925 -18.4342 -17.7063 -17.6964 -17.6458 -17.6455
   -16.6069 -16.5666 -16.5612 -16.5002 -15.0889 -15.0753 -15.0590 -15.0493
   -13.5706 -13.5186 -13.5010 -13.4609 -11.4820 -11.4794 -11.4655 -11.4639
   -10.7942 -10.7009 -10.6949 -10.6462  -9.5173  -9.4248  -9.4153  -9.3718
    -9.1875  -9.1757  -8.9753  -8.9280  -8.1782  -8.0098  -7.9386  -7.8503
    -7.4880  -7.3892  -7.3526  -7.3265  -7.2429  -7.2266  -7.2050  -7.0380
    -6.9712  -6.9573  -6.9460  -6.9429  -6.8589  -6.8368  -6.7398  -6.7273
    -6.5564  -6.4865  -6.4442  -6.2357  -6.1705  -6.1235  -6.1182  -6.0650
    -5.8615  -5.8072  -5.7445  -5.7305  -5.6536  -5.6287  -5.5970  -5.5681
    -5.1056  -5.0722  -4.9934  -4.9607  -4.6883  -4.4448  -4.3849  -4.3275
    -4.2579  -4.2181  -4.1144  -4.0254  -4.0029  -3.9966  -3.9317  -3.9174
    -3.7634  -3.7607  -3.7165  -3.6975  -3.6495  -3.5766  -3.4283  -3.4123
    -3.3550  -3.3285  -3.2705  -3.1907  -3.1759  -3.0974  -3.0914  -3.0809
    -3.0111  -2.9868  -2.8328  -2.7609  -2.7284  -2.6063  -2.4636  -2.3319
    -2.0930  -2.0318  -1.9126  -1.8939  -1.8298  -1.7431  -1.5121  -1.4951
    -1.4797  -1.4626  -1.4460  -1.3789  -1.3382  -1.2990  -1.2581  -1.2279
    -1.1418  -1.1304  -1.0833  -1.0747  -0.7316  -0.7091  -0.5809  -0.5360
    -0.5091  -0.4450  -0.4305  -0.3940   0.9854   1.0044   1.0668   1.0695
     4.1625   4.1891   4.2590   4.3704   5.5001   5.7523   5.9763   6.0391
     6.1062   6.1682   6.2388   6.3521   6.4415   6.5515   6.7802   6.8287
     7.1086   7.1147   7.3493   7.4290   7.4958   7.5998   7.6988   7.7690
     7.8342   7.8863   7.8934   7.9526   8.0316   8.0888   8.1807   8.2181

          k =-0.5000 0.5261-0.6172 (116724 PWs)   bands (ev):

   -21.1906 -21.1906 -21.1662 -21.1662 -19.2814 -19.2814 -19.1566 -19.1566
   -19.0540 -19.0540 -19.0099 -19.0099 -18.7917 -18.7917 -18.7404 -18.7404
   -18.6198 -18.6198 -18.4491 -18.4491 -17.6773 -17.6773 -17.6702 -17.6702
   -16.5850 -16.5850 -16.5316 -16.5316 -15.0835 -15.0835 -15.0527 -15.0527
   -13.5510 -13.5510 -13.4744 -13.4744 -11.4807 -11.4807 -11.4646 -11.4646
   -10.7518 -10.7518 -10.6676 -10.6676  -9.4874  -9.4874  -9.3747  -9.3747
    -9.1806  -9.1806  -8.9592  -8.9592  -8.0652  -8.0652  -7.9254  -7.9254
    -7.4339  -7.4339  -7.3387  -7.3387  -7.2377  -7.2377  -7.1280  -7.1280
    -6.9748  -6.9748  -6.9341  -6.9341  -6.8374  -6.8374  -6.7492  -6.7492
    -6.5484  -6.5484  -6.2700  -6.2700  -6.1621  -6.1621  -6.0721  -6.0721
    -5.8695  -5.8695  -5.7534  -5.7534  -5.6230  -5.6230  -5.5885  -5.5885
    -5.0779  -5.0779  -4.9803  -4.9803  -4.5993  -4.5993  -4.3574  -4.3574
    -4.2155  -4.2155  -4.0510  -4.0510  -3.9842  -3.9842  -3.9419  -3.9419
    -3.7400  -3.7400  -3.7307  -3.7307  -3.6125  -3.6125  -3.4112  -3.4112
    -3.3520  -3.3520  -3.2200  -3.2200  -3.1684  -3.1684  -3.0580  -3.0580
    -3.0240  -3.0240  -2.7821  -2.7821  -2.6823  -2.6823  -2.3834  -2.3834
    -2.0188  -2.0188  -1.9554  -1.9554  -1.7918  -1.7918  -1.5237  -1.5237
    -1.4520  -1.4520  -1.4173  -1.4173  -1.3118  -1.3118  -1.2392  -1.2392
    -1.1392  -1.1392  -1.0801  -1.0801  -0.6217  -0.6217  -0.5597  -0.5597
    -0.5262  -0.5262  -0.4521  -0.4521   1.0069   1.0069   1.0622   1.0622
     4.2020   4.2020   4.2859   4.2859   5.6302   5.6302   5.9220   5.9220
     6.1641   6.1641   6.2533   6.2533   6.6658   6.6658   6.8153   6.8153
     7.0800   7.0800   7.3833   7.3833   7.5108   7.5108   7.6946   7.6946
     7.8216   7.8216   7.9731   7.9731   8.0648   8.0648   8.2083   8.2083

     highest occupied, lowest unoccupied level (ev):     1.0905    4.0659

!    total energy              =   -1563.70816461 Ry
     Harris-Foulkes estimate   =   -1563.70816462 Ry
     estimated scf accuracy    <          9.6E-09 Ry

     total all-electron energy =     -5761.321013 Ry

     The total energy is the sum of the following terms:

     one-electron contribution =    -937.99553669 Ry
     hartree contribution      =     587.77916533 Ry
     xc contribution           =    -335.30729046 Ry
     ewald contribution        =    -460.20539223 Ry
     Dispersion Correction     =      -0.46229195 Ry
     one-center paw contrib.   =    -417.51681861 Ry

     convergence has been achieved in  19 iterations

     Forces acting on atoms (cartesian axes, Ry/au):

     atom    1 type  4   force =    -0.00057992   -0.00062154    0.00015722
     atom    2 type  4   force =     0.00057992   -0.00062154   -0.00015722
     atom    3 type  4   force =     0.00057992    0.00062154   -0.00015722
     atom    4 type  4   force =    -0.00057992    0.00062154    0.00015722
     atom    5 type  1   force =     0.00058151   -0.00223269   -0.00276192
     atom    6 type  1   force =    -0.00058151   -0.00223269    0.00276192
     atom    7 type  1   force =    -0.00058151    0.00223269    0.00276192
     atom    8 type  1   force =     0.00058151    0.00223269   -0.00276192
     atom    9 type  2   force =     0.00004078   -0.00074875    0.00104274
     atom   10 type  2   force =    -0.00004078   -0.00074875   -0.00104274
     atom   11 type  2   force =    -0.00004078    0.00074875   -0.00104274
     atom   12 type  2   force =     0.00004078    0.00074875    0.00104274
     atom   13 type  3   force =     0.00019779    0.00100711    0.00073710
     atom   14 type  3   force =    -0.00019779    0.00100711   -0.00073710
     atom   15 type  3   force =    -0.00019779   -0.00100711   -0.00073710
     atom   16 type  3   force =     0.00019779   -0.00100711    0.00073710
     atom   17 type  3   force =    -0.00053976   -0.00033483   -0.00022272
     atom   18 type  3   force =     0.00053976   -0.00033483    0.00022272
     atom   19 type  3   force =     0.00053976    0.00033483    0.00022272
     atom   20 type  3   force =    -0.00053976    0.00033483   -0.00022272
     atom   21 type  4   force =    -0.00063666   -0.00096712   -0.00014523
     atom   22 type  4   force =     0.00063666   -0.00096712    0.00014523
     atom   23 type  4   force =     0.00063666    0.00096712    0.00014523
     atom   24 type  4   force =    -0.00063666    0.00096712   -0.00014523
     atom   25 type  3   force =     0.00078257    0.00010042   -0.00006000
     atom   26 type  3   force =    -0.00078257    0.00010042    0.00006000
     atom   27 type  3   force =    -0.00078257   -0.00010042    0.00006000
     atom   28 type  3   force =     0.00078257   -0.00010042   -0.00006000
     atom   29 type  3   force =     0.00016674   -0.00035414    0.00050620
     atom   30 type  3   force =    -0.00016674   -0.00035414   -0.00050620
     atom   31 type  3   force =    -0.00016674    0.00035414   -0.00050620
     atom   32 type  3   force =     0.00016674    0.00035414    0.00050620
     atom   33 type  4   force =     0.00014594   -0.00016827    0.00039840
     atom   34 type  4   force =    -0.00014594   -0.00016827   -0.00039840
     atom   35 type  4   force =    -0.00014594    0.00016827   -0.00039840
     atom   36 type  4   force =     0.00014594    0.00016827    0.00039840
     atom   37 type  3   force =    -0.00006418   -0.00022825    0.00046873
     atom   38 type  3   force =     0.00006418   -0.00022825   -0.00046873
     atom   39 type  3   force =     0.00006418    0.00022825   -0.00046873
     atom   40 type  3   force =    -0.00006418    0.00022825    0.00046873
     atom   41 type  3   force =     0.00038237    0.00034895    0.00012477
     atom   42 type  3   force =    -0.00038237    0.00034895   -0.00012477
     atom   43 type  3   force =    -0.00038237   -0.00034895   -0.00012477
     atom   44 type  3   force =     0.00038237   -0.00034895    0.00012477
     atom   45 type  2   force =    -0.00022129   -0.00050640   -0.00029139
     atom   46 type  2   force =     0.00022129   -0.00050640    0.00029139
     atom   47 type  2   force =     0.00022129    0.00050640    0.00029139
     atom   48 type  2   force =    -0.00022129    0.00050640   -0.00029139
     atom   49 type  3   force =     0.00030341    0.00068010   -0.00043584
     atom   50 type  3   force =    -0.00030341    0.00068010    0.00043584
     atom   51 type  3   force =    -0.00030341   -0.00068010    0.00043584
     atom   52 type  3   force =     0.00030341   -0.00068010   -0.00043584
     atom   53 type  3   force =    -0.00037023   -0.00030955   -0.00005349
     atom   54 type  3   force =     0.00037023   -0.00030955    0.00005349
     atom   55 type  3   force =     0.00037023    0.00030955    0.00005349
     atom   56 type  3   force =    -0.00037023    0.00030955   -0.00005349
     atom   57 type  2   force =    -0.00204131    0.00045509   -0.00022023
     atom   58 type  2   force =     0.00204131    0.00045509    0.00022023
     atom   59 type  2   force =     0.00204131   -0.00045509    0.00022023
     atom   60 type  2   force =    -0.00204131   -0.00045509   -0.00022023
     atom   61 type  1   force =    -0.00052283   -0.00077535    0.00050064
     atom   62 type  1   force =     0.00052283   -0.00077535   -0.00050064
     atom   63 type  1   force =     0.00052283    0.00077535   -0.00050064
     atom   64 type  1   force =    -0.00052283    0.00077535    0.00050064
     atom   65 type  3   force =    -0.00035510   -0.00014797   -0.00081923
     atom   66 type  3   force =     0.00035510   -0.00014797    0.00081923
     atom   67 type  3   force =     0.00035510    0.00014797    0.00081923
     atom   68 type  3   force =    -0.00035510    0.00014797   -0.00081923
     atom   69 type  3   force =     0.00086099    0.00067528   -0.00096986
     atom   70 type  3   force =    -0.00086099    0.00067528    0.00096986
     atom   71 type  3   force =    -0.00086099   -0.00067528    0.00096986
     atom   72 type  3   force =     0.00086099   -0.00067528   -0.00096986
     atom   73 type  3   force =     0.00013973   -0.00051843   -0.00002913
     atom   74 type  3   force =    -0.00013973   -0.00051843    0.00002913
     atom   75 type  3   force =    -0.00013973    0.00051843    0.00002913
     atom   76 type  3   force =     0.00013973    0.00051843   -0.00002913
     atom   77 type  4   force =     0.00108872    0.00016992    0.00103265
     atom   78 type  4   force =    -0.00108872    0.00016992   -0.00103265
     atom   79 type  4   force =    -0.00108872   -0.00016992   -0.00103265
     atom   80 type  4   force =     0.00108872   -0.00016992    0.00103265
     atom   81 type  3   force =    -0.00076657   -0.00063734    0.00014034
     atom   82 type  3   force =     0.00076657   -0.00063734   -0.00014034
     atom   83 type  3   force =     0.00076657    0.00063734   -0.00014034
     atom   84 type  3   force =    -0.00076657    0.00063734    0.00014034
     atom   85 type  3   force =     0.00041843   -0.00005556    0.00018220
     atom   86 type  3   force =    -0.00041843   -0.00005556   -0.00018220
     atom   87 type  3   force =    -0.00041843    0.00005556   -0.00018220
     atom   88 type  3   force =     0.00041843    0.00005556    0.00018220
     atom   89 type  1   force =    -0.00241371   -0.00020694    0.00134860
     atom   90 type  1   force =     0.00241371   -0.00020694   -0.00134860
     atom   91 type  1   force =     0.00241371    0.00020694   -0.00134860
     atom   92 type  1   force =    -0.00241371    0.00020694    0.00134860
     atom   93 type  3   force =     0.00050516    0.00071873   -0.00063496
     atom   94 type  3   force =    -0.00050516    0.00071873    0.00063496
     atom   95 type  3   force =    -0.00050516   -0.00071873    0.00063496
     atom   96 type  3   force =     0.00050516   -0.00071873   -0.00063496
     atom   97 type  3   force =     0.00019497    0.00026721   -0.00002928
     atom   98 type  3   force =    -0.00019497    0.00026721    0.00002928
     atom   99 type  3   force =    -0.00019497   -0.00026721    0.00002928
     atom  100 type  3   force =     0.00019497   -0.00026721   -0.00002928
     atom  101 type  3   force =    -0.00015111    0.00034536   -0.00050225
     atom  102 type  3   force =     0.00015111    0.00034536    0.00050225
     atom  103 type  3   force =     0.00015111   -0.00034536    0.00050225
     atom  104 type  3   force =    -0.00015111   -0.00034536   -0.00050225
     atom  105 type  2   force =     0.00167382    0.00057855    0.00071220
     atom  106 type  2   force =    -0.00167382    0.00057855   -0.00071220
     atom  107 type  2   force =    -0.00167382   -0.00057855   -0.00071220
     atom  108 type  2   force =     0.00167382   -0.00057855    0.00071220
     atom  109 type  1   force =    -0.00001308   -0.00044041    0.00227517
     atom  110 type  1   force =     0.00001308   -0.00044041   -0.00227517
     atom  111 type  1   force =     0.00001308    0.00044041   -0.00227517
     atom  112 type  1   force =    -0.00001308    0.00044041    0.00227517
     atom  113 type  1   force =     0.00223981    0.00215108   -0.00217942
     atom  114 type  1   force =    -0.00223981    0.00215108    0.00217942
     atom  115 type  1   force =    -0.00223981   -0.00215108    0.00217942
     atom  116 type  1   force =     0.00223981   -0.00215108   -0.00217942

     Total force =     0.016372     Total SCF correction =     0.000174


     Computing stress (Cartesian axis) and pressure

          total   stress  (Ry/bohr**3)                   (kbar)     P=   -9.65
  -0.00007340   0.00000000   0.00000283        -10.80      0.00      0.42
   0.00000000  -0.00007151   0.00000000          0.00    -10.52      0.00
   0.00000283   0.00000000  -0.00005184          0.42      0.00     -7.63


     Writing output data file scf.save
 
     init_run     :     58.80s CPU     60.38s WALL (       1 calls)
     electrons    :   2274.38s CPU   2348.35s WALL (       1 calls)
     forces       :     28.88s CPU     29.11s WALL (       1 calls)
     stress       :    120.00s CPU    120.39s WALL (       1 calls)

     Called by init_run:
     wfcinit      :     47.24s CPU     48.67s WALL (       1 calls)
     potinit      :      4.11s CPU      4.15s WALL (       1 calls)

     Called by electrons:
     c_bands      :   2027.76s CPU   2091.49s WALL (      19 calls)
     sum_band     :    228.06s CPU    236.66s WALL (      19 calls)
     v_of_rho     :      3.11s CPU      3.34s WALL (      20 calls)
     newd         :      7.10s CPU      8.50s WALL (      20 calls)
     PAW_pot      :      7.45s CPU      7.45s WALL (      20 calls)
     mix_rho      :      0.68s CPU      0.71s WALL (      19 calls)

     Called by c_bands:
     init_us_2    :      9.91s CPU      9.95s WALL (     328 calls)
     cegterg      :   1985.68s CPU   2049.32s WALL (     152 calls)

     Called by sum_band:
     sum_band:bec :      0.09s CPU      0.09s WALL (     152 calls)
     addusdens    :      6.91s CPU      8.25s WALL (      19 calls)

     Called by *egterg:
     h_psi        :   1126.76s CPU   1175.13s WALL (     676 calls)
     s_psi        :    220.42s CPU    220.42s WALL (     676 calls)
     g_psi        :      4.49s CPU      4.49s WALL (     516 calls)
     cdiaghg      :     92.86s CPU     92.84s WALL (     668 calls)

     Called by h_psi:
     h_psi:pot    :   1120.64s CPU   1168.91s WALL (     676 calls)
     h_psi:calbec :    226.02s CPU    226.42s WALL (     676 calls)
     vloc_psi     :    674.39s CPU    722.27s WALL (     676 calls)
     add_vuspsi   :    220.22s CPU    220.22s WALL (     676 calls)

     General routines
     calbec       :    336.39s CPU    336.99s WALL (     868 calls)
     fft          :      4.91s CPU      5.29s WALL (     284 calls)
     fftw         :    747.78s CPU    802.51s WALL (  189534 calls)
 
     Parallel routines
     fft_scatter  :    222.34s CPU    276.97s WALL (  189818 calls)
 
     PWSCF        : 41m33.92s CPU    43m39.39s WALL

 
   This run was terminated on:   5:41: 5  18Dec2017            

=------------------------------------------------------------------------------=
   JOB DONE.
=------------------------------------------------------------------------------=
