
     Program PWSCF v.6.1 (svn rev. 13369) starts on  8Dec2017 at  0:14:20 

     This program is part of the open-source Quantum ESPRESSO suite
     for quantum simulation of materials; please cite
         "P. Giannozzi et al., J. Phys.:Condens. Matter 21 395502 (2009);
          URL http://www.quantum-espresso.org", 
     in publications or presentations arising from this work. More details at
     http://www.quantum-espresso.org/quote

     Parallel version (MPI), running on     8 processors
     R & G space division:  proc/nbgrp/npool/nimage =       8
     Waiting for input...
     Reading input from standard input

     Current dimensions of program PWSCF are:
     Max number of different atomic species (ntypx) = 10
     Max number of k-points (npk) =  40000
     Max angular momentum in pseudopotentials (lmaxx) =  3
               file C.pbe-n-kjpaw_psl.0.1.UPF: wavefunction(s)  2P renormalized
               file N.pbe-n-kjpaw_psl.0.1.UPF: wavefunction(s)  2P renormalized
               file H.pbe-kjpaw_psl.0.1.UPF: wavefunction(s)  1S renormalized
               file O.pbe-n-kjpaw_psl.0.1.UPF: wavefunction(s)  2P renormalized

     -------------------------------------
     Parameters for Dispersion Correction:
     -------------------------------------
       atom      VdW radius       C_6     

        C          2.744         60.710
        N          2.640         42.670
        H          1.892          4.857
        O          2.536         24.284

     Subspace diagonalization in iterative solution of the eigenvalue problem:
     a serial algorithm will be used

 
     Parallelization info
     --------------------
     sticks:   dense  smooth     PW     G-vecs:    dense   smooth      PW
     Min         490     490    133                45081    45081    6342
     Max         491     491    134                45084    45084    6346
     Sum        3925    3925   1067               360655   360655   50751
 


     bravais-lattice index     =            0
     lattice parameter (alat)  =       9.1952  a.u.
     unit-cell volume          =    2669.1218 (a.u.)^3
     number of atoms/cell      =           42
     number of atomic types    =            4
     number of electrons       =       152.00
     number of Kohn-Sham states=           91
     kinetic-energy cutoff     =     100.0000  Ry
     charge density cutoff     =     400.0000  Ry
     convergence threshold     =      1.0E-08
     mixing beta               =       0.5000
     number of iterations used =            8  plain     mixing
     Exchange-correlation      =  SLA  PW   PBX  PBC ( 1  4  3  4 0 0)

     celldm(1)=   9.195218  celldm(2)=   0.000000  celldm(3)=   0.000000
     celldm(4)=   0.000000  celldm(5)=   0.000000  celldm(6)=   0.000000

     crystal axes: (cart. coord. in units of alat)
               a(1) = (   1.000000   0.000000   0.000000 )  
               a(2) = (  -0.457581   1.455335   0.000000 )  
               a(3) = (  -0.100761  -0.332127   2.358952 )  

     reciprocal axes: (cart. coord. in units 2 pi/alat)
               b(1) = (  1.000000  0.314416  0.086982 )  
               b(2) = (  0.000000  0.687127  0.096744 )  
               b(3) = (  0.000000  0.000000  0.423917 )  


     PseudoPot. # 1 for  C read from file:
     /scratch/ahofstet/pseudo/C.pbe-n-kjpaw_psl.0.1.UPF
     MD5 check sum: 430fe95172b1e11ef3f8ed03bac87931
     Pseudo is Projector augmented-wave + core cor, Zval =  4.0
     Generated using "atomic" code by A. Dal Corso  v.5.0.99 svn rev. 10869
     Shape of augmentation charge: BESSEL
     Using radial grid of 1073 points,  4 beta functions with: 
                l(1) =   0
                l(2) =   0
                l(3) =   1
                l(4) =   1
     Q(r) pseudized with 0 coefficients 


     PseudoPot. # 2 for  N read from file:
     /scratch/ahofstet/pseudo/N.pbe-n-kjpaw_psl.0.1.UPF
     MD5 check sum: f73187c8b701007e77325f868c9291d7
     Pseudo is Projector augmented-wave + core cor, Zval =  5.0
     Generated using "atomic" code by A. Dal Corso  v.5.0.99 svn rev. 10869
     Shape of augmentation charge: PSQ
     Using radial grid of 1085 points,  4 beta functions with: 
                l(1) =   0
                l(2) =   0
                l(3) =   1
                l(4) =   1
     Q(r) pseudized with 0 coefficients 


     PseudoPot. # 3 for  H read from file:
     /scratch/ahofstet/pseudo/H.pbe-kjpaw_psl.0.1.UPF
     MD5 check sum: 94e484f906d9e9773b2f6e52662335b2
     Pseudo is Projector augmented-wave, Zval =  1.0
     Generated using "atomic" code by A. Dal Corso  v.5.0.99 svn rev. 10869
     Shape of augmentation charge: PSQ
     Using radial grid of  929 points,  2 beta functions with: 
                l(1) =   0
                l(2) =   0
     Q(r) pseudized with 0 coefficients 


     PseudoPot. # 4 for  O read from file:
     /scratch/ahofstet/pseudo/O.pbe-n-kjpaw_psl.0.1.UPF
     MD5 check sum: 3f94a2996a3169367d6eb21d9b593f20
     Pseudo is Projector augmented-wave + core cor, Zval =  6.0
     Generated using "atomic" code by A. Dal Corso  v.5.0.99 svn rev. 10869
     Shape of augmentation charge: BESSEL
     Using radial grid of 1095 points,  4 beta functions with: 
                l(1) =   0
                l(2) =   0
                l(3) =   1
                l(4) =   1
     Q(r) pseudized with 0 coefficients 


     atomic species   valence    mass     pseudopotential
        C              4.00    12.01070      C( 1.00)
        N              5.00    14.00670      N( 1.00)
        H              1.00     1.00794      H( 1.00)
        O              6.00    15.99940      O( 1.00)

      2 Sym. Ops., with inversion, found



   Cartesian axes

     site n.     atom                  positions (alat units)
         1           N   tau(   1) = (   0.1462425   1.0419449   0.3656125  )
         2           N   tau(   2) = (   0.2954154   0.0812633   1.9933396  )
         3           N   tau(   3) = (   0.6060287   1.0026307   0.7002730  )
         4           N   tau(   4) = (  -0.1643708   0.1205774   1.6586791  )
         5           O   tau(   5) = (   0.3882832   0.1705724   0.4076924  )
         6           O   tau(   6) = (   0.0533747   0.9526358   1.9512598  )
         7           O   tau(   7) = (   0.7497552   0.4493121   0.0635116  )
         8           O   tau(   8) = (  -0.3080973   0.6738961   2.2954405  )
         9           H   tau(   9) = (   0.5286725   0.0908197   2.2532817  )
        10           H   tau(  10) = (  -0.0870146   1.0323885   0.1056704  )
        11           O   tau(  11) = (   0.2532298  -0.0220165   0.9778185  )
        12           O   tau(  12) = (   0.1884281   1.1452247   1.3811336  )
        13           H   tau(  13) = (   0.3067031   0.1349449   1.1130332  )
        14           H   tau(  14) = (   0.1349548   0.9882633   1.2459190  )
        15           O   tau(  15) = (  -0.0880664   0.2552182   0.8201496  )
        16           O   tau(  16) = (   0.5297242   0.8679900   1.5388026  )
        17           C   tau(  17) = (   0.4980653   0.7813911   0.5819133  )
        18           C   tau(  18) = (  -0.0564074   0.3418171   1.7770389  )
        19           H   tau(  19) = (   0.6011194   0.5853264   0.6113992  )
        20           H   tau(  20) = (  -0.1594615   0.5378818   1.7475529  )
        21           C   tau(  21) = (   0.2555966   0.7994696   0.4284609  )
        22           C   tau(  22) = (   0.1860613   0.3237385   1.9304912  )
        23           H   tau(  23) = (   0.1516620   0.6158310   0.3553389  )
        24           H   tau(  24) = (   0.2899959   0.5073772   2.0036132  )
        25           C   tau(  25) = (   0.2682669   1.2694562   0.4689658  )
        26           C   tau(  26) = (   0.1733910  -0.1462480   1.8899864  )
        27           C   tau(  27) = (   0.4853037   1.2489001   0.6557798  )
        28           C   tau(  28) = (  -0.0436458  -0.1256919   1.7031723  )
        29           C   tau(  29) = (   0.6198442   0.0811936   0.3556065  )
        30           C   tau(  30) = (  -0.1781863   1.0420146   2.0033456  )
        31           N   tau(  31) = (   0.7982306   0.1869482   0.1670571  )
        32           N   tau(  32) = (  -0.3565727   0.9362600   2.1918951  )
        33           H   tau(  33) = (   0.0050049   0.1431041   0.1818879  )
        34           H   tau(  34) = (   0.4366530   0.9801041   2.1770642  )
        35           C   tau(  35) = (   0.0391773   0.0360337   0.8242948  )
        36           C   tau(  36) = (   0.4024806   1.0871744   1.5346573  )
        37           O   tau(  37) = (   0.0416862   0.8183388   0.9982373  )
        38           O   tau(  38) = (   0.3999717   0.3048694   1.3607148  )
        39           H   tau(  39) = (  -0.1208354   0.9102408   0.9099623  )
        40           H   tau(  40) = (   0.5624932   0.2129674   1.4489898  )
        41           H   tau(  41) = (   0.0061456   0.6201690   0.9869156  )
        42           H   tau(  42) = (   0.4355123   0.5030392   1.3720366  )

     number of k points=    14
                       cart. coord. in units 2pi/alat
        k(    1) = (   0.0000000   0.0000000   0.0000000), wk =   0.0833333
        k(    2) = (   0.0000000   0.0000000  -0.2119585), wk =   0.0833333
        k(    3) = (   0.0000000   0.2290423   0.0322479), wk =   0.1666667
        k(    4) = (   0.0000000   0.2290423  -0.1797106), wk =   0.1666667
        k(    5) = (   0.2500000   0.0786041   0.0217456), wk =   0.1666667
        k(    6) = (   0.2500000   0.0786041  -0.1902129), wk =   0.1666667
        k(    7) = (   0.2500000   0.3076464   0.0539935), wk =   0.1666667
        k(    8) = (   0.2500000   0.3076464  -0.1579651), wk =   0.1666667
        k(    9) = (   0.2500000  -0.1504382  -0.0105023), wk =   0.1666667
        k(   10) = (   0.2500000  -0.1504382  -0.2224608), wk =   0.1666667
        k(   11) = (  -0.5000000  -0.1572082  -0.0434912), wk =   0.0833333
        k(   12) = (  -0.5000000  -0.1572082  -0.2554497), wk =   0.0833333
        k(   13) = (  -0.5000000   0.0718341  -0.0112433), wk =   0.1666667
        k(   14) = (  -0.5000000   0.0718341  -0.2232018), wk =   0.1666667

     Dense  grid:   360655 G-vectors     FFT dimensions: (  60,  90, 144)

     Estimated max dynamical RAM per process >     232.78MB

     Estimated total allocated dynamical RAM >    1862.27MB

     Check: negative/imaginary core charge=   -0.000003    0.000000

     Initial potential from superposition of free atoms

     starting charge  151.99931, renormalised to  152.00000
     Starting wfc are  126 randomized atomic wfcs
     Checking if some PAW data can be deallocated... 

     total cpu time spent up to now is       14.8 secs

     per-process dynamical memory:   246.1 Mb

     Self-consistent Calculation

     iteration #  1     ecut=   100.00 Ry     beta=0.50
     Davidson diagonalization with overlap
     ethr =  1.00E-02,  avg # of iterations =  3.0

     total cpu time spent up to now is       44.3 secs

     total energy              =    -822.90125375 Ry
     Harris-Foulkes estimate   =    -825.04550741 Ry
     estimated scf accuracy    <       3.97284614 Ry

     iteration #  2     ecut=   100.00 Ry     beta=0.50
     Davidson diagonalization with overlap
     ethr =  2.61E-03,  avg # of iterations =  2.4

     total cpu time spent up to now is       64.1 secs

     total energy              =    -823.50231927 Ry
     Harris-Foulkes estimate   =    -823.89252529 Ry
     estimated scf accuracy    <       0.81716488 Ry

     iteration #  3     ecut=   100.00 Ry     beta=0.50
     Davidson diagonalization with overlap
     ethr =  5.38E-04,  avg # of iterations =  6.1

     total cpu time spent up to now is       88.4 secs

     total energy              =    -823.70284309 Ry
     Harris-Foulkes estimate   =    -823.77796484 Ry
     estimated scf accuracy    <       0.18454622 Ry

     iteration #  4     ecut=   100.00 Ry     beta=0.50
     Davidson diagonalization with overlap
     ethr =  1.21E-04,  avg # of iterations =  4.6

     total cpu time spent up to now is      107.7 secs

     total energy              =    -823.73186205 Ry
     Harris-Foulkes estimate   =    -823.74035984 Ry
     estimated scf accuracy    <       0.02655214 Ry

     iteration #  5     ecut=   100.00 Ry     beta=0.50
     Davidson diagonalization with overlap
     ethr =  1.75E-05,  avg # of iterations =  6.9

     total cpu time spent up to now is      136.3 secs

     total energy              =    -823.73916115 Ry
     Harris-Foulkes estimate   =    -823.73978076 Ry
     estimated scf accuracy    <       0.00262041 Ry

     iteration #  6     ecut=   100.00 Ry     beta=0.50
     Davidson diagonalization with overlap
     ethr =  1.72E-06,  avg # of iterations =  3.8

     total cpu time spent up to now is      157.5 secs

     total energy              =    -823.73957776 Ry
     Harris-Foulkes estimate   =    -823.73964471 Ry
     estimated scf accuracy    <       0.00031730 Ry

     iteration #  7     ecut=   100.00 Ry     beta=0.50
     Davidson diagonalization with overlap
     ethr =  2.09E-07,  avg # of iterations =  3.0

     total cpu time spent up to now is      181.3 secs

     total energy              =    -823.73966706 Ry
     Harris-Foulkes estimate   =    -823.73970257 Ry
     estimated scf accuracy    <       0.00010977 Ry

     iteration #  8     ecut=   100.00 Ry     beta=0.50
     Davidson diagonalization with overlap
     ethr =  7.22E-08,  avg # of iterations =  2.0

     total cpu time spent up to now is      198.5 secs

     total energy              =    -823.73968245 Ry
     Harris-Foulkes estimate   =    -823.73968632 Ry
     estimated scf accuracy    <       0.00001524 Ry

     iteration #  9     ecut=   100.00 Ry     beta=0.50
     Davidson diagonalization with overlap
     ethr =  1.00E-08,  avg # of iterations =  4.0

     total cpu time spent up to now is      225.9 secs

     total energy              =    -823.73968936 Ry
     Harris-Foulkes estimate   =    -823.73969139 Ry
     estimated scf accuracy    <       0.00000631 Ry

     iteration # 10     ecut=   100.00 Ry     beta=0.50
     Davidson diagonalization with overlap
     ethr =  4.15E-09,  avg # of iterations =  1.4

     total cpu time spent up to now is      241.9 secs

     total energy              =    -823.73968911 Ry
     Harris-Foulkes estimate   =    -823.73968993 Ry
     estimated scf accuracy    <       0.00000179 Ry

     iteration # 11     ecut=   100.00 Ry     beta=0.50
     Davidson diagonalization with overlap
     ethr =  1.18E-09,  avg # of iterations =  3.0

     total cpu time spent up to now is      267.3 secs

     total energy              =    -823.73968994 Ry
     Harris-Foulkes estimate   =    -823.73969000 Ry
     estimated scf accuracy    <       0.00000026 Ry

     iteration # 12     ecut=   100.00 Ry     beta=0.50
     Davidson diagonalization with overlap
     ethr =  1.71E-10,  avg # of iterations =  2.0

     total cpu time spent up to now is      284.0 secs

     total energy              =    -823.73968992 Ry
     Harris-Foulkes estimate   =    -823.73968997 Ry
     estimated scf accuracy    <       0.00000011 Ry

     iteration # 13     ecut=   100.00 Ry     beta=0.50
     Davidson diagonalization with overlap
     ethr =  7.15E-11,  avg # of iterations =  3.0

     total cpu time spent up to now is      308.7 secs

     End of self-consistent calculation

          k = 0.0000 0.0000 0.0000 ( 45115 PWs)   bands (ev):

   -20.4150 -20.3117 -20.2296 -20.1780 -18.8419 -18.7971 -18.0788 -18.0481
   -17.9760 -17.9748 -17.5506 -17.4703 -16.0588 -16.0533 -14.5697 -14.3478
   -12.8141 -12.7926 -10.4121 -10.3872  -9.8820  -9.7964  -8.6182  -8.2814
    -8.1733  -8.0441  -7.2320  -6.7618  -6.5043  -6.4667  -6.2569  -6.1235
    -5.7752  -5.5295  -5.3631  -5.3540  -5.0767  -4.9408  -4.5488  -4.5415
    -4.3601  -4.1442  -4.1272  -3.7879  -3.6142  -3.5861  -3.3318  -3.3158
    -2.9828  -2.9602  -2.6833  -2.4868  -2.4386  -2.3363  -1.9194  -1.8638
    -1.4526  -1.3823  -0.9804  -0.7035  -0.6204  -0.5501  -0.3921  -0.2248
    -0.0692  -0.0233   0.1168   0.1245   0.2936   0.3582   0.4311   0.4612
     0.7807   0.8182   1.0713   1.1035   4.0561   4.0584   4.4836   4.4881
     6.0716   6.2101   6.8964   6.9351   7.1441   7.9131   8.4099   8.4482
     8.8516   9.1341   9.1356

          k = 0.0000 0.0000-0.2120 ( 45074 PWs)   bands (ev):

   -20.4109 -20.3236 -20.2126 -20.1873 -18.8404 -18.7978 -18.0844 -18.0449
   -17.9823 -17.9675 -17.5502 -17.4697 -16.0696 -16.0428 -14.5699 -14.3473
   -12.8043 -12.8028 -10.4043 -10.3957  -9.8813  -9.7964  -8.5955  -8.3444
    -8.1189  -8.0580  -7.2321  -6.7910  -6.4970  -6.4494  -6.2530  -6.0342
    -5.8368  -5.6510  -5.3480  -5.2577  -5.0503  -4.9809  -4.6453  -4.4874
    -4.3147  -4.1854  -4.0447  -3.8338  -3.6345  -3.5338  -3.3751  -3.2770
    -3.0828  -2.8896  -2.7497  -2.4902  -2.3745  -2.2857  -1.9086  -1.8738
    -1.4687  -1.4607  -0.9375  -0.7435  -0.5842  -0.5732  -0.3271  -0.2094
    -0.1171   0.0032   0.0505   0.1573   0.2966   0.3762   0.3762   0.5204
     0.7845   0.8139   1.0665   1.0902   4.0151   4.0995   4.4682   4.5070
     6.0630   6.2126   6.8726   7.0151   7.3893   7.4656   8.3145   8.4086
     9.1058   9.1474   9.2784

          k = 0.0000 0.2290 0.0322 ( 45085 PWs)   bands (ev):

   -20.3946 -20.3282 -20.2208 -20.1864 -18.8520 -18.7833 -18.1197 -18.0387
   -17.9893 -17.9718 -17.5450 -17.4544 -16.0592 -16.0518 -14.5166 -14.3648
   -12.8153 -12.7744 -10.3971 -10.3659  -9.9350  -9.8308  -8.6362  -8.2800
    -8.2527  -8.1074  -7.1668  -6.7309  -6.5066  -6.4506  -6.3523  -6.1357
    -5.7949  -5.6818  -5.4780  -5.3365  -4.8343  -4.7882  -4.3985  -4.3687
    -4.3134  -4.2587  -3.9801  -3.8355  -3.5896  -3.5502  -3.2702  -3.2499
    -3.1477  -2.9141  -2.8048  -2.6482  -2.3944  -2.3636  -1.9180  -1.8458
    -1.6365  -1.2898  -1.0178  -0.7402  -0.5925  -0.5240  -0.3847  -0.1972
    -0.1720  -0.0817   0.0705   0.1155   0.3170   0.4055   0.4293   0.5048
     0.7462   0.7980   1.0571   1.1729   4.1648   4.1823   4.3710   4.4834
     6.0625   6.1829   6.7076   6.8036   7.3542   7.8799   8.0936   8.6467
     8.8371   9.1702   9.2445

          k = 0.0000 0.2290-0.1797 ( 45089 PWs)   bands (ev):

   -20.3909 -20.3346 -20.2155 -20.1892 -18.8505 -18.7840 -18.1185 -18.0485
   -17.9901 -17.9637 -17.5445 -17.4541 -16.0700 -16.0413 -14.5167 -14.3646
   -12.8080 -12.7820 -10.3967 -10.3656  -9.9371  -9.8298  -8.6025  -8.3875
    -8.1550  -8.1318  -7.1634  -6.7438  -6.4777  -6.4724  -6.3716  -6.0498
    -5.8975  -5.6550  -5.4628  -5.3337  -4.8449  -4.7520  -4.4689  -4.4051
    -4.2792  -4.1999  -4.0001  -3.8307  -3.5954  -3.5515  -3.3493  -3.1962
    -3.1400  -2.9007  -2.8189  -2.5375  -2.4508  -2.3565  -1.8975  -1.8676
    -1.7205  -1.2915  -0.9226  -0.8225  -0.5646  -0.5032  -0.3093  -0.2842
    -0.1546  -0.1017   0.0339   0.1525   0.3325   0.3538   0.4161   0.5464
     0.7559   0.8297   1.0325   1.1641   4.1561   4.1984   4.3896   4.4592
     6.0513   6.1890   6.7158   6.8081   7.5179   7.7397   7.9977   8.6177
     8.7456   9.0755   9.3821

          k = 0.2500 0.0786 0.0217 ( 45060 PWs)   bands (ev):

   -20.3768 -20.3017 -20.2220 -20.1850 -18.8568 -18.8027 -18.0742 -18.0443
   -17.9638 -17.9496 -17.5587 -17.4907 -16.1150 -16.0840 -14.5792 -14.4183
   -12.7956 -12.7733 -10.4162 -10.4030  -9.8886  -9.7691  -8.5473  -8.3550
    -8.0993  -8.0544  -7.0845  -6.7603  -6.5929  -6.3785  -6.2361  -5.9003
    -5.8239  -5.6120  -5.3617  -5.2290  -5.0609  -4.9689  -4.6989  -4.5922
    -4.3980  -4.2662  -4.1848  -3.9633  -3.8045  -3.7168  -3.3526  -3.3022
    -3.0753  -2.8646  -2.7019  -2.5292  -2.4376  -2.3378  -1.7193  -1.6290
    -1.4010  -1.3495  -0.9315  -0.8293  -0.5152  -0.4406  -0.3296  -0.2567
    -0.1264  -0.0601   0.0893   0.1405   0.3525   0.3646   0.5336   0.5993
     0.7368   0.8766   1.0383   1.2068   4.0692   4.0864   4.4523   4.5142
     5.9193   6.0731   6.9073   7.0095   7.6750   7.9021   8.3245   8.6839
     9.0968   9.1693   9.3980

          k = 0.2500 0.0786-0.1902 ( 45112 PWs)   bands (ev):

   -20.3752 -20.3063 -20.2138 -20.1902 -18.8569 -18.8025 -18.0741 -18.0440
   -17.9605 -17.9532 -17.5587 -17.4911 -16.1015 -16.0973 -14.5793 -14.4181
   -12.8030 -12.7661 -10.4304 -10.3865  -9.8917  -9.7679  -8.5776  -8.2901
    -8.1393  -8.0498  -7.0926  -6.7376  -6.5534  -6.4126  -6.2368  -6.0820
    -5.6501  -5.5349  -5.3682  -5.3107  -5.0739  -4.9679  -4.6661  -4.6066
    -4.4005  -4.2763  -4.1661  -3.9638  -3.8286  -3.7118  -3.3655  -3.3134
    -3.0013  -2.8794  -2.6944  -2.5465  -2.4833  -2.3408  -1.6804  -1.6194
    -1.4000  -1.3324  -1.0478  -0.6956  -0.5166  -0.4473  -0.3447  -0.3188
    -0.1378  -0.0469   0.1196   0.1614   0.2882   0.4242   0.5199   0.5710
     0.7685   0.8757   1.0392   1.2007   4.0591   4.0967   4.4589   4.5100
     5.9183   6.0717   6.9373   6.9773   7.7360   7.8789   8.2832   8.6014
     9.0936   9.1648   9.3888

          k = 0.2500 0.3076 0.0540 ( 45057 PWs)   bands (ev):

   -20.3510 -20.3243 -20.2129 -20.1934 -18.8607 -18.7943 -18.1126 -18.0185
   -17.9897 -17.9534 -17.5593 -17.4686 -16.1150 -16.0819 -14.5168 -14.4474
   -12.7963 -12.7585 -10.4121 -10.3738  -9.9342  -9.8030  -8.5462  -8.3900
    -8.1707  -8.0767  -7.0166  -6.7431  -6.5393  -6.4380  -6.3665  -5.9383
    -5.8553  -5.7159  -5.4662  -5.3216  -4.8237  -4.7304  -4.4872  -4.4171
    -4.3708  -4.2922  -4.0326  -3.9672  -3.7872  -3.6924  -3.3989  -3.3088
    -3.1477  -2.9388  -2.8018  -2.6083  -2.4359  -2.3736  -1.8213  -1.5917
    -1.4918  -1.2570  -0.9289  -0.8576  -0.4773  -0.4298  -0.3708  -0.2939
    -0.1635  -0.0791   0.0621   0.1683   0.3442   0.4144   0.4971   0.5962
     0.6919   0.9557   1.1338   1.1530   4.1070   4.1358   4.3899   4.5333
     5.9101   6.0648   6.7576   6.8466   7.6992   8.1907   8.2654   8.7641
     9.0293   9.0858   9.3869

          k = 0.2500 0.3076-0.1580 ( 45058 PWs)   bands (ev):

   -20.3500 -20.3255 -20.2123 -20.1939 -18.8605 -18.7944 -18.1129 -18.0169
   -17.9874 -17.9571 -17.5595 -17.4686 -16.1017 -16.0950 -14.5169 -14.4471
   -12.7977 -12.7574 -10.4142 -10.3702  -9.9355  -9.8021  -8.5928  -8.2884
    -8.1989  -8.1063  -7.0217  -6.7268  -6.5555  -6.4194  -6.3474  -6.0602
    -5.7829  -5.6331  -5.5209  -5.3390  -4.8075  -4.7668  -4.5054  -4.3808
    -4.3509  -4.2937  -4.0197  -3.9661  -3.7965  -3.6898  -3.4048  -3.3240
    -3.1084  -2.9073  -2.8329  -2.7015  -2.4736  -2.3032  -1.7352  -1.6393
    -1.4744  -1.2607  -1.0361  -0.7168  -0.4882  -0.4792  -0.3866  -0.3242
    -0.1530  -0.0598   0.0910   0.1471   0.3763   0.4101   0.4965   0.5598
     0.7112   0.9433   1.1397   1.1591   4.1037   4.1381   4.4227   4.5022
     5.9143   6.0576   6.7786   6.8298   7.7096   8.2071   8.2766   8.8098
     8.8998   9.1160   9.2158

          k = 0.2500-0.1504-0.0105 ( 45070 PWs)   bands (ev):

   -20.3750 -20.3023 -20.2168 -20.1883 -18.8472 -18.8064 -18.1152 -18.0104
   -17.9818 -17.9559 -17.5729 -17.4645 -16.1146 -16.0810 -14.5540 -14.4168
   -12.7926 -12.7731 -10.4106 -10.3837  -9.9050  -9.7989  -8.5413  -8.3918
    -8.1075  -8.0611  -7.0904  -6.8024  -6.5417  -6.4538  -6.3516  -5.9702
    -5.8819  -5.6767  -5.4953  -5.3240  -4.7226  -4.6449  -4.4757  -4.4239
    -4.3488  -4.2304  -4.1166  -3.9758  -3.8129  -3.6897  -3.3757  -3.3374
    -3.1392  -2.9808  -2.9033  -2.5486  -2.5052  -2.3891  -1.7677  -1.6390
    -1.5159  -1.2219  -0.9364  -0.7933  -0.5357  -0.4102  -0.2827  -0.2436
    -0.1697  -0.1272   0.0958   0.1724   0.3207   0.3894   0.5128   0.5913
     0.7635   0.9198   1.0350   1.2614   3.9994   4.0165   4.4335   4.5120
     5.9301   6.0791   6.8808   6.9290   7.6510   8.0436   8.5004   8.6083
     8.9970   9.3110   9.6675

          k = 0.2500-0.1504-0.2225 ( 45061 PWs)   bands (ev):

   -20.3738 -20.3049 -20.2138 -20.1900 -18.8469 -18.8067 -18.1144 -18.0112
   -17.9836 -17.9538 -17.5731 -17.4649 -16.1017 -16.0937 -14.5540 -14.4165
   -12.7937 -12.7724 -10.4122 -10.3803  -9.9064  -9.7982  -8.5928  -8.2715
    -8.1936  -8.0446  -7.1012  -6.7824  -6.5476  -6.4513  -6.3366  -6.0772
    -5.7341  -5.6980  -5.5234  -5.3428  -4.7345  -4.6729  -4.5106  -4.3604
    -4.2728  -4.2314  -4.1614  -3.9807  -3.8000  -3.7081  -3.3793  -3.3248
    -3.0998  -2.9790  -2.9332  -2.6277  -2.5050  -2.3655  -1.7033  -1.6474
    -1.5146  -1.2249  -0.9866  -0.7393  -0.5253  -0.4602  -0.3280  -0.1983
    -0.1626  -0.1300   0.1112   0.1790   0.2993   0.4056   0.4965   0.5953
     0.7738   0.9022   1.0554   1.2548   3.9988   4.0113   4.4664   4.4868
     5.9279   6.0785   6.8417   6.9719   7.7378   7.9655   8.4825   8.5048
     9.0505   9.3703   9.5691

          k =-0.5000-0.1572-0.0435 ( 45054 PWs)   bands (ev):

   -20.3186 -20.3060 -20.2122 -20.1990 -18.8718 -18.8099 -18.0725 -18.0504
   -17.9280 -17.9249 -17.5695 -17.5178 -16.1436 -16.1418 -14.5721 -14.5033
   -12.7851 -12.7450 -10.4464 -10.3953  -9.9006  -9.7430  -8.5296  -8.2964
    -8.0883  -8.0790  -6.8383  -6.8371  -6.5338  -6.3792  -6.2006  -6.0755
    -5.5370  -5.4918  -5.3823  -5.2658  -5.0561  -4.8964  -4.8938  -4.8127
    -4.4577  -4.3556  -4.1492  -4.0983  -3.8918  -3.8380  -3.4700  -3.3502
    -2.9999  -2.8848  -2.7093  -2.5580  -2.5317  -2.2750  -1.5625  -1.4637
    -1.3338  -1.2932  -1.0529  -0.7034  -0.5214  -0.4288  -0.2308  -0.2218
    -0.1357  -0.0226   0.0658   0.1564   0.3641   0.4144   0.6186   0.6648
     0.7710   0.9110   1.0142   1.2828   4.0179   4.0228   4.4824   4.5719
     5.8152   5.9431   6.9592   7.0096   7.9378   8.4456   8.7221   8.8485
     8.9645   9.0606   9.4949

          k =-0.5000-0.1572-0.2554 ( 45084 PWs)   bands (ev):

   -20.3187 -20.3059 -20.2126 -20.1985 -18.8720 -18.8098 -18.0725 -18.0504
   -17.9279 -17.9250 -17.5694 -17.5176 -16.1599 -16.1254 -14.5726 -14.5034
   -12.7852 -12.7442 -10.4317 -10.4148  -9.8941  -9.7451  -8.4892  -8.3641
    -8.1024  -8.0352  -6.8451  -6.8176  -6.6031  -6.3564  -6.2176  -5.8264
    -5.8108  -5.5026  -5.3760  -5.2102  -5.0197  -4.9592  -4.8223  -4.8188
    -4.4568  -4.3946  -4.1586  -4.0700  -3.8887  -3.8348  -3.4259  -3.3771
    -3.0588  -2.8245  -2.7443  -2.5411  -2.5319  -2.2863  -1.5271  -1.4942
    -1.3683  -1.3027  -0.9213  -0.7177  -0.5873  -0.4936  -0.2275  -0.2124
    -0.0904   0.0030   0.0812   0.1191   0.3148   0.4302   0.6745   0.6815
     0.7303   0.9083   1.0115   1.2872   4.0054   4.0354   4.5193   4.5367
     5.8116   5.9472   6.9658   7.0045   7.9254   8.4930   8.6923   8.7049
     9.0760   9.1765   9.4241

          k =-0.5000 0.0718-0.0112 ( 45064 PWs)   bands (ev):

   -20.3332 -20.2903 -20.2081 -20.2015 -18.8582 -18.8170 -18.1142 -18.0161
   -17.9394 -17.9352 -17.5959 -17.4817 -16.1443 -16.1372 -14.5498 -14.5013
   -12.7785 -12.7524 -10.4293 -10.3885  -9.9061  -9.7705  -8.5557  -8.2779
    -8.1190  -8.0643  -6.8993  -6.8539  -6.5635  -6.4242  -6.3173  -6.0190
    -5.7177  -5.6231  -5.5539  -5.3370  -4.7019  -4.6529  -4.6052  -4.4948
    -4.3273  -4.3206  -4.0966  -4.0277  -3.9920  -3.8592  -3.4941  -3.4080
    -3.0883  -2.9707  -2.9425  -2.6158  -2.5434  -2.3557  -1.6594  -1.4823
    -1.3294  -1.2272  -0.9885  -0.7275  -0.5044  -0.4369  -0.2488  -0.2090
    -0.1282  -0.0730   0.1027   0.1835   0.3815   0.3903   0.6286   0.6319
     0.7087   1.0434   1.1088   1.2498   3.8950   3.9351   4.4762   4.5797
     5.8343   5.9534   6.9269   6.9706   7.9252   8.5442   8.7718   8.7992
     9.0814   9.2969   9.4549

          k =-0.5000 0.0718-0.2232 ( 45050 PWs)   bands (ev):

   -20.3333 -20.2901 -20.2085 -20.2011 -18.8584 -18.8168 -18.1142 -18.0160
   -17.9397 -17.9350 -17.5957 -17.4817 -16.1593 -16.1221 -14.5500 -14.5017
   -12.7803 -12.7497 -10.4268 -10.3948  -9.9021  -9.7721  -8.4894  -8.3946
    -8.1042  -8.0234  -6.8922  -6.8684  -6.5468  -6.4538  -6.3283  -5.8895
    -5.8316  -5.7016  -5.4708  -5.3248  -4.7000  -4.6123  -4.5932  -4.4984
    -4.4148  -4.3066  -4.0949  -4.0234  -3.9886  -3.8719  -3.4753  -3.3945
    -3.1213  -2.9982  -2.9169  -2.5821  -2.5172  -2.3686  -1.7053  -1.4814
    -1.3638  -1.1799  -0.9454  -0.7419  -0.5259  -0.4523  -0.2389  -0.2056
    -0.1310  -0.0723   0.0831   0.2008   0.3553   0.4038   0.6292   0.6599
     0.7131   1.0405   1.1089   1.2400   3.8867   3.9408   4.5011   4.5580
     5.8263   5.9619   6.9157   6.9849   7.9239   8.5420   8.6990   8.8993
     9.0648   9.2717   9.4776

     highest occupied, lowest unoccupied level (ev):     1.2872    3.8867

!    total energy              =    -823.73968995 Ry
     Harris-Foulkes estimate   =    -823.73968996 Ry
     estimated scf accuracy    <          8.0E-09 Ry

     total all-electron energy =     -3093.170577 Ry

     The total energy is the sum of the following terms:

     one-electron contribution =    -374.51100085 Ry
     hartree contribution      =     251.85381905 Ry
     xc contribution           =    -166.14737928 Ry
     ewald contribution        =    -310.08926908 Ry
     Dispersion Correction     =      -0.20368777 Ry
     one-center paw contrib.   =    -224.64217201 Ry

     convergence has been achieved in  13 iterations

     Forces acting on atoms (cartesian axes, Ry/au):

     atom    1 type  2   force =     0.01230088    0.01107156   -0.00292211
     atom    2 type  2   force =    -0.01230088   -0.01107156    0.00292211
     atom    3 type  2   force =    -0.01216896    0.00690032   -0.00089821
     atom    4 type  2   force =     0.01216896   -0.00690032    0.00089821
     atom    5 type  4   force =    -0.00010106   -0.00218044   -0.01662393
     atom    6 type  4   force =     0.00010106    0.00218044    0.01662393
     atom    7 type  4   force =     0.00534389   -0.00307434   -0.00068389
     atom    8 type  4   force =    -0.00534389    0.00307434    0.00068389
     atom    9 type  3   force =    -0.00045471    0.00035948    0.00107915
     atom   10 type  3   force =     0.00045471   -0.00035948   -0.00107915
     atom   11 type  4   force =    -0.00375833    0.00119277    0.00204424
     atom   12 type  4   force =     0.00375833   -0.00119277   -0.00204424
     atom   13 type  3   force =     0.00013200   -0.00018343   -0.00102320
     atom   14 type  3   force =    -0.00013200    0.00018343    0.00102320
     atom   15 type  4   force =     0.00384866    0.00224406   -0.00016251
     atom   16 type  4   force =    -0.00384866   -0.00224406    0.00016251
     atom   17 type  1   force =     0.00128411    0.00408303    0.00128443
     atom   18 type  1   force =    -0.00128411   -0.00408303   -0.00128443
     atom   19 type  3   force =     0.00030248   -0.00184624    0.00225048
     atom   20 type  3   force =    -0.00030248    0.00184624   -0.00225048
     atom   21 type  1   force =    -0.00191013   -0.00367530    0.00014632
     atom   22 type  1   force =     0.00191013    0.00367530   -0.00014632
     atom   23 type  3   force =     0.00068430   -0.00119687   -0.00340437
     atom   24 type  3   force =    -0.00068430    0.00119687    0.00340437
     atom   25 type  1   force =    -0.00619767   -0.00913805   -0.00399753
     atom   26 type  1   force =     0.00619767    0.00913805    0.00399753
     atom   27 type  1   force =     0.01096174   -0.01039030    0.00790030
     atom   28 type  1   force =    -0.01096174    0.01039030   -0.00790030
     atom   29 type  1   force =     0.00267281    0.00143702   -0.00109855
     atom   30 type  1   force =    -0.00267281   -0.00143702    0.00109855
     atom   31 type  2   force =    -0.00379143    0.00802499    0.00930993
     atom   32 type  2   force =     0.00379143   -0.00802499   -0.00930993
     atom   33 type  3   force =    -0.00709317    0.00043359    0.00449260
     atom   34 type  3   force =     0.00709317   -0.00043359   -0.00449260
     atom   35 type  1   force =    -0.00012809   -0.00092137    0.00341988
     atom   36 type  1   force =     0.00012809    0.00092137   -0.00341988
     atom   37 type  4   force =    -0.00203823   -0.00117632    0.00709877
     atom   38 type  4   force =     0.00203823    0.00117632   -0.00709877
     atom   39 type  3   force =     0.00236892   -0.00003837   -0.00051452
     atom   40 type  3   force =    -0.00236892    0.00003837    0.00051452
     atom   41 type  3   force =     0.00101647   -0.00012939    0.00074508
     atom   42 type  3   force =    -0.00101647    0.00012939   -0.00074508

     Total force =     0.057461     Total SCF correction =     0.000208


     Computing stress (Cartesian axis) and pressure

          total   stress  (Ry/bohr**3)                   (kbar)     P=   -5.60
  -0.00005997  -0.00001606  -0.00001729         -8.82     -2.36     -2.54
  -0.00001606  -0.00002771  -0.00004765         -2.36     -4.08     -7.01
  -0.00001729  -0.00004765  -0.00002655         -2.54     -7.01     -3.91


     Writing output data file scf.save
 
     init_run     :     13.41s CPU     13.80s WALL (       1 calls)
     electrons    :    287.40s CPU    293.99s WALL (       1 calls)
     forces       :      6.76s CPU      6.79s WALL (       1 calls)
     stress       :     23.61s CPU     23.62s WALL (       1 calls)

     Called by init_run:
     wfcinit      :      8.00s CPU      8.34s WALL (       1 calls)
     potinit      :      1.91s CPU      1.92s WALL (       1 calls)

     Called by electrons:
     c_bands      :    250.08s CPU    256.09s WALL (      13 calls)
     sum_band     :     32.03s CPU     32.51s WALL (      13 calls)
     v_of_rho     :      0.69s CPU      0.76s WALL (      14 calls)
     newd         :      1.43s CPU      1.46s WALL (      14 calls)
     PAW_pot      :      2.87s CPU      2.87s WALL (      14 calls)
     mix_rho      :      0.16s CPU      0.17s WALL (      13 calls)

     Called by c_bands:
     init_us_2    :      3.05s CPU      3.05s WALL (     406 calls)
     cegterg      :    239.71s CPU    245.68s WALL (     182 calls)

     Called by sum_band:
     sum_band:bec :      0.03s CPU      0.03s WALL (     182 calls)
     addusdens    :      1.52s CPU      1.53s WALL (      13 calls)

     Called by *egterg:
     h_psi        :    158.37s CPU    164.00s WALL (     828 calls)
     s_psi        :     18.69s CPU     18.69s WALL (     828 calls)
     g_psi        :      1.40s CPU      1.40s WALL (     632 calls)
     cdiaghg      :     16.46s CPU     16.45s WALL (     814 calls)

     Called by h_psi:
     h_psi:pot    :    156.80s CPU    162.41s WALL (     828 calls)
     h_psi:calbec :     17.19s CPU     17.29s WALL (     828 calls)
     vloc_psi     :    120.98s CPU    126.48s WALL (     828 calls)
     add_vuspsi   :     18.63s CPU     18.64s WALL (     828 calls)

     General routines
     calbec       :     25.33s CPU     25.45s WALL (    1080 calls)
     fft          :      0.45s CPU      0.55s WALL (     206 calls)
     fftw         :    130.04s CPU    135.57s WALL (  111422 calls)
 
     Parallel routines
     fft_scatter  :     31.09s CPU     34.24s WALL (  111628 calls)
 
     PWSCF        :  5m35.94s CPU     5m44.61s WALL

 
   This run was terminated on:   0:20: 4   8Dec2017            

=------------------------------------------------------------------------------=
   JOB DONE.
=------------------------------------------------------------------------------=
