
     Program PWSCF v.6.1 (svn rev. 13369) starts on  4Nov2017 at  4:59:28 

     This program is part of the open-source Quantum ESPRESSO suite
     for quantum simulation of materials; please cite
         "P. Giannozzi et al., J. Phys.:Condens. Matter 21 395502 (2009);
          URL http://www.quantum-espresso.org", 
     in publications or presentations arising from this work. More details at
     http://www.quantum-espresso.org/quote

     Parallel version (MPI), running on     8 processors
     R & G space division:  proc/nbgrp/npool/nimage =       8
     Waiting for input...
     Reading input from standard input

     Current dimensions of program PWSCF are:
     Max number of different atomic species (ntypx) = 10
     Max number of k-points (npk) =  40000
     Max angular momentum in pseudopotentials (lmaxx) =  3
               file C.pbe-n-kjpaw_psl.0.1.UPF: wavefunction(s)  2P renormalized
               file N.pbe-n-kjpaw_psl.0.1.UPF: wavefunction(s)  2P renormalized
               file H.pbe-kjpaw_psl.0.1.UPF: wavefunction(s)  1S renormalized
               file O.pbe-n-kjpaw_psl.0.1.UPF: wavefunction(s)  2P renormalized

     -------------------------------------
     Parameters for Dispersion Correction:
     -------------------------------------
       atom      VdW radius       C_6     

        C          2.744         60.710
        N          2.640         42.670
        H          1.892          4.857
        O          2.536         24.284

     Subspace diagonalization in iterative solution of the eigenvalue problem:
     a serial algorithm will be used

 
     Parallelization info
     --------------------
     sticks:   dense  smooth     PW     G-vecs:    dense   smooth      PW
     Min         543     543    149                61845    61845    8848
     Max         544     544    150                61856    61856    8853
     Sum        4347    4347   1199               494795   494795   70817
 


     bravais-lattice index     =            0
     lattice parameter (alat)  =       8.0158  a.u.
     unit-cell volume          =    3662.6568 (a.u.)^3
     number of atoms/cell      =           64
     number of atomic types    =            4
     number of electrons       =       216.00
     number of Kohn-Sham states=          129
     kinetic-energy cutoff     =     100.0000  Ry
     charge density cutoff     =     400.0000  Ry
     convergence threshold     =      1.0E-08
     mixing beta               =       0.5000
     number of iterations used =            8  plain     mixing
     Exchange-correlation      =  SLA  PW   PBX  PBC ( 1  4  3  4 0 0)

     celldm(1)=   8.015840  celldm(2)=   0.000000  celldm(3)=   0.000000
     celldm(4)=   0.000000  celldm(5)=   0.000000  celldm(6)=   0.000000

     crystal axes: (cart. coord. in units of alat)
               a(1) = (   1.000000   0.000000   0.000000 )  
               a(2) = (   0.000000   2.127823   0.000000 )  
               a(3) = (  -0.253344   0.000000   3.342055 )  

     reciprocal axes: (cart. coord. in units 2 pi/alat)
               b(1) = (  1.000000  0.000000  0.075805 )  
               b(2) = (  0.000000  0.469964  0.000000 )  
               b(3) = (  0.000000  0.000000  0.299217 )  


     PseudoPot. # 1 for  C read from file:
     /scratch/ahofstet/pseudo/C.pbe-n-kjpaw_psl.0.1.UPF
     MD5 check sum: 430fe95172b1e11ef3f8ed03bac87931
     Pseudo is Projector augmented-wave + core cor, Zval =  4.0
     Generated using "atomic" code by A. Dal Corso  v.5.0.99 svn rev. 10869
     Shape of augmentation charge: BESSEL
     Using radial grid of 1073 points,  4 beta functions with: 
                l(1) =   0
                l(2) =   0
                l(3) =   1
                l(4) =   1
     Q(r) pseudized with 0 coefficients 


     PseudoPot. # 2 for  N read from file:
     /scratch/ahofstet/pseudo/N.pbe-n-kjpaw_psl.0.1.UPF
     MD5 check sum: f73187c8b701007e77325f868c9291d7
     Pseudo is Projector augmented-wave + core cor, Zval =  5.0
     Generated using "atomic" code by A. Dal Corso  v.5.0.99 svn rev. 10869
     Shape of augmentation charge: PSQ
     Using radial grid of 1085 points,  4 beta functions with: 
                l(1) =   0
                l(2) =   0
                l(3) =   1
                l(4) =   1
     Q(r) pseudized with 0 coefficients 


     PseudoPot. # 3 for  H read from file:
     /scratch/ahofstet/pseudo/H.pbe-kjpaw_psl.0.1.UPF
     MD5 check sum: 94e484f906d9e9773b2f6e52662335b2
     Pseudo is Projector augmented-wave, Zval =  1.0
     Generated using "atomic" code by A. Dal Corso  v.5.0.99 svn rev. 10869
     Shape of augmentation charge: PSQ
     Using radial grid of  929 points,  2 beta functions with: 
                l(1) =   0
                l(2) =   0
     Q(r) pseudized with 0 coefficients 


     PseudoPot. # 4 for  O read from file:
     /scratch/ahofstet/pseudo/O.pbe-n-kjpaw_psl.0.1.UPF
     MD5 check sum: 3f94a2996a3169367d6eb21d9b593f20
     Pseudo is Projector augmented-wave + core cor, Zval =  6.0
     Generated using "atomic" code by A. Dal Corso  v.5.0.99 svn rev. 10869
     Shape of augmentation charge: BESSEL
     Using radial grid of 1095 points,  4 beta functions with: 
                l(1) =   0
                l(2) =   0
                l(3) =   1
                l(4) =   1
     Q(r) pseudized with 0 coefficients 


     atomic species   valence    mass     pseudopotential
        C              4.00    12.01070      C( 1.00)
        N              5.00    14.00670      N( 1.00)
        H              1.00     1.00794      H( 1.00)
        O              6.00    15.99940      O( 1.00)

      2 Sym. Ops., with inversion, found



   Cartesian axes

     site n.     atom                  positions (alat units)
         1           O   tau(   1) = (   0.5225239   0.6404614   1.8964332  )
         2           O   tau(   2) = (   0.6491465   0.4234547   0.2257978  )
         3           O   tau(   3) = (   0.2241326   1.4873617   1.4456214  )
         4           O   tau(   4) = (   0.0975099   1.7043684   3.1162568  )
         5           O   tau(   5) = (   0.0932117   1.1094500   1.9504348  )
         6           O   tau(   6) = (   0.2199158   2.0822898   0.2797040  )
         7           O   tau(   7) = (   0.6534448   1.0183731   1.3916198  )
         8           O   tau(   8) = (   0.5267407   0.0455333   3.0623506  )
         9           O   tau(   9) = (  -0.0938478   0.9123549   2.4111710  )
        10           O   tau(  10) = (   0.0327737   0.1514782   0.7404681  )
        11           O   tau(  11) = (   0.8405043   1.2154681   0.9308836  )
        12           O   tau(  12) = (   0.7138827   1.9763449   2.6015865  )
        13           O   tau(  13) = (   0.1555996   0.1345434   2.0092305  )
        14           O   tau(  14) = (   0.2822870   0.9294009   0.3385354  )
        15           O   tau(  15) = (   0.5910569   1.9932797   1.3328241  )
        16           O   tau(  16) = (   0.4643695   1.1984221   3.0035192  )
        17           O   tau(  17) = (   0.0901696   0.2874796   2.5152723  )
        18           O   tau(  18) = (   0.2166170   0.7764570   0.8445690  )
        19           O   tau(  19) = (   0.6564869   1.8403435   0.8267823  )
        20           O   tau(  20) = (   0.5300395   1.3513661   2.4974856  )
        21           N   tau(  21) = (  -0.0159667   0.4162588   1.3974305  )
        22           N   tau(  22) = (  -0.1425753   0.6476313   3.0684317  )
        23           N   tau(  23) = (   0.7626232   1.7115643   1.9446241  )
        24           N   tau(  24) = (   0.8892318   1.4801918   0.2736229  )
        25           C   tau(  25) = (   0.3362748   0.6496243   2.1676937  )
        26           C   tau(  26) = (   0.4628953   0.4142910   0.4970641  )
        27           C   tau(  27) = (   0.4103817   1.4781988   1.1743609  )
        28           C   tau(  28) = (   0.2837611   1.7135321   2.8449905  )
        29           C   tau(  29) = (   0.0842760   0.9096070   2.1670111  )
        30           C   tau(  30) = (   0.2109159   0.1542780   0.4963416  )
        31           C   tau(  31) = (   0.6623805   1.2182161   1.1750435  )
        32           C   tau(  32) = (   0.5357405   1.9735451   2.8457131  )
        33           C   tau(  33) = (   0.1843695   0.3284003   2.2247886  )
        34           C   tau(  34) = (   0.3109554   0.7355072   0.5541208  )
        35           C   tau(  35) = (   0.5622869   1.7994228   1.1172660  )
        36           C   tau(  36) = (   0.4357011   1.3923159   2.7879338  )
        37           H   tau(  37) = (   0.4903428   0.7131493   2.3729177  )
        38           H   tau(  38) = (   0.6170063   0.3508250   0.7022873  )
        39           H   tau(  39) = (   0.2563137   1.4146738   0.9691369  )
        40           H   tau(  40) = (   0.1296501   1.7769981   2.6397673  )
        41           H   tau(  41) = (   0.5057510   0.8441580   1.7860840  )
        42           H   tau(  42) = (   0.6322489   0.2197414   0.1154291  )
        43           H   tau(  43) = (   0.2409055   1.2836651   1.5559706  )
        44           H   tau(  44) = (   0.1144075   1.9080817   3.2266255  )
        45           H   tau(  45) = (  -0.0696866   0.0943045   2.5495853  )
        46           H   tau(  46) = (   0.0567720   0.9696768   0.8788481  )
        47           H   tau(  47) = (   0.8163431   2.0335186   0.7924693  )
        48           H   tau(  48) = (   0.6898845   1.1581463   2.4632065  )
        49           H   tau(  49) = (   0.1231493   0.3751288   1.5938368  )
        50           H   tau(  50) = (  -0.0034687   0.6887315   3.2649276  )
        51           H   tau(  51) = (   0.6235071   1.7526943   1.7482178  )
        52           H   tau(  52) = (   0.7501252   1.4390916   0.0771270  )
        53           H   tau(  53) = (  -0.1328159   0.6325262   1.4158844  )
        54           H   tau(  54) = (  -0.2594271   0.4313366   3.0868966  )
        55           H   tau(  55) = (  -0.1205277   1.4952969   1.9261702  )
        56           H   tau(  56) = (   0.0060836   1.6964865   0.2551580  )
        57           H   tau(  57) = (   0.1158893   0.4201671   1.1933285  )
        58           H   tau(  58) = (  -0.0107285   0.6437762   2.8644247  )
        59           H   tau(  59) = (   0.6307672   1.7076560   2.1487261  )
        60           H   tau(  60) = (   0.7573849   1.4840469   0.4776299  )
        61           H   tau(  61) = (   0.8231222   0.2321917   1.3778803  )
        62           H   tau(  62) = (   0.6964806   0.8316813   3.0489372  )
        63           H   tau(  63) = (  -0.0764657   1.8956314   1.9641743  )
        64           H   tau(  64) = (   0.0501758   1.2961418   0.2931174  )

     number of k points=    12
                       cart. coord. in units 2pi/alat
        k(    1) = (   0.0000000   0.0000000   0.0000000), wk =   0.1250000
        k(    2) = (   0.0000000   0.0000000  -0.1496086), wk =   0.1250000
        k(    3) = (   0.0000000  -0.2349819   0.0000000), wk =   0.1250000
        k(    4) = (   0.0000000  -0.2349819  -0.1496086), wk =   0.1250000
        k(    5) = (   0.2500000   0.0000000   0.0189512), wk =   0.2500000
        k(    6) = (   0.2500000   0.0000000  -0.1306574), wk =   0.2500000
        k(    7) = (   0.2500000  -0.2349819   0.0189512), wk =   0.2500000
        k(    8) = (   0.2500000  -0.2349819  -0.1306574), wk =   0.2500000
        k(    9) = (  -0.5000000   0.0000000  -0.0379024), wk =   0.1250000
        k(   10) = (  -0.5000000   0.0000000  -0.1875109), wk =   0.1250000
        k(   11) = (  -0.5000000  -0.2349819  -0.0379024), wk =   0.1250000
        k(   12) = (  -0.5000000  -0.2349819  -0.1875109), wk =   0.1250000

     Dense  grid:   494795 G-vectors     FFT dimensions: (  54, 120, 180)

     Estimated max dynamical RAM per process >     406.79MB

     Estimated total allocated dynamical RAM >    3254.31MB

     Check: negative/imaginary core charge=   -0.000003    0.000000

     Initial potential from superposition of free atoms

     starting charge  215.99918, renormalised to  216.00000
     Starting wfc are  172 randomized atomic wfcs
     Checking if some PAW data can be deallocated... 

     total cpu time spent up to now is       23.2 secs

     per-process dynamical memory:   372.3 Mb

     Self-consistent Calculation

     iteration #  1     ecut=   100.00 Ry     beta=0.50
     Davidson diagonalization with overlap
     ethr =  1.00E-02,  avg # of iterations =  4.2

     total cpu time spent up to now is       80.8 secs

     total energy              =   -1199.75110781 Ry
     Harris-Foulkes estimate   =   -1203.33777932 Ry
     estimated scf accuracy    <       6.43411319 Ry

     iteration #  2     ecut=   100.00 Ry     beta=0.50
     Davidson diagonalization with overlap
     ethr =  2.98E-03,  avg # of iterations =  3.0

     total cpu time spent up to now is      122.7 secs

     total energy              =   -1201.07863136 Ry
     Harris-Foulkes estimate   =   -1201.58013567 Ry
     estimated scf accuracy    <       1.08551411 Ry

     iteration #  3     ecut=   100.00 Ry     beta=0.50
     Davidson diagonalization with overlap
     ethr =  5.03E-04,  avg # of iterations =  8.0

     total cpu time spent up to now is      171.4 secs

     total energy              =   -1201.30409875 Ry
     Harris-Foulkes estimate   =   -1201.36548232 Ry
     estimated scf accuracy    <       0.18145565 Ry

     iteration #  4     ecut=   100.00 Ry     beta=0.50
     Davidson diagonalization with overlap
     ethr =  8.40E-05,  avg # of iterations =  6.4

     total cpu time spent up to now is      214.7 secs

     total energy              =   -1201.32873364 Ry
     Harris-Foulkes estimate   =   -1201.34407215 Ry
     estimated scf accuracy    <       0.04663398 Ry

     iteration #  5     ecut=   100.00 Ry     beta=0.50
     Davidson diagonalization with overlap
     ethr =  2.16E-05,  avg # of iterations =  4.8

     total cpu time spent up to now is      253.9 secs

     total energy              =   -1201.33703018 Ry
     Harris-Foulkes estimate   =   -1201.33838085 Ry
     estimated scf accuracy    <       0.00478048 Ry

     iteration #  6     ecut=   100.00 Ry     beta=0.50
     Davidson diagonalization with overlap
     ethr =  2.21E-06,  avg # of iterations =  7.8

     total cpu time spent up to now is      314.5 secs

     total energy              =   -1201.33821901 Ry
     Harris-Foulkes estimate   =   -1201.33850092 Ry
     estimated scf accuracy    <       0.00062402 Ry

     iteration #  7     ecut=   100.00 Ry     beta=0.50
     Davidson diagonalization with overlap
     ethr =  2.89E-07,  avg # of iterations =  3.8

     total cpu time spent up to now is      353.9 secs

     total energy              =   -1201.33833188 Ry
     Harris-Foulkes estimate   =   -1201.33835275 Ry
     estimated scf accuracy    <       0.00010045 Ry

     iteration #  8     ecut=   100.00 Ry     beta=0.50
     Davidson diagonalization with overlap
     ethr =  4.65E-08,  avg # of iterations =  3.2

     total cpu time spent up to now is      396.5 secs

     total energy              =   -1201.33835238 Ry
     Harris-Foulkes estimate   =   -1201.33836692 Ry
     estimated scf accuracy    <       0.00004020 Ry

     iteration #  9     ecut=   100.00 Ry     beta=0.50
     Davidson diagonalization with overlap
     ethr =  1.86E-08,  avg # of iterations =  2.8

     total cpu time spent up to now is      430.4 secs

     total energy              =   -1201.33835574 Ry
     Harris-Foulkes estimate   =   -1201.33835870 Ry
     estimated scf accuracy    <       0.00000761 Ry

     iteration # 10     ecut=   100.00 Ry     beta=0.50
     Davidson diagonalization with overlap
     ethr =  3.52E-09,  avg # of iterations =  4.0

     total cpu time spent up to now is      485.0 secs

     total energy              =   -1201.33835951 Ry
     Harris-Foulkes estimate   =   -1201.33836143 Ry
     estimated scf accuracy    <       0.00000546 Ry

     iteration # 11     ecut=   100.00 Ry     beta=0.50
     Davidson diagonalization with overlap
     ethr =  2.53E-09,  avg # of iterations =  1.6

     total cpu time spent up to now is      516.0 secs

     total energy              =   -1201.33835899 Ry
     Harris-Foulkes estimate   =   -1201.33835986 Ry
     estimated scf accuracy    <       0.00000171 Ry

     iteration # 12     ecut=   100.00 Ry     beta=0.50
     Davidson diagonalization with overlap
     ethr =  7.92E-10,  avg # of iterations =  3.9

     total cpu time spent up to now is      566.9 secs

     total energy              =   -1201.33835991 Ry
     Harris-Foulkes estimate   =   -1201.33836001 Ry
     estimated scf accuracy    <       0.00000035 Ry

     iteration # 13     ecut=   100.00 Ry     beta=0.50
     Davidson diagonalization with overlap
     ethr =  1.61E-10,  avg # of iterations =  1.0

     total cpu time spent up to now is      597.3 secs

     total energy              =   -1201.33835985 Ry
     Harris-Foulkes estimate   =   -1201.33835992 Ry
     estimated scf accuracy    <       0.00000015 Ry

     iteration # 14     ecut=   100.00 Ry     beta=0.50
     Davidson diagonalization with overlap
     ethr =  6.79E-11,  avg # of iterations =  3.8

     total cpu time spent up to now is      644.8 secs

     End of self-consistent calculation

          k = 0.0000 0.0000 0.0000 ( 61819 PWs)   bands (ev):

   -20.6133 -20.5956 -20.4825 -20.4776 -19.8623 -19.7690 -19.6782 -19.5966
   -18.7204 -18.7080 -18.5904 -18.5419 -18.1997 -18.1701 -18.1070 -18.0808
   -17.4348 -17.4235 -17.3542 -17.3401 -16.5107 -16.5046 -16.4883 -16.4720
   -11.4302 -11.3590 -11.1975 -11.1248  -8.6075  -8.5328  -8.0767  -7.9912
    -7.4916  -7.2397  -7.1119  -6.7711  -6.5518  -6.3970  -6.3830  -6.3149
    -6.2812  -6.2044  -6.1234  -6.0959  -5.9580  -5.9098  -5.8951  -5.8710
    -5.6502  -5.5170  -5.5138  -5.2975  -5.1171  -5.1055  -5.0898  -5.0671
    -4.8579  -4.5620  -4.4857  -4.4091  -4.3294  -4.2244  -4.1570  -4.0666
    -3.9424  -3.7789  -3.7220  -3.5581  -3.4960  -3.4355  -3.4149  -3.3854
    -3.2973  -3.1745  -3.0043  -2.8669  -2.1589  -2.1327  -2.1007  -2.0362
    -2.0259  -1.9225  -1.5809  -1.4384  -0.7785  -0.6905  -0.6893  -0.6378
    -0.1418  -0.1365  -0.0782  -0.0721  -0.0516  -0.0045   0.0556   0.1489
     0.1939   0.3503   0.4210   0.4794   0.4915   0.5513   0.6688   0.6737
     0.6887   0.8124   0.8342   0.9028   5.7851   5.8798   5.8897   5.9435
     6.2073   6.5690   6.8359   6.9211   7.0023   7.2363   7.7139   8.3030
     8.7039   8.8083   8.8720   8.9205   9.0673   9.5470   9.5875   9.9958
    10.0429

          k = 0.0000 0.0000-0.1496 ( 61808 PWs)   bands (ev):

   -20.6048 -20.6047 -20.4798 -20.4797 -19.8258 -19.8254 -19.6274 -19.6272
   -18.7160 -18.7159 -18.5652 -18.5649 -18.1853 -18.1851 -18.0931 -18.0928
   -17.4295 -17.4295 -17.3469 -17.3469 -16.5081 -16.5076 -16.4802 -16.4796
   -11.4004 -11.4002 -11.1554 -11.1552  -8.5763  -8.5761  -8.0200  -8.0199
    -7.4354  -7.4347  -6.8669  -6.8661  -6.4791  -6.4786  -6.3599  -6.3592
    -6.2215  -6.2213  -6.1009  -6.1002  -6.0365  -6.0365  -5.8449  -5.8447
    -5.5511  -5.5502  -5.4365  -5.4356  -5.1581  -5.1579  -4.9814  -4.9809
    -4.7294  -4.7293  -4.4369  -4.4365  -4.2627  -4.2624  -4.1401  -4.1398
    -3.9000  -3.8999  -3.6054  -3.6049  -3.4724  -3.4722  -3.3879  -3.3877
    -3.2471  -3.2466  -2.9223  -2.9221  -2.1521  -2.1521  -2.0779  -2.0773
    -1.9645  -1.9634  -1.5072  -1.5066  -0.7371  -0.7369  -0.6556  -0.6555
    -0.1221  -0.1219  -0.0739  -0.0737  -0.0472  -0.0469   0.0771   0.0777
     0.2897   0.2901   0.4319   0.4325   0.5464   0.5464   0.6775   0.6788
     0.7307   0.7309   0.8785   0.8792   5.8270   5.8276   5.9206   5.9213
     6.3540   6.3546   6.8993   6.8997   7.1084   7.1110   8.0124   8.0136
     8.7519   8.7538   8.8420   8.8455   9.3122   9.3126   9.8428   9.8440
    10.2131

          k = 0.0000-0.2350 0.0000 ( 61878 PWs)   bands (ev):

   -20.5519 -20.5518 -20.5434 -20.5433 -19.7681 -19.7676 -19.6799 -19.6799
   -18.6673 -18.6673 -18.6211 -18.6207 -18.1473 -18.1465 -18.1169 -18.1163
   -17.3949 -17.3949 -17.3827 -17.3826 -16.5029 -16.5011 -16.4879 -16.4860
   -11.3257 -11.3255 -11.2479 -11.2478  -8.3666  -8.3664  -8.2490  -8.2489
    -7.2794  -7.2786  -6.9679  -6.9673  -6.5221  -6.5215  -6.3327  -6.3327
    -6.2586  -6.2585  -6.1975  -6.1965  -5.9852  -5.9846  -5.7449  -5.7434
    -5.5842  -5.5838  -5.4381  -5.4373  -5.2850  -5.2830  -4.8217  -4.8216
    -4.7024  -4.7023  -4.5263  -4.5261  -4.2125  -4.2118  -4.0774  -4.0771
    -3.9016  -3.9015  -3.7348  -3.7344  -3.4731  -3.4729  -3.3778  -3.3774
    -3.1235  -3.1229  -2.9915  -2.9914  -2.1395  -2.1393  -2.0639  -2.0634
    -1.8459  -1.8453  -1.7322  -1.7312  -0.7084  -0.7084  -0.6701  -0.6700
    -0.1308  -0.1306  -0.0345  -0.0343   0.0681   0.0683   0.1833   0.1837
     0.2901   0.2904   0.4210   0.4211   0.5367   0.5368   0.6094   0.6096
     0.7052   0.7061   0.7893   0.7900   5.8656   5.8666   5.9017   5.9029
     6.4791   6.4796   6.7180   6.7190   7.3827   7.3852   7.7984   7.8018
     8.3601   8.3614   9.2273   9.2275   9.5466   9.5467   9.8018   9.8025
     9.9909

          k = 0.0000-0.2350-0.1496 ( 61884 PWs)   bands (ev):

   -20.5494 -20.5482 -20.5471 -20.5458 -19.7672 -19.7666 -19.6810 -19.6807
   -18.6629 -18.6625 -18.6261 -18.6256 -18.1458 -18.1445 -18.1184 -18.1172
   -17.3928 -17.3927 -17.3850 -17.3850 -16.5010 -16.4982 -16.4907 -16.4879
   -11.3257 -11.3254 -11.2481 -11.2478  -8.3376  -8.3371  -8.2837  -8.2833
    -7.2645  -7.2636  -6.9708  -6.9699  -6.4798  -6.4789  -6.4059  -6.4054
    -6.2826  -6.2817  -6.1768  -6.1766  -5.9699  -5.9694  -5.7503  -5.7478
    -5.5412  -5.5404  -5.4297  -5.4294  -5.3288  -5.3264  -4.7543  -4.7538
    -4.6563  -4.6557  -4.6489  -4.6488  -4.2167  -4.2155  -4.0496  -4.0495
    -3.9067  -3.9065  -3.7549  -3.7544  -3.4487  -3.4484  -3.3777  -3.3772
    -3.1224  -3.1218  -2.9977  -2.9976  -2.1334  -2.1328  -2.0803  -2.0795
    -1.8247  -1.8239  -1.7445  -1.7431  -0.6967  -0.6966  -0.6814  -0.6812
    -0.1136  -0.1133  -0.0511  -0.0508   0.0683   0.0686   0.1734   0.1740
     0.3189   0.3192   0.3839   0.3841   0.5551   0.5554   0.6142   0.6148
     0.7018   0.7031   0.7854   0.7863   5.8828   5.8840   5.8853   5.8863
     6.5140   6.5146   6.6648   6.6655   7.4408   7.4435   7.7246   7.7279
     8.4934   8.4948   8.9589   8.9593   9.5641   9.5666   9.9247   9.9268
    10.2236

          k = 0.2500 0.0000 0.0190 ( 61808 PWs)   bands (ev):

   -20.5691 -20.5591 -20.4749 -20.4719 -19.7747 -19.7302 -19.6265 -19.5878
   -18.7571 -18.7403 -18.6358 -18.6171 -18.2034 -18.1830 -18.1270 -18.1105
   -17.4355 -17.3904 -17.3495 -17.3139 -16.4999 -16.4978 -16.4822 -16.4624
   -11.5331 -11.5176 -11.1815 -11.1639  -8.7367  -8.7317  -7.9359  -7.8715
    -7.4964  -7.4400  -6.8945  -6.8798  -6.5199  -6.3789  -6.3430  -6.2800
    -6.2747  -6.2367  -6.1951  -6.1692  -6.1191  -5.9949  -5.9648  -5.9249
    -5.6159  -5.5834  -5.5061  -5.4949  -5.3591  -5.2752  -5.0192  -4.9368
    -4.9045  -4.7369  -4.5685  -4.5140  -4.4875  -4.4166  -4.3324  -4.2156
    -3.9581  -3.9315  -3.7020  -3.6636  -3.5275  -3.4483  -3.2729  -3.2188
    -2.6920  -2.6893  -2.5646  -2.5222  -2.1188  -2.1156  -2.0710  -2.0427
    -1.9378  -1.8989  -1.4772  -1.4323  -0.8466  -0.7200  -0.6734  -0.6562
    -0.3110  -0.2396  -0.1218  -0.1159  -0.0553   0.0216   0.0577   0.1352
     0.2451   0.2512   0.4877   0.4883   0.6249   0.6461   0.7044   0.7376
     0.8135   0.8449   0.9198   0.9518   5.6532   5.7146   5.8264   5.8993
     6.3250   6.4081   6.7481   6.7494   7.5536   7.6541   8.2903   8.6669
     8.8306   9.1027   9.2651   9.2932   9.3755   9.6714   9.8267   9.9349
    10.1088

          k = 0.2500 0.0000-0.1307 ( 61842 PWs)   bands (ev):

   -20.5675 -20.5608 -20.4743 -20.4724 -19.7786 -19.7227 -19.6327 -19.5853
   -18.7505 -18.7456 -18.6476 -18.6059 -18.2019 -18.1864 -18.1324 -18.1041
   -17.4287 -17.4024 -17.3374 -17.3209 -16.5027 -16.4955 -16.4755 -16.4685
   -11.5578 -11.4843 -11.2180 -11.1363  -8.7480  -8.7149  -7.9673  -7.8623
    -7.5443  -7.2753  -7.1126  -6.7689  -6.4465  -6.4288  -6.3407  -6.3200
    -6.2492  -6.2142  -6.2118  -6.1828  -6.1247  -5.9809  -5.9634  -5.8815
    -5.7409  -5.6193  -5.5504  -5.3897  -5.3850  -5.1143  -5.0458  -4.9595
    -4.8417  -4.7186  -4.6710  -4.5996  -4.4626  -4.3743  -4.2893  -4.2059
    -4.1143  -3.8133  -3.7489  -3.6340  -3.5004  -3.4853  -3.2418  -3.2310
    -2.7222  -2.6487  -2.5767  -2.5233  -2.1164  -2.0869  -2.0729  -2.0623
    -1.9706  -1.8656  -1.5410  -1.3764  -0.7984  -0.7793  -0.6636  -0.6588
    -0.2712  -0.2593  -0.1314  -0.1104  -0.0666   0.0340   0.0562   0.1219
     0.2271   0.2741   0.4766   0.4938   0.6317   0.6454   0.6659   0.7587
     0.8293   0.8313   0.9380   0.9437   5.6574   5.6977   5.8614   5.8793
     6.3011   6.4484   6.6990   6.7841   7.4833   7.7510   8.2884   8.5155
     9.0225   9.1364   9.1935   9.2959   9.3743   9.5154   9.9302  10.0510
    10.1122

          k = 0.2500-0.2350 0.0190 ( 61834 PWs)   bands (ev):

   -20.5245 -20.5237 -20.5190 -20.5182 -19.7152 -19.7146 -19.6436 -19.6434
   -18.7049 -18.7045 -18.6758 -18.6752 -18.1596 -18.1583 -18.1432 -18.1419
   -17.3979 -17.3978 -17.3477 -17.3476 -16.4933 -16.4919 -16.4802 -16.4788
   -11.4054 -11.4051 -11.3241 -11.3239  -8.3802  -8.3797  -8.3405  -8.3402
    -7.2396  -7.2386  -6.9739  -6.9731  -6.5009  -6.5003  -6.3271  -6.3269
    -6.2618  -6.2609  -6.2007  -6.2003  -6.0953  -6.0949  -5.8777  -5.8753
    -5.6410  -5.6402  -5.5145  -5.5139  -5.2083  -5.2068  -5.0186  -5.0184
    -4.8466  -4.8462  -4.6031  -4.6027  -4.3845  -4.3837  -4.2625  -4.2622
    -3.9594  -3.9590  -3.6863  -3.6859  -3.3979  -3.3976  -3.2662  -3.2659
    -2.6848  -2.6846  -2.5529  -2.5524  -2.1179  -2.1172  -2.0479  -2.0471
    -1.7876  -1.7868  -1.6974  -1.6960  -0.7208  -0.7207  -0.6592  -0.6591
    -0.2536  -0.2533  -0.0496  -0.0495   0.0274   0.0275   0.1088   0.1094
     0.3641   0.3643   0.4272   0.4273   0.4809   0.4812   0.6836   0.6841
     0.8380   0.8390   0.8933   0.8939   5.7768   5.7778   5.8135   5.8148
     6.4798   6.4804   6.6018   6.6027   7.8958   7.8984   8.1733   8.1765
     8.7588   8.7605   9.2135   9.2148   9.8017   9.8021   9.9785   9.9795
    10.2015

          k = 0.2500-0.2350-0.1307 ( 61882 PWs)   bands (ev):

   -20.5237 -20.5229 -20.5198 -20.5191 -19.7154 -19.7149 -19.6433 -19.6431
   -18.7093 -18.7091 -18.6710 -18.6706 -18.1616 -18.1613 -18.1407 -18.1403
   -17.3959 -17.3958 -17.3496 -17.3495 -16.4909 -16.4881 -16.4841 -16.4813
   -11.4055 -11.4053 -11.3239 -11.3237  -8.4116  -8.4114  -8.3031  -8.3030
    -7.2682  -7.2673  -6.9522  -6.9518  -6.4722  -6.4715  -6.3401  -6.3398
    -6.2779  -6.2773  -6.1959  -6.1954  -6.1006  -6.0996  -5.8743  -5.8726
    -5.6346  -5.6338  -5.5240  -5.5232  -5.2546  -5.2538  -4.9262  -4.9258
    -4.8604  -4.8602  -4.6145  -4.6138  -4.4387  -4.4378  -4.2266  -4.2262
    -3.9454  -3.9449  -3.7091  -3.7086  -3.3917  -3.3911  -3.2663  -3.2658
    -2.6800  -2.6798  -2.5568  -2.5564  -2.1187  -2.1181  -2.0391  -2.0382
    -1.8145  -1.8139  -1.6777  -1.6766  -0.7028  -0.7026  -0.6766  -0.6765
    -0.2499  -0.2497  -0.0334  -0.0333   0.0074   0.0078   0.1082   0.1087
     0.3568   0.3571   0.4355   0.4355   0.4902   0.4905   0.6622   0.6626
     0.8600   0.8613   0.8824   0.8832   5.7747   5.7751   5.8161   5.8167
     6.4793   6.4798   6.6050   6.6058   7.8853   7.8877   8.2099   8.2130
     8.7024   8.7039   9.2289   9.2300   9.8491   9.8505   9.9110   9.9130
    10.2475

          k =-0.5000 0.0000-0.0379 ( 61866 PWs)   bands (ev):

   -20.5179 -20.5161 -20.4738 -20.4711 -19.6850 -19.6464 -19.6013 -19.5705
   -18.8056 -18.7914 -18.7016 -18.6794 -18.2056 -18.2054 -18.1517 -18.1194
   -17.4294 -17.3556 -17.3496 -17.2933 -16.4892 -16.4877 -16.4769 -16.4545
   -11.6672 -11.5870 -11.2569 -11.1651  -8.8467  -8.8425  -7.9042  -7.7666
    -7.6035  -7.3049  -7.1066  -6.7751  -6.4713  -6.4196  -6.3814  -6.3660
    -6.3613  -6.2119  -6.2087  -6.1733  -6.1507  -6.0844  -5.9884  -5.9037
    -5.8899  -5.7125  -5.6168  -5.5773  -5.4127  -5.0705  -5.0031  -5.0028
    -4.9029  -4.8307  -4.8204  -4.5942  -4.4325  -4.3534  -4.3039  -4.2773
    -4.1930  -3.8848  -3.8683  -3.7279  -3.5766  -3.4254  -3.1591  -3.1048
    -2.5206  -2.4535  -2.2899  -2.1423  -2.1033  -2.0728  -2.0552  -1.9849
    -1.8922  -1.7390  -1.4873  -1.3198  -0.8802  -0.7509  -0.6758  -0.6327
    -0.3799  -0.2147  -0.1897  -0.1298  -0.0399   0.0184   0.0215   0.1017
     0.2563   0.2976   0.4631   0.4834   0.6588   0.7052   0.7662   0.7875
     0.9266   0.9938   0.9940   1.0064   5.5317   5.6040   5.6156   5.7342
     6.3780   6.4899   6.4976   6.6187   8.7425   8.8179   8.8725   8.9542
     9.0959   9.1346   9.3274   9.4962   9.6450   9.6532   9.9044   9.9114
     9.9252

          k =-0.5000 0.0000-0.1875 ( 61896 PWs)   bands (ev):

   -20.5171 -20.5170 -20.4724 -20.4724 -19.6697 -19.6694 -19.5821 -19.5821
   -18.7990 -18.7989 -18.6902 -18.6901 -18.2054 -18.2054 -18.1360 -18.1359
   -17.4032 -17.4031 -17.3106 -17.3104 -16.4906 -16.4893 -16.4648 -16.4635
   -11.6316 -11.6314 -11.2066 -11.2064  -8.8469  -8.8469  -7.8294  -7.8291
    -7.5042  -7.5033  -6.8996  -6.8990  -6.4329  -6.4317  -6.3774  -6.3773
    -6.2820  -6.2815  -6.1957  -6.1942  -6.1310  -6.1295  -5.9835  -5.9822
    -5.7587  -5.7581  -5.6317  -5.6304  -5.2351  -5.2341  -4.9678  -4.9668
    -4.8967  -4.8966  -4.6354  -4.6349  -4.5060  -4.5045  -4.2634  -4.2630
    -4.0326  -4.0322  -3.7421  -3.7421  -3.5470  -3.5464  -3.1182  -3.1181
    -2.4971  -2.4970  -2.1975  -2.1970  -2.1077  -2.1076  -2.0197  -2.0194
    -1.8049  -1.8041  -1.4021  -1.4015  -0.8221  -0.8220  -0.6532  -0.6531
    -0.2962  -0.2959  -0.1532  -0.1525  -0.0195  -0.0187   0.0634   0.0636
     0.2793   0.2795   0.4699   0.4702   0.7045   0.7045   0.7571   0.7573
     0.9640   0.9647   0.9983   0.9997   5.5517   5.5525   5.6909   5.6917
     6.4108   6.4112   6.5813   6.5817   8.7523   8.7544   8.8888   8.8895
     9.2707   9.2729   9.3305   9.3325   9.5719   9.5750   9.9003   9.9030
     9.9894

          k =-0.5000-0.2350-0.0379 ( 61832 PWs)   bands (ev):

   -20.4975 -20.4961 -20.4942 -20.4929 -19.6451 -19.6447 -19.6089 -19.6087
   -18.7587 -18.7587 -18.7346 -18.7345 -18.1765 -18.1757 -18.1575 -18.1565
   -17.3903 -17.3901 -17.3242 -17.3240 -16.4839 -16.4832 -16.4720 -16.4713
   -11.4821 -11.4819 -11.3976 -11.3974  -8.4598  -8.4598  -8.3489  -8.3489
    -7.2524  -7.2516  -6.9313  -6.9311  -6.4511  -6.4507  -6.3751  -6.3749
    -6.2713  -6.2705  -6.2181  -6.2179  -6.1837  -6.1831  -5.9807  -5.9796
    -5.7778  -5.7769  -5.6590  -5.6577  -5.2369  -5.2357  -4.9828  -4.9827
    -4.8867  -4.8865  -4.5888  -4.5883  -4.5496  -4.5487  -4.2644  -4.2639
    -3.9959  -3.9954  -3.6599  -3.6595  -3.4173  -3.4173  -3.2864  -3.2858
    -2.3371  -2.3368  -2.2213  -2.2209  -2.1307  -2.1302  -2.0303  -2.0296
    -1.7512  -1.7505  -1.6168  -1.6157  -0.7584  -0.7583  -0.6486  -0.6486
    -0.3275  -0.3274  -0.0796  -0.0794  -0.0152  -0.0144   0.0911   0.0912
     0.4046   0.4049   0.4717   0.4718   0.5252   0.5253   0.7046   0.7052
     0.9562   0.9570   0.9906   0.9920   5.6270   5.6280   5.6961   5.6975
     6.4403   6.4410   6.5503   6.5511   8.8770   8.8796   8.9460   8.9460
     9.1336   9.1338   9.2602   9.2617   9.3892   9.3906   9.7275   9.7280
    10.0927

          k =-0.5000-0.2350-0.1875 ( 61812 PWs)   bands (ev):

   -20.4974 -20.4961 -20.4943 -20.4929 -19.6446 -19.6441 -19.6096 -19.6093
   -18.7491 -18.7484 -18.7449 -18.7443 -18.1678 -18.1667 -18.1664 -18.1653
   -17.3881 -17.3879 -17.3263 -17.3261 -16.4805 -16.4778 -16.4774 -16.4746
   -11.4814 -11.4812 -11.3984 -11.3981  -8.4128  -8.4125  -8.4029  -8.4026
    -7.2031  -7.2021  -6.9787  -6.9779  -6.4592  -6.4580  -6.3246  -6.3241
    -6.3106  -6.3099  -6.2676  -6.2668  -6.1435  -6.1418  -6.0000  -5.9976
    -5.7658  -5.7647  -5.6485  -5.6473  -5.1752  -5.1729  -5.0124  -5.0117
    -4.9081  -4.9075  -4.6253  -4.6250  -4.4395  -4.4384  -4.3964  -4.3963
    -3.9157  -3.9150  -3.6964  -3.6957  -3.4324  -3.4319  -3.2626  -3.2618
    -2.3380  -2.3378  -2.2456  -2.2455  -2.0898  -2.0897  -2.0461  -2.0452
    -1.7176  -1.7169  -1.6525  -1.6511  -0.7325  -0.7323  -0.6738  -0.6737
    -0.3284  -0.3283  -0.0713  -0.0707  -0.0092  -0.0085   0.0786   0.0789
     0.4074   0.4077   0.4602   0.4606   0.5337   0.5341   0.6963   0.6969
     0.9632   0.9640   0.9913   0.9927   5.6324   5.6335   5.6915   5.6929
     6.4390   6.4397   6.5514   6.5522   8.8226   8.8248   9.0010   9.0014
     9.2067   9.2083   9.2725   9.2760   9.3515   9.3532   9.5479   9.5497
    10.3135

     highest occupied, lowest unoccupied level (ev):     1.0064    5.5317

!    total energy              =   -1201.33835991 Ry
     Harris-Foulkes estimate   =   -1201.33835992 Ry
     estimated scf accuracy    <          8.4E-09 Ry

     total all-electron energy =     -4396.640508 Ry

     The total energy is the sum of the following terms:

     one-electron contribution =    -570.55965329 Ry
     hartree contribution      =     379.27467452 Ry
     xc contribution           =    -240.31814951 Ry
     ewald contribution        =    -466.31083945 Ry
     Dispersion Correction     =      -0.28745876 Ry
     one-center paw contrib.   =    -303.13693342 Ry

     convergence has been achieved in  14 iterations

     Forces acting on atoms (cartesian axes, Ry/au):

     atom    1 type  4   force =    -0.00415979   -0.00252863   -0.01604601
     atom    2 type  4   force =    -0.00412517    0.00225340   -0.01628037
     atom    3 type  4   force =     0.00415979    0.00252863    0.01604601
     atom    4 type  4   force =     0.00412517   -0.00225340    0.01628037
     atom    5 type  4   force =    -0.00457818    0.00059889   -0.00024756
     atom    6 type  4   force =    -0.00458179   -0.00049844   -0.00019772
     atom    7 type  4   force =     0.00457818   -0.00059889    0.00024756
     atom    8 type  4   force =     0.00458179    0.00049844    0.00019772
     atom    9 type  4   force =     0.01344924    0.01210319   -0.00282617
     atom   10 type  4   force =     0.01340873   -0.01209669   -0.00282962
     atom   11 type  4   force =    -0.01344924   -0.01210319    0.00282617
     atom   12 type  4   force =    -0.01340873    0.01209669    0.00282962
     atom   13 type  4   force =    -0.00306763   -0.00745449   -0.00510470
     atom   14 type  4   force =    -0.00304933    0.00720408   -0.00491182
     atom   15 type  4   force =     0.00306763    0.00745449    0.00510470
     atom   16 type  4   force =     0.00304933   -0.00720408    0.00491182
     atom   17 type  4   force =     0.00170306    0.00536179    0.00290947
     atom   18 type  4   force =     0.00184419   -0.00550827    0.00271334
     atom   19 type  4   force =    -0.00170306   -0.00536179   -0.00290947
     atom   20 type  4   force =    -0.00184419    0.00550827   -0.00271334
     atom   21 type  2   force =    -0.00108489    0.00198172   -0.00187041
     atom   22 type  2   force =    -0.00125771   -0.00200716   -0.00099004
     atom   23 type  2   force =     0.00108489   -0.00198172    0.00187041
     atom   24 type  2   force =     0.00125771    0.00200716    0.00099004
     atom   25 type  1   force =     0.00706575   -0.00877648    0.01690722
     atom   26 type  1   force =     0.00707100    0.00880836    0.01691891
     atom   27 type  1   force =    -0.00706575    0.00877648   -0.01690722
     atom   28 type  1   force =    -0.00707100   -0.00880836   -0.01691891
     atom   29 type  1   force =    -0.00354515    0.01729367    0.01681083
     atom   30 type  1   force =    -0.00349003   -0.01744138    0.01663251
     atom   31 type  1   force =     0.00354515   -0.01729367   -0.01681083
     atom   32 type  1   force =     0.00349003    0.01744138   -0.01663251
     atom   33 type  1   force =     0.00382665    0.00499166   -0.00089886
     atom   34 type  1   force =     0.00372245   -0.00465640   -0.00103940
     atom   35 type  1   force =    -0.00382665   -0.00499166    0.00089886
     atom   36 type  1   force =    -0.00372245    0.00465640    0.00103940
     atom   37 type  3   force =    -0.01755520   -0.01521120   -0.00929679
     atom   38 type  3   force =    -0.01761246    0.01518992   -0.00932492
     atom   39 type  3   force =     0.01755520    0.01521120    0.00929679
     atom   40 type  3   force =     0.01761246   -0.01518992    0.00932492
     atom   41 type  3   force =     0.00031830   -0.00107905   -0.00035708
     atom   42 type  3   force =     0.00033571    0.00130955   -0.00021600
     atom   43 type  3   force =    -0.00031830    0.00107905    0.00035708
     atom   44 type  3   force =    -0.00033571   -0.00130955    0.00021600
     atom   45 type  3   force =    -0.00482523   -0.00412644    0.00146370
     atom   46 type  3   force =    -0.00485116    0.00419759    0.00148738
     atom   47 type  3   force =     0.00482523    0.00412644   -0.00146370
     atom   48 type  3   force =     0.00485116   -0.00419759   -0.00148738
     atom   49 type  3   force =     0.00136331   -0.00015534    0.00274999
     atom   50 type  3   force =     0.00117881    0.00010545    0.00245170
     atom   51 type  3   force =    -0.00136331    0.00015534   -0.00274999
     atom   52 type  3   force =    -0.00117881   -0.00010545   -0.00245170
     atom   53 type  3   force =     0.00105760    0.00182784    0.00011526
     atom   54 type  3   force =     0.00109949   -0.00174741    0.00004121
     atom   55 type  3   force =    -0.00105760   -0.00182784   -0.00011526
     atom   56 type  3   force =    -0.00109949    0.00174741   -0.00004121
     atom   57 type  3   force =     0.00037403    0.00030616   -0.00247483
     atom   58 type  3   force =     0.00065795   -0.00031418   -0.00292853
     atom   59 type  3   force =    -0.00037403   -0.00030616    0.00247483
     atom   60 type  3   force =    -0.00065795    0.00031418    0.00292853
     atom   61 type  3   force =    -0.00174728   -0.00368212   -0.00142424
     atom   62 type  3   force =    -0.00171852    0.00368202   -0.00148802
     atom   63 type  3   force =     0.00174728    0.00368212    0.00142424
     atom   64 type  3   force =     0.00171852   -0.00368202    0.00148802

     Total force =     0.100653     Total SCF correction =     0.000221


     Computing stress (Cartesian axis) and pressure

          total   stress  (Ry/bohr**3)                   (kbar)     P=    2.22
   0.00003184  -0.00000011   0.00001428          4.68     -0.02      2.10
  -0.00000011   0.00002152  -0.00000027         -0.02      3.17     -0.04
   0.00001428  -0.00000027  -0.00000812          2.10     -0.04     -1.19


     Writing output data file scf.save
 
     init_run     :     21.63s CPU     22.57s WALL (       1 calls)
     electrons    :    588.70s CPU    621.79s WALL (       1 calls)
     forces       :     11.03s CPU     11.10s WALL (       1 calls)
     stress       :     49.04s CPU     49.09s WALL (       1 calls)

     Called by init_run:
     wfcinit      :     14.64s CPU     15.46s WALL (       1 calls)
     potinit      :      2.50s CPU      2.54s WALL (       1 calls)

     Called by electrons:
     c_bands      :    518.08s CPU    546.38s WALL (      14 calls)
     sum_band     :     62.64s CPU     66.81s WALL (      14 calls)
     v_of_rho     :      1.13s CPU      1.25s WALL (      15 calls)
     newd         :      2.21s CPU      2.60s WALL (      15 calls)
     PAW_pot      :      4.17s CPU      4.17s WALL (      15 calls)
     mix_rho      :      0.24s CPU      0.26s WALL (      14 calls)

     Called by c_bands:
     init_us_2    :      4.99s CPU      5.00s WALL (     372 calls)
     cegterg      :    501.09s CPU    529.33s WALL (     168 calls)

     Called by sum_band:
     sum_band:bec :      0.06s CPU      0.06s WALL (     168 calls)
     addusdens    :      2.40s CPU      2.76s WALL (      14 calls)

     Called by *egterg:
     h_psi        :    312.60s CPU    334.28s WALL (     880 calls)
     s_psi        :     42.81s CPU     42.83s WALL (     880 calls)
     g_psi        :      2.49s CPU      2.48s WALL (     700 calls)
     cdiaghg      :     40.86s CPU     40.87s WALL (     868 calls)

     Called by h_psi:
     h_psi:pot    :    309.73s CPU    331.36s WALL (     880 calls)
     h_psi:calbec :     39.87s CPU     40.05s WALL (     880 calls)
     vloc_psi     :    227.12s CPU    248.55s WALL (     880 calls)
     add_vuspsi   :     42.74s CPU     42.76s WALL (     880 calls)

     General routines
     calbec       :     58.46s CPU     58.73s WALL (    1108 calls)
     fft          :      0.86s CPU      1.07s WALL (     219 calls)
     fftw         :    244.52s CPU    267.75s WALL (  144290 calls)
 
     Parallel routines
     fft_scatter  :     56.15s CPU     70.55s WALL (  144509 calls)
 
     PWSCF        : 11m17.53s CPU    11m53.29s WALL

 
   This run was terminated on:   5:11:21   4Nov2017            

=------------------------------------------------------------------------------=
   JOB DONE.
=------------------------------------------------------------------------------=
