
     Program PWSCF v.6.1 (svn rev. 13369) starts on  4Nov2017 at  3:24:15 

     This program is part of the open-source Quantum ESPRESSO suite
     for quantum simulation of materials; please cite
         "P. Giannozzi et al., J. Phys.:Condens. Matter 21 395502 (2009);
          URL http://www.quantum-espresso.org", 
     in publications or presentations arising from this work. More details at
     http://www.quantum-espresso.org/quote

     Parallel version (MPI), running on     8 processors
     R & G space division:  proc/nbgrp/npool/nimage =       8
     Waiting for input...
     Reading input from standard input

     Current dimensions of program PWSCF are:
     Max number of different atomic species (ntypx) = 10
     Max number of k-points (npk) =  40000
     Max angular momentum in pseudopotentials (lmaxx) =  3
               file C.pbe-n-kjpaw_psl.0.1.UPF: wavefunction(s)  2P renormalized
               file N.pbe-n-kjpaw_psl.0.1.UPF: wavefunction(s)  2P renormalized
               file H.pbe-kjpaw_psl.0.1.UPF: wavefunction(s)  1S renormalized
               file O.pbe-n-kjpaw_psl.0.1.UPF: wavefunction(s)  2P renormalized

     -------------------------------------
     Parameters for Dispersion Correction:
     -------------------------------------
       atom      VdW radius       C_6     

        C          2.744         60.710
        N          2.640         42.670
        H          1.892          4.857
        O          2.536         24.284

     Subspace diagonalization in iterative solution of the eigenvalue problem:
     a serial algorithm will be used

 
     Parallelization info
     --------------------
     sticks:   dense  smooth     PW     G-vecs:    dense   smooth      PW
     Min         760     760    203                63176    63176    8833
     Max         761     761    204                63179    63179    8838
     Sum        6083    6083   1629               505415   505415   70681
 


     bravais-lattice index     =            0
     lattice parameter (alat)  =      10.2691  a.u.
     unit-cell volume          =    3740.7684 (a.u.)^3
     number of atoms/cell      =           56
     number of atomic types    =            4
     number of electrons       =       232.00
     number of Kohn-Sham states=          139
     kinetic-energy cutoff     =     100.0000  Ry
     charge density cutoff     =     400.0000  Ry
     convergence threshold     =      1.0E-08
     mixing beta               =       0.5000
     number of iterations used =            8  plain     mixing
     Exchange-correlation      =  SLA  PW   PBX  PBC ( 1  4  3  4 0 0)

     celldm(1)=  10.269150  celldm(2)=   0.000000  celldm(3)=   0.000000
     celldm(4)=   0.000000  celldm(5)=   0.000000  celldm(6)=   0.000000

     crystal axes: (cart. coord. in units of alat)
               a(1) = (   1.000000   0.000000   0.000000 )  
               a(2) = (   0.000000   1.810865   0.000000 )  
               a(3) = (   0.000000   0.000000   1.907530 )  

     reciprocal axes: (cart. coord. in units 2 pi/alat)
               b(1) = (  1.000000  0.000000  0.000000 )  
               b(2) = (  0.000000  0.552222  0.000000 )  
               b(3) = (  0.000000  0.000000  0.524238 )  


     PseudoPot. # 1 for  C read from file:
     /scratch/ahofstet/pseudo/C.pbe-n-kjpaw_psl.0.1.UPF
     MD5 check sum: 430fe95172b1e11ef3f8ed03bac87931
     Pseudo is Projector augmented-wave + core cor, Zval =  4.0
     Generated using "atomic" code by A. Dal Corso  v.5.0.99 svn rev. 10869
     Shape of augmentation charge: BESSEL
     Using radial grid of 1073 points,  4 beta functions with: 
                l(1) =   0
                l(2) =   0
                l(3) =   1
                l(4) =   1
     Q(r) pseudized with 0 coefficients 


     PseudoPot. # 2 for  N read from file:
     /scratch/ahofstet/pseudo/N.pbe-n-kjpaw_psl.0.1.UPF
     MD5 check sum: f73187c8b701007e77325f868c9291d7
     Pseudo is Projector augmented-wave + core cor, Zval =  5.0
     Generated using "atomic" code by A. Dal Corso  v.5.0.99 svn rev. 10869
     Shape of augmentation charge: PSQ
     Using radial grid of 1085 points,  4 beta functions with: 
                l(1) =   0
                l(2) =   0
                l(3) =   1
                l(4) =   1
     Q(r) pseudized with 0 coefficients 


     PseudoPot. # 3 for  H read from file:
     /scratch/ahofstet/pseudo/H.pbe-kjpaw_psl.0.1.UPF
     MD5 check sum: 94e484f906d9e9773b2f6e52662335b2
     Pseudo is Projector augmented-wave, Zval =  1.0
     Generated using "atomic" code by A. Dal Corso  v.5.0.99 svn rev. 10869
     Shape of augmentation charge: PSQ
     Using radial grid of  929 points,  2 beta functions with: 
                l(1) =   0
                l(2) =   0
     Q(r) pseudized with 0 coefficients 


     PseudoPot. # 4 for  O read from file:
     /scratch/ahofstet/pseudo/O.pbe-n-kjpaw_psl.0.1.UPF
     MD5 check sum: 3f94a2996a3169367d6eb21d9b593f20
     Pseudo is Projector augmented-wave + core cor, Zval =  6.0
     Generated using "atomic" code by A. Dal Corso  v.5.0.99 svn rev. 10869
     Shape of augmentation charge: BESSEL
     Using radial grid of 1095 points,  4 beta functions with: 
                l(1) =   0
                l(2) =   0
                l(3) =   1
                l(4) =   1
     Q(r) pseudized with 0 coefficients 


     atomic species   valence    mass     pseudopotential
        C              4.00    12.01070      C( 1.00)
        N              5.00    14.00670      N( 1.00)
        H              1.00     1.00794      H( 1.00)
        O              6.00    15.99940      O( 1.00)

      2 Sym. Ops. (no inversion) found ( 1 have fractional translation)
          (note:  2 additional sym.ops. were found but ignored
           their fractional translations are incommensurate with FFT grid)


   Cartesian axes

     site n.     atom                  positions (alat units)
         1           O   tau(   1) = (   0.3203112   0.5472956   0.7049765  )
         2           O   tau(   2) = (   0.1796888   1.2635689   1.6587415  )
         3           O   tau(   3) = (   0.6796888   1.4527279   0.2487886  )
         4           O   tau(   4) = (   0.8203112   0.3581366   1.2025536  )
         5           O   tau(   5) = (   0.6302691   0.2939179   1.8760818  )
         6           O   tau(   6) = (   0.8697309   1.5169466   0.9223167  )
         7           O   tau(   7) = (   0.3697309   1.1993501   0.9852134  )
         8           O   tau(   8) = (   0.1302691   0.6115144   0.0314483  )
         9           O   tau(   9) = (   0.0682359   0.0305357   0.0010688  )
        10           O   tau(  10) = (   0.4317641   1.7803289   0.9548338  )
        11           O   tau(  11) = (   0.9317641   0.9359679   0.9526963  )
        12           O   tau(  12) = (   0.5682359   0.8748966   1.9064613  )
        13           O   tau(  13) = (   0.2042564   1.7574000   0.3699674  )
        14           O   tau(  14) = (   0.2957436   0.0534645   1.3237325  )
        15           O   tau(  15) = (   0.7957436   0.8519677   0.5837976  )
        16           O   tau(  16) = (   0.7042564   0.9588968   1.5375626  )
        17           N   tau(  17) = (   0.4928320   0.4270020   0.3397145  )
        18           N   tau(  18) = (   1.0071680   1.3838626   1.2934796  )
        19           N   tau(  19) = (   0.5071680   1.3324342   0.6140505  )
        20           N   tau(  20) = (  -0.0071680   0.4784303   1.5678156  )
        21           H   tau(  21) = (   0.3552545   0.5172333   0.2411764  )
        22           H   tau(  22) = (   0.1447455   1.2936312   1.1949414  )
        23           H   tau(  23) = (   0.6447455   1.4226656   0.7125887  )
        24           H   tau(  24) = (   0.8552545   0.3881989   1.6663537  )
        25           N   tau(  25) = (   0.6912377   0.3418671   0.7081386  )
        26           N   tau(  26) = (   0.8087623   1.4689974   1.6619036  )
        27           N   tau(  27) = (   0.3087623   1.2472993   0.2456265  )
        28           N   tau(  28) = (   0.1912377   0.5635652   1.1993915  )
        29           H   tau(  29) = (   0.7111573   0.3604554   0.8971454  )
        30           H   tau(  30) = (   0.7888427   1.4504091   1.8509104  )
        31           H   tau(  31) = (   0.2888427   1.2658877   0.0566196  )
        32           H   tau(  32) = (   0.2111573   0.5449769   1.0103847  )
        33           N   tau(  33) = (   0.0555064   0.0474083   0.2280187  )
        34           N   tau(  34) = (   0.4444936   1.7634562   1.1817837  )
        35           N   tau(  35) = (   0.9444936   0.9528405   0.7257463  )
        36           N   tau(  36) = (   0.5555064   0.8580240   1.6795114  )
        37           C   tau(  37) = (   0.4888911   0.4454547   0.5912150  )
        38           C   tau(  38) = (   0.0111089   1.3654098   1.5449800  )
        39           C   tau(  39) = (   0.5111089   1.3508869   0.3625501  )
        40           C   tau(  40) = (   0.9888911   0.4599776   1.3163151  )
        41           C   tau(  41) = (   0.6625020   0.3003510   0.1934737  )
        42           C   tau(  42) = (   0.8374980   1.5105135   1.1472387  )
        43           C   tau(  43) = (   0.3374980   1.2057832   0.7602914  )
        44           C   tau(  44) = (   0.1625020   0.6050813   1.7140564  )
        45           C   tau(  45) = (   0.8602576   0.1888781   0.3363660  )
        46           C   tau(  46) = (   0.6397424   1.6219864   1.2901310  )
        47           C   tau(  47) = (   0.1397424   1.0943104   0.6173990  )
        48           C   tau(  48) = (   0.3602576   0.7165541   1.5711641  )
        49           C   tau(  49) = (   0.8662153   0.2175294   0.5878444  )
        50           C   tau(  50) = (   0.6337847   1.5933352   1.5416095  )
        51           C   tau(  51) = (   0.1337847   1.1229616   0.3659206  )
        52           C   tau(  52) = (   0.3662153   0.6879029   1.3196856  )
        53           H   tau(  53) = (   1.0124210   0.1374803   0.6995498  )
        54           H   tau(  54) = (   0.4875790   1.6733843   1.6533148  )
        55           H   tau(  55) = (  -0.0124210   1.0429125   0.2542153  )
        56           H   tau(  56) = (   0.5124210   0.7679520   1.2079803  )

     number of k points=    12
                       cart. coord. in units 2pi/alat
        k(    1) = (   0.0000000   0.0000000   0.0000000), wk =   0.1250000
        k(    2) = (   0.0000000   0.0000000  -0.2621191), wk =   0.1250000
        k(    3) = (   0.0000000  -0.2761112   0.0000000), wk =   0.1250000
        k(    4) = (   0.0000000  -0.2761112  -0.2621191), wk =   0.1250000
        k(    5) = (   0.2500000   0.0000000   0.0000000), wk =   0.2500000
        k(    6) = (   0.2500000   0.0000000  -0.2621191), wk =   0.2500000
        k(    7) = (   0.2500000  -0.2761112   0.0000000), wk =   0.2500000
        k(    8) = (   0.2500000  -0.2761112  -0.2621191), wk =   0.2500000
        k(    9) = (  -0.5000000   0.0000000   0.0000000), wk =   0.1250000
        k(   10) = (  -0.5000000   0.0000000  -0.2621191), wk =   0.1250000
        k(   11) = (  -0.5000000  -0.2761112   0.0000000), wk =   0.1250000
        k(   12) = (  -0.5000000  -0.2761112  -0.2621191), wk =   0.1250000

     Dense  grid:   505415 G-vectors     FFT dimensions: (  72, 120, 125)

     Estimated max dynamical RAM per process >     444.91MB

     Estimated total allocated dynamical RAM >    3559.32MB

     Check: negative/imaginary core charge=   -0.000003    0.000000

     Initial potential from superposition of free atoms

     starting charge  231.99911, renormalised to  232.00000
     Starting wfc are  188 randomized atomic wfcs
     Checking if some PAW data can be deallocated... 

     total cpu time spent up to now is       24.2 secs

     per-process dynamical memory:   340.9 Mb

     Self-consistent Calculation

     iteration #  1     ecut=   100.00 Ry     beta=0.50
     Davidson diagonalization with overlap
     ethr =  1.00E-02,  avg # of iterations =  3.6

     total cpu time spent up to now is       99.9 secs

     total energy              =   -1312.55651917 Ry
     Harris-Foulkes estimate   =   -1315.90246407 Ry
     estimated scf accuracy    <       6.00831497 Ry

     iteration #  2     ecut=   100.00 Ry     beta=0.50
     Davidson diagonalization with overlap
     ethr =  2.59E-03,  avg # of iterations =  3.0

     total cpu time spent up to now is      150.7 secs

     total energy              =   -1313.61301724 Ry
     Harris-Foulkes estimate   =   -1314.39274677 Ry
     estimated scf accuracy    <       1.65202562 Ry

     iteration #  3     ecut=   100.00 Ry     beta=0.50
     Davidson diagonalization with overlap
     ethr =  7.12E-04,  avg # of iterations =  4.8

     total cpu time spent up to now is      207.2 secs

     total energy              =   -1314.01190038 Ry
     Harris-Foulkes estimate   =   -1314.10297523 Ry
     estimated scf accuracy    <       0.23489244 Ry

     iteration #  4     ecut=   100.00 Ry     beta=0.50
     Davidson diagonalization with overlap
     ethr =  1.01E-04,  avg # of iterations =  4.9

     total cpu time spent up to now is      256.9 secs

     total energy              =   -1314.05135696 Ry
     Harris-Foulkes estimate   =   -1314.05736741 Ry
     estimated scf accuracy    <       0.02721950 Ry

     iteration #  5     ecut=   100.00 Ry     beta=0.50
     Davidson diagonalization with overlap
     ethr =  1.17E-05,  avg # of iterations =  7.2

     total cpu time spent up to now is      335.7 secs

     total energy              =   -1314.05729248 Ry
     Harris-Foulkes estimate   =   -1314.06195296 Ry
     estimated scf accuracy    <       0.01220818 Ry

     iteration #  6     ecut=   100.00 Ry     beta=0.50
     Davidson diagonalization with overlap
     ethr =  5.26E-06,  avg # of iterations =  2.6

     total cpu time spent up to now is      379.7 secs

     total energy              =   -1314.05911979 Ry
     Harris-Foulkes estimate   =   -1314.06025695 Ry
     estimated scf accuracy    <       0.00318328 Ry

     iteration #  7     ecut=   100.00 Ry     beta=0.50
     Davidson diagonalization with overlap
     ethr =  1.37E-06,  avg # of iterations =  3.0

     total cpu time spent up to now is      425.1 secs

     total energy              =   -1314.05979306 Ry
     Harris-Foulkes estimate   =   -1314.05986918 Ry
     estimated scf accuracy    <       0.00028328 Ry

     iteration #  8     ecut=   100.00 Ry     beta=0.50
     Davidson diagonalization with overlap
     ethr =  1.22E-07,  avg # of iterations =  3.5

     total cpu time spent up to now is      489.6 secs

     total energy              =   -1314.05987761 Ry
     Harris-Foulkes estimate   =   -1314.05992225 Ry
     estimated scf accuracy    <       0.00011763 Ry

     iteration #  9     ecut=   100.00 Ry     beta=0.50
     Davidson diagonalization with overlap
     ethr =  5.07E-08,  avg # of iterations =  2.0

     total cpu time spent up to now is      529.7 secs

     total energy              =   -1314.05988451 Ry
     Harris-Foulkes estimate   =   -1314.05989470 Ry
     estimated scf accuracy    <       0.00002543 Ry

     iteration # 10     ecut=   100.00 Ry     beta=0.50
     Davidson diagonalization with overlap
     ethr =  1.10E-08,  avg # of iterations =  3.1

     total cpu time spent up to now is      596.0 secs

     total energy              =   -1314.05989598 Ry
     Harris-Foulkes estimate   =   -1314.05989950 Ry
     estimated scf accuracy    <       0.00001301 Ry

     iteration # 11     ecut=   100.00 Ry     beta=0.50
     Davidson diagonalization with overlap
     ethr =  5.61E-09,  avg # of iterations =  2.0

     total cpu time spent up to now is      635.9 secs

     total energy              =   -1314.05989683 Ry
     Harris-Foulkes estimate   =   -1314.05989775 Ry
     estimated scf accuracy    <       0.00000229 Ry

     iteration # 12     ecut=   100.00 Ry     beta=0.50
     Davidson diagonalization with overlap
     ethr =  9.88E-10,  avg # of iterations =  3.0

     total cpu time spent up to now is      691.0 secs

     total energy              =   -1314.05989747 Ry
     Harris-Foulkes estimate   =   -1314.05989751 Ry
     estimated scf accuracy    <       0.00000018 Ry

     iteration # 13     ecut=   100.00 Ry     beta=0.50
     Davidson diagonalization with overlap
     ethr =  7.56E-11,  avg # of iterations =  3.1

     total cpu time spent up to now is      740.9 secs

     total energy              =   -1314.05989750 Ry
     Harris-Foulkes estimate   =   -1314.05989752 Ry
     estimated scf accuracy    <       0.00000005 Ry

     iteration # 14     ecut=   100.00 Ry     beta=0.50
     Davidson diagonalization with overlap
     ethr =  2.05E-11,  avg # of iterations =  2.2

     total cpu time spent up to now is      785.1 secs

     total energy              =   -1314.05989751 Ry
     Harris-Foulkes estimate   =   -1314.05989751 Ry
     estimated scf accuracy    <       0.00000001 Ry

     iteration # 15     ecut=   100.00 Ry     beta=0.50
     Davidson diagonalization with overlap
     ethr =  4.47E-12,  avg # of iterations =  3.0

     total cpu time spent up to now is      835.6 secs

     End of self-consistent calculation

          k = 0.0000 0.0000 0.0000 ( 63133 PWs)   bands (ev):

   -22.8581 -22.8535 -22.8525 -22.8517 -19.4921 -19.4900 -19.3621 -19.3546
   -18.7100 -18.7020 -18.5274 -18.5155 -18.3151 -18.3111 -18.3101 -18.3021
   -17.0617 -17.0502 -16.8978 -16.8747 -15.4958 -15.4833 -15.3938 -15.3852
   -13.2515 -13.2258 -13.2078 -13.1538 -10.2823 -10.2429 -10.2057 -10.1412
    -9.2913  -9.2517  -9.1773  -9.1565  -8.8552  -8.8251  -8.7402  -8.7066
    -6.6866  -6.6022  -6.5923  -6.5573  -6.4716  -6.4062  -6.3641  -6.2215
    -5.4687  -5.4401  -5.4216  -5.3867  -5.3129  -5.1604  -5.1396  -5.0367
    -5.0363  -4.9860  -4.9792  -4.9461  -4.7912  -4.7016  -4.5352  -4.4478
    -4.1535  -4.1334  -4.1273  -3.9894  -3.8158  -3.8071  -3.7731  -3.6872
    -3.1511  -3.1165  -3.0498  -2.9654  -2.7532  -2.7308  -2.4591  -2.4044
    -2.3043  -2.2552  -2.1719  -2.1707  -1.6710  -1.5651  -1.5539  -1.3517
     0.1553   0.1581   0.1801   0.1877   0.2297   0.2459   0.2712   0.2985
     0.4399   0.4996   0.5204   0.5854   0.6149   0.7011   0.7703   0.7929
     0.9117   1.1583   1.1640   1.2264   1.2343   1.3408   1.4607   1.4618
     1.5035   1.5506   1.6498   1.6520   4.4223   4.4819   4.5445   4.8358
     5.5779   5.7602   5.9004   5.9306   6.7734   6.8967   6.9816   7.0768
     8.3516   9.0294   9.3898   9.4036   9.5797   9.5852   9.6198   9.6555
     9.7764  10.0433  10.4575

          k = 0.0000 0.0000-0.2621 ( 63226 PWs)   bands (ev):

   -22.8556 -22.8555 -22.8524 -22.8523 -19.4510 -19.4509 -19.4092 -19.4091
   -18.6840 -18.6839 -18.5301 -18.5300 -18.3148 -18.3147 -18.3050 -18.3049
   -17.0454 -17.0453 -16.8980 -16.8979 -15.5693 -15.5693 -15.3068 -15.3068
   -13.2406 -13.2406 -13.1790 -13.1790 -10.2674 -10.2674 -10.1766 -10.1766
    -9.3059  -9.3059  -9.1247  -9.1247  -9.0386  -9.0386  -8.4956  -8.4956
    -6.5730  -6.5730  -6.5241  -6.5241  -6.5080  -6.5080  -6.3438  -6.3438
    -5.5033  -5.5033  -5.4159  -5.4159  -5.2426  -5.2426  -5.1981  -5.1981
    -5.0350  -5.0350  -4.8972  -4.8972  -4.7289  -4.7289  -4.5358  -4.5358
    -4.1480  -4.1480  -3.9301  -3.9301  -3.8245  -3.8245  -3.3794  -3.3794
    -3.3231  -3.3231  -3.2117  -3.2117  -2.8759  -2.8759  -2.3725  -2.3725
    -2.2154  -2.2154  -2.0610  -2.0610  -1.6363  -1.6363  -1.4596  -1.4596
     0.1714   0.1714   0.1834   0.1834   0.2409   0.2410   0.3318   0.3318
     0.4706   0.4706   0.5052   0.5052   0.6893   0.6893   0.7132   0.7132
     1.0547   1.0547   1.1871   1.1872   1.2980   1.2980   1.4594   1.4594
     1.4937   1.4937   1.6530   1.6530   4.4686   4.4686   4.6491   4.6491
     5.7485   5.7485   5.8466   5.8466   6.9023   6.9024   6.9815   6.9815
     8.6392   8.6393   9.4656   9.4656   9.6280   9.6280   9.6771   9.6771
     9.8480   9.8480  10.4949

          k = 0.0000-0.2761 0.0000 ( 63304 PWs)   bands (ev):

   -22.8560 -22.8560 -22.8519 -22.8519 -19.4911 -19.4910 -19.3584 -19.3583
   -18.7060 -18.7060 -18.5214 -18.5214 -18.3151 -18.3150 -18.3042 -18.3041
   -17.0561 -17.0560 -16.8863 -16.8863 -15.4898 -15.4898 -15.3892 -15.3892
   -13.2299 -13.2299 -13.1901 -13.1901 -10.2432 -10.2432 -10.1930 -10.1930
    -9.2733  -9.2733  -9.1638  -9.1638  -8.8439  -8.8439  -8.7203  -8.7203
    -6.6409  -6.6409  -6.5757  -6.5757  -6.4526  -6.4526  -6.2909  -6.2909
    -5.4738  -5.4737  -5.3547  -5.3547  -5.2338  -5.2337  -5.1256  -5.1256
    -5.0346  -5.0346  -4.9385  -4.9385  -4.7484  -4.7484  -4.4713  -4.4712
    -4.1791  -4.1791  -4.0000  -4.0000  -3.9134  -3.9134  -3.6405  -3.6405
    -3.1357  -3.1357  -2.9943  -2.9943  -2.8045  -2.8045  -2.4010  -2.4010
    -2.2478  -2.2478  -2.1748  -2.1747  -1.6239  -1.6239  -1.4814  -1.4814
     0.1640   0.1640   0.2076   0.2076   0.2320   0.2320   0.2819   0.2819
     0.4257   0.4257   0.4813   0.4813   0.6901   0.6901   0.8294   0.8294
     1.0538   1.0538   1.2270   1.2271   1.3537   1.3537   1.4617   1.4617
     1.5152   1.5152   1.5631   1.5631   4.4471   4.4471   4.6928   4.6928
     5.6678   5.6678   5.9178   5.9178   6.8167   6.8168   7.0573   7.0573
     8.7452   8.7452   9.3118   9.3118   9.5699   9.5699   9.6732   9.6732
     9.9233   9.9234  10.1698

          k = 0.0000-0.2761-0.2621 ( 63176 PWs)   bands (ev):

   -22.8548 -22.8547 -22.8532 -22.8531 -19.4509 -19.4508 -19.4094 -19.4093
   -18.6838 -18.6837 -18.5302 -18.5302 -18.3157 -18.3156 -18.3040 -18.3040
   -17.0450 -17.0449 -16.8985 -16.8984 -15.5693 -15.5693 -15.3068 -15.3068
   -13.2228 -13.2228 -13.1972 -13.1972 -10.2398 -10.2398 -10.2044 -10.2044
    -9.3064  -9.3064  -9.1230  -9.1230  -9.0381  -9.0380  -8.4963  -8.4963
    -6.5932  -6.5932  -6.5177  -6.5177  -6.5147  -6.5146  -6.3139  -6.3139
    -5.5402  -5.5402  -5.4039  -5.4039  -5.2282  -5.2281  -5.2088  -5.2087
    -5.0435  -5.0435  -4.8890  -4.8889  -4.6969  -4.6969  -4.5480  -4.5480
    -4.1458  -4.1457  -3.9473  -3.9473  -3.8261  -3.8261  -3.3907  -3.3907
    -3.3012  -3.3012  -3.2157  -3.2157  -2.8513  -2.8513  -2.4240  -2.4240
    -2.1867  -2.1867  -2.0429  -2.0429  -1.5816  -1.5815  -1.5392  -1.5391
     0.1690   0.1690   0.1871   0.1871   0.2513   0.2513   0.2996   0.2997
     0.4512   0.4512   0.4969   0.4970   0.7149   0.7150   0.7340   0.7340
     1.0621   1.0622   1.1934   1.1935   1.4100   1.4100   1.4451   1.4451
     1.4888   1.4888   1.5491   1.5492   4.5377   4.5378   4.5810   4.5810
     5.7658   5.7658   5.8245   5.8245   6.9195   6.9195   6.9754   6.9754
     8.8482   8.8483   9.2376   9.2376   9.5357   9.5357   9.7079   9.7079
     9.9281   9.9281  10.2347

          k = 0.2500 0.0000 0.0000 ( 63167 PWs)   bands (ev):

   -22.8557 -22.8525 -22.8513 -22.8508 -19.4728 -19.4620 -19.3800 -19.3651
   -18.6897 -18.6732 -18.5619 -18.5423 -18.3149 -18.3129 -18.3049 -18.2992
   -17.0532 -17.0472 -16.9402 -16.9209 -15.4766 -15.4647 -15.4034 -15.3948
   -13.2401 -13.2272 -13.2114 -13.1694 -10.2542 -10.2345 -10.1858 -10.1343
    -9.2803  -9.2389  -9.1886  -9.1814  -8.8083  -8.7661  -8.7385  -8.6819
    -6.6267  -6.5851  -6.5699  -6.5389  -6.4995  -6.4242  -6.3928  -6.2580
    -5.5768  -5.5449  -5.4712  -5.4472  -5.3481  -5.2632  -5.1954  -5.0370
    -5.0080  -4.9854  -4.9853  -4.9525  -4.7775  -4.7427  -4.5687  -4.4435
    -4.1433  -4.0792  -4.0546  -3.8935  -3.8610  -3.8365  -3.7012  -3.6726
    -3.1128  -3.0777  -3.0757  -3.0004  -2.7426  -2.6269  -2.5902  -2.4313
    -2.2998  -2.2583  -2.1611  -2.1393  -1.4607  -1.4350  -1.3702  -1.2036
     0.1013   0.1411   0.2089   0.2217   0.2427   0.2634   0.3123   0.3598
     0.3792   0.4955   0.4998   0.5515   0.6513   0.7075   0.7727   0.7835
     0.9827   1.1277   1.1761   1.1764   1.2493   1.3399   1.3740   1.4526
     1.4646   1.5218   1.5676   1.5967   4.3938   4.4566   4.4965   4.7302
     5.5510   5.6865   5.8359   5.8584   6.6583   6.8098   6.8322   6.9369
     8.5257   9.1313   9.1669   9.5642   9.5931   9.5978   9.6609   9.7712
     9.8227   9.9482  10.3324

          k = 0.2500 0.0000-0.2621 ( 63160 PWs)   bands (ev):

   -22.8538 -22.8538 -22.8514 -22.8514 -19.4387 -19.4387 -19.4066 -19.4066
   -18.6675 -18.6675 -18.5600 -18.5600 -18.3117 -18.3116 -18.3047 -18.3047
   -17.0415 -17.0414 -16.9368 -16.9368 -15.5291 -15.5291 -15.3435 -15.3435
   -13.2333 -13.2333 -13.1884 -13.1884 -10.2411 -10.2411 -10.1681 -10.1681
    -9.2592  -9.2592  -9.1306  -9.1306  -8.9661  -8.9661  -8.5789  -8.5789
    -6.5615  -6.5614  -6.5202  -6.5202  -6.5094  -6.5094  -6.3835  -6.3835
    -5.5613  -5.5613  -5.4547  -5.4547  -5.2782  -5.2782  -5.1400  -5.1400
    -5.0507  -5.0507  -4.9327  -4.9327  -4.6905  -4.6905  -4.5714  -4.5714
    -4.1371  -4.1371  -3.8919  -3.8919  -3.8258  -3.8258  -3.5254  -3.5254
    -3.2916  -3.2916  -3.1606  -3.1605  -2.7345  -2.7345  -2.4250  -2.4250
    -2.2672  -2.2672  -2.0743  -2.0743  -1.4557  -1.4557  -1.2998  -1.2998
     0.1336   0.1336   0.1875   0.1875   0.2574   0.2574   0.3479   0.3479
     0.4634   0.4634   0.5171   0.5171   0.6686   0.6686   0.7512   0.7512
     1.0738   1.0739   1.1764   1.1764   1.3090   1.3090   1.4140   1.4140
     1.4679   1.4679   1.5974   1.5974   4.4364   4.4364   4.5837   4.5837
     5.6995   5.6996   5.7793   5.7793   6.7453   6.7453   6.8759   6.8759
     8.8420   8.8421   9.3316   9.3317   9.5008   9.5008   9.7012   9.7012
     9.8473   9.8473  10.5294

          k = 0.2500-0.2761 0.0000 ( 63136 PWs)   bands (ev):

   -22.8542 -22.8542 -22.8510 -22.8510 -19.4675 -19.4675 -19.3726 -19.3726
   -18.6817 -18.6817 -18.5519 -18.5518 -18.3145 -18.3144 -18.3014 -18.3014
   -17.0503 -17.0502 -16.9305 -16.9305 -15.4710 -15.4710 -15.3987 -15.3987
   -13.2277 -13.2277 -13.1966 -13.1966 -10.2337 -10.2337 -10.1709 -10.1709
    -9.2626  -9.2626  -9.1823  -9.1823  -8.7910  -8.7910  -8.7055  -8.7055
    -6.6072  -6.6072  -6.5600  -6.5600  -6.4509  -6.4509  -6.3357  -6.3357
    -5.5661  -5.5661  -5.4527  -5.4526  -5.2843  -5.2843  -5.1085  -5.1085
    -5.0206  -5.0206  -4.9879  -4.9879  -4.7653  -4.7653  -4.5108  -4.5108
    -4.0244  -4.0244  -3.9800  -3.9800  -3.9095  -3.9095  -3.6799  -3.6799
    -3.1140  -3.1140  -3.0142  -3.0142  -2.7236  -2.7236  -2.4800  -2.4800
    -2.2376  -2.2376  -2.1762  -2.1762  -1.4435  -1.4434  -1.3079  -1.3079
     0.1243   0.1243   0.1928   0.1928   0.2581   0.2581   0.3176   0.3176
     0.4368   0.4368   0.5503   0.5503   0.6954   0.6954   0.7718   0.7718
     1.0511   1.0512   1.1783   1.1784   1.3225   1.3225   1.4406   1.4406
     1.4808   1.4808   1.5435   1.5435   4.4189   4.4189   4.6163   4.6163
     5.6196   5.6197   5.8508   5.8508   6.7210   6.7210   6.8941   6.8941
     8.7923   8.7923   9.4249   9.4250   9.6049   9.6049   9.6965   9.6965
     9.9627   9.9629  10.1513

          k = 0.2500-0.2761-0.2621 ( 63168 PWs)   bands (ev):

   -22.8532 -22.8531 -22.8521 -22.8520 -19.4374 -19.4373 -19.4081 -19.4080
   -18.6668 -18.6668 -18.5608 -18.5607 -18.3115 -18.3114 -18.3048 -18.3047
   -17.0412 -17.0411 -16.9372 -16.9371 -15.5290 -15.5290 -15.3435 -15.3435
   -13.2206 -13.2205 -13.2014 -13.2014 -10.2185 -10.2185 -10.1912 -10.1912
    -9.2591  -9.2591  -9.1296  -9.1296  -8.9659  -8.9659  -8.5794  -8.5794
    -6.5770  -6.5770  -6.5226  -6.5226  -6.4994  -6.4994  -6.3685  -6.3685
    -5.5807  -5.5807  -5.4614  -5.4613  -5.2255  -5.2255  -5.1924  -5.1924
    -5.0289  -5.0289  -4.9477  -4.9477  -4.6867  -4.6867  -4.5722  -4.5722
    -4.0694  -4.0693  -3.9540  -3.9540  -3.8321  -3.8320  -3.5350  -3.5350
    -3.2341  -3.2340  -3.2035  -3.2035  -2.7070  -2.7070  -2.4772  -2.4772
    -2.2078  -2.2078  -2.0987  -2.0987  -1.3969  -1.3969  -1.3666  -1.3666
     0.1275   0.1275   0.1584   0.1584   0.2608   0.2608   0.3582   0.3582
     0.4819   0.4819   0.5146   0.5146   0.7073   0.7073   0.7196   0.7196
     1.0653   1.0653   1.1662   1.1663   1.3844   1.3844   1.4002   1.4002
     1.4770   1.4770   1.5441   1.5441   4.4939   4.4939   4.5242   4.5243
     5.7136   5.7136   5.7666   5.7666   6.7875   6.7875   6.8309   6.8309
     8.9639   8.9639   9.2064   9.2064   9.5923   9.5923   9.6762   9.6762
    10.0243  10.0244  10.0721

          k =-0.5000 0.0000 0.0000 ( 63172 PWs)   bands (ev):

   -22.8523 -22.8523 -22.8501 -22.8501 -19.4247 -19.4247 -19.4060 -19.4060
   -18.6316 -18.6316 -18.6074 -18.6074 -18.3140 -18.3140 -18.2991 -18.2991
   -17.0133 -17.0133 -17.0057 -17.0057 -15.4354 -15.4354 -15.4253 -15.4253
   -13.2281 -13.2281 -13.2008 -13.2008 -10.2284 -10.2284 -10.1426 -10.1426
    -9.2401  -9.2401  -9.2102  -9.2102  -8.7464  -8.7464  -8.6866  -8.6866
    -6.5534  -6.5534  -6.5370  -6.5370  -6.4631  -6.4631  -6.3937  -6.3937
    -5.6646  -5.6646  -5.5253  -5.5253  -5.3322  -5.3322  -5.1682  -5.1682
    -4.9894  -4.9894  -4.9428  -4.9428  -4.8025  -4.8025  -4.5011  -4.5011
    -4.0494  -4.0494  -3.9440  -3.9440  -3.8186  -3.8186  -3.7250  -3.7250
    -3.0899  -3.0899  -3.0385  -3.0385  -2.7037  -2.7037  -2.4815  -2.4815
    -2.2065  -2.2065  -2.1814  -2.1814  -1.2646  -1.2646  -1.1605  -1.1605
     0.0979   0.0979   0.2108   0.2108   0.2768   0.2768   0.3612   0.3612
     0.4701   0.4701   0.5449   0.5449   0.6586   0.6586   0.7743   0.7743
     1.0876   1.0876   1.1372   1.1372   1.2469   1.2469   1.3648   1.3648
     1.4802   1.4802   1.5219   1.5219   4.3981   4.3981   4.5433   4.5433
     5.5709   5.5709   5.7776   5.7776   6.5997   6.5997   6.7764   6.7764
     8.8014   8.8014   9.4820   9.4820   9.6382   9.6382   9.6849   9.6849
     9.8848   9.8848  10.3756

          k =-0.5000 0.0000-0.2621 ( 63164 PWs)   bands (ev):

   -22.8518 -22.8518 -22.8507 -22.8507 -19.4245 -19.4245 -19.4056 -19.4056
   -18.6318 -18.6318 -18.6087 -18.6087 -18.3087 -18.3087 -18.3052 -18.3052
   -17.0078 -17.0078 -17.0052 -17.0052 -15.4352 -15.4352 -15.4339 -15.4339
   -13.2205 -13.2205 -13.2034 -13.2034 -10.2130 -10.2130 -10.1605 -10.1605
    -9.1781  -9.1781  -9.1740  -9.1740  -8.7823  -8.7823  -8.7718  -8.7718
    -6.5500  -6.5500  -6.5385  -6.5385  -6.4789  -6.4789  -6.4253  -6.4253
    -5.6273  -5.6273  -5.5452  -5.5452  -5.1789  -5.1789  -5.1723  -5.1723
    -5.0153  -5.0153  -4.9628  -4.9628  -4.7422  -4.7422  -4.5772  -4.5772
    -3.9485  -3.9485  -3.9079  -3.9079  -3.8230  -3.8230  -3.7658  -3.7658
    -3.2751  -3.2751  -3.1440  -3.1440  -2.5717  -2.5717  -2.4005  -2.4005
    -2.3034  -2.3034  -2.1346  -2.1346  -1.2692  -1.2692  -1.1801  -1.1801
     0.1076   0.1076   0.1610   0.1610   0.3268   0.3268   0.3597   0.3597
     0.4228   0.4228   0.5639   0.5639   0.6745   0.6745   0.7536   0.7536
     1.1091   1.1091   1.1351   1.1351   1.2855   1.2855   1.3667   1.3667
     1.5041   1.5041   1.5055   1.5055   4.4327   4.4327   4.4945   4.4945
     5.6649   5.6649   5.6987   5.6987   6.6056   6.6056   6.7581   6.7581
     9.0818   9.0818   9.0837   9.0837   9.5631   9.5631   9.6440   9.6440
    10.0804  10.0804  10.1121

          k =-0.5000-0.2761 0.0000 ( 63160 PWs)   bands (ev):

   -22.8522 -22.8522 -22.8503 -22.8503 -19.4184 -19.4184 -19.4124 -19.4124
   -18.6269 -18.6269 -18.6120 -18.6120 -18.3141 -18.3141 -18.2987 -18.2987
   -17.0132 -17.0132 -17.0058 -17.0058 -15.4359 -15.4359 -15.4248 -15.4248
   -13.2246 -13.2246 -13.2044 -13.2044 -10.2223 -10.2223 -10.1488 -10.1488
    -9.2389  -9.2389  -9.2132  -9.2132  -8.7294  -8.7294  -8.7018  -8.7018
    -6.5670  -6.5670  -6.5392  -6.5392  -6.4302  -6.4302  -6.4146  -6.4146
    -5.6118  -5.6118  -5.5570  -5.5570  -5.2999  -5.2999  -5.2184  -5.2184
    -4.9897  -4.9897  -4.9865  -4.9865  -4.7420  -4.7420  -4.5307  -4.5307
    -4.0197  -4.0197  -3.9437  -3.9437  -3.8735  -3.8735  -3.6953  -3.6953
    -3.1062  -3.1062  -3.0155  -3.0155  -2.6715  -2.6715  -2.5070  -2.5070
    -2.2108  -2.2108  -2.1741  -2.1741  -1.2574  -1.2574  -1.1728  -1.1728
     0.0996   0.0996   0.1921   0.1921   0.2821   0.2821   0.3532   0.3532
     0.5112   0.5112   0.5126   0.5126   0.6912   0.6912   0.7721   0.7721
     1.0413   1.0413   1.1029   1.1029   1.2889   1.2889   1.3681   1.3681
     1.4847   1.4847   1.5318   1.5318   4.4047   4.4047   4.5314   4.5314
     5.5814   5.5814   5.7761   5.7761   6.6382   6.6382   6.7192   6.7192
     8.8418   8.8418   9.5318   9.5318   9.6382   9.6382   9.6714   9.6714
    10.0491  10.0491  10.2023

          k =-0.5000-0.2761-0.2621 ( 63080 PWs)   bands (ev):

   -22.8513 -22.8513 -22.8512 -22.8512 -19.4152 -19.4152 -19.4152 -19.4152
   -18.6203 -18.6203 -18.6202 -18.6202 -18.3068 -18.3068 -18.3068 -18.3068
   -17.0065 -17.0065 -17.0065 -17.0065 -15.4346 -15.4346 -15.4346 -15.4346
   -13.2120 -13.2120 -13.2120 -13.2120 -10.1870 -10.1870 -10.1869 -10.1869
    -9.1757  -9.1757  -9.1757  -9.1757  -8.7773  -8.7773  -8.7773  -8.7773
    -6.5504  -6.5504  -6.5504  -6.5504  -6.4476  -6.4476  -6.4475  -6.4475
    -5.5583  -5.5583  -5.5582  -5.5582  -5.2202  -5.2202  -5.2202  -5.2202
    -4.9966  -4.9966  -4.9965  -4.9965  -4.6295  -4.6295  -4.6295  -4.6295
    -3.9633  -3.9633  -3.9633  -3.9633  -3.7688  -3.7688  -3.7688  -3.7688
    -3.2070  -3.2070  -3.2069  -3.2069  -2.4973  -2.4973  -2.4973  -2.4973
    -2.2040  -2.2040  -2.2040  -2.2040  -1.2228  -1.2228  -1.2228  -1.2228
     0.1220   0.1220   0.1221   0.1221   0.3246   0.3246   0.3246   0.3246
     0.5233   0.5233   0.5233   0.5233   0.7226   0.7226   0.7226   0.7226
     1.0797   1.0797   1.0797   1.0797   1.3516   1.3516   1.3516   1.3516
     1.5117   1.5117   1.5117   1.5117   4.4612   4.4612   4.4612   4.4612
     5.6864   5.6864   5.6864   5.6864   6.6718   6.6718   6.6718   6.6718
     9.1121   9.1121   9.1121   9.1121   9.6540   9.6540   9.6540   9.6540
    10.1067  10.1067  10.1067

     highest occupied, lowest unoccupied level (ev):     1.6530    4.3938

!    total energy              =   -1314.05989751 Ry
     Harris-Foulkes estimate   =   -1314.05989751 Ry
     estimated scf accuracy    <          1.9E-09 Ry

     total all-electron energy =     -4955.421360 Ry

     The total energy is the sum of the following terms:

     one-electron contribution =    -569.52827392 Ry
     hartree contribution      =     386.69931832 Ry
     xc contribution           =    -258.18010755 Ry
     ewald contribution        =    -514.71979205 Ry
     Dispersion Correction     =      -0.28533452 Ry
     one-center paw contrib.   =    -358.04570779 Ry

     convergence has been achieved in  15 iterations

     Forces acting on atoms (cartesian axes, Ry/au):

     atom    1 type  4   force =     0.00196399   -0.00381420   -0.00256936
     atom    2 type  4   force =    -0.00196940    0.00381767   -0.00257005
     atom    3 type  4   force =    -0.00196940   -0.00381767    0.00257005
     atom    4 type  4   force =     0.00196399    0.00381420    0.00256936
     atom    5 type  4   force =    -0.00134895   -0.00095899    0.00190901
     atom    6 type  4   force =     0.00135174    0.00095871    0.00189932
     atom    7 type  4   force =     0.00135174   -0.00095871   -0.00189932
     atom    8 type  4   force =    -0.00134895    0.00095899   -0.00190901
     atom    9 type  4   force =     0.00054496    0.00215129    0.00022697
     atom   10 type  4   force =    -0.00054468   -0.00215398    0.00021842
     atom   11 type  4   force =    -0.00054468    0.00215398   -0.00021842
     atom   12 type  4   force =     0.00054496   -0.00215129   -0.00022697
     atom   13 type  4   force =    -0.00041834    0.00434739   -0.00079738
     atom   14 type  4   force =     0.00041288   -0.00434463   -0.00078864
     atom   15 type  4   force =     0.00041288    0.00434463    0.00078864
     atom   16 type  4   force =    -0.00041834   -0.00434739    0.00079738
     atom   17 type  2   force =     0.00268156   -0.00210975    0.00191061
     atom   18 type  2   force =    -0.00268199    0.00210980    0.00190963
     atom   19 type  2   force =    -0.00268199   -0.00210980   -0.00190963
     atom   20 type  2   force =     0.00268156    0.00210975   -0.00191061
     atom   21 type  3   force =    -0.00069875    0.00041438   -0.00017026
     atom   22 type  3   force =     0.00069904   -0.00041411   -0.00017001
     atom   23 type  3   force =     0.00069904    0.00041411    0.00017001
     atom   24 type  3   force =    -0.00069875   -0.00041438    0.00017026
     atom   25 type  2   force =    -0.00033281   -0.00146598   -0.00203096
     atom   26 type  2   force =     0.00032977    0.00146817   -0.00203209
     atom   27 type  2   force =     0.00032977   -0.00146817    0.00203209
     atom   28 type  2   force =    -0.00033281    0.00146598    0.00203096
     atom   29 type  3   force =    -0.00001322    0.00079094    0.00024472
     atom   30 type  3   force =     0.00001401   -0.00079100    0.00024543
     atom   31 type  3   force =     0.00001401    0.00079100   -0.00024543
     atom   32 type  3   force =    -0.00001322   -0.00079094   -0.00024472
     atom   33 type  2   force =     0.00033036   -0.00275371    0.00114262
     atom   34 type  2   force =    -0.00032624    0.00274933    0.00114586
     atom   35 type  2   force =    -0.00032624   -0.00274933   -0.00114586
     atom   36 type  2   force =     0.00033036    0.00275371   -0.00114262
     atom   37 type  1   force =    -0.00167002    0.00455553   -0.00051791
     atom   38 type  1   force =     0.00167149   -0.00455660   -0.00049836
     atom   39 type  1   force =     0.00167149    0.00455660    0.00049836
     atom   40 type  1   force =    -0.00167002   -0.00455553    0.00051791
     atom   41 type  1   force =     0.00212625    0.00198977    0.00096669
     atom   42 type  1   force =    -0.00212607   -0.00199010    0.00097004
     atom   43 type  1   force =    -0.00212607    0.00199010   -0.00097004
     atom   44 type  1   force =     0.00212625   -0.00198977   -0.00096669
     atom   45 type  1   force =     0.00147634    0.00167400    0.00383987
     atom   46 type  1   force =    -0.00147583   -0.00167332    0.00385501
     atom   47 type  1   force =    -0.00147583    0.00167332   -0.00385501
     atom   48 type  1   force =     0.00147634   -0.00167400   -0.00383987
     atom   49 type  1   force =    -0.00148384   -0.00127433   -0.00016515
     atom   50 type  1   force =     0.00148693    0.00127171   -0.00014387
     atom   51 type  1   force =     0.00148693   -0.00127171    0.00014387
     atom   52 type  1   force =    -0.00148384    0.00127433    0.00016515
     atom   53 type  3   force =    -0.00122529   -0.00024048   -0.00154254
     atom   54 type  3   force =     0.00122609    0.00024027   -0.00154219
     atom   55 type  3   force =     0.00122609   -0.00024027    0.00154219
     atom   56 type  3   force =    -0.00122529    0.00024048    0.00154254

     Total force =     0.024406     Total SCF correction =     0.000103


     Computing stress (Cartesian axis) and pressure

          total   stress  (Ry/bohr**3)                   (kbar)     P=   -3.12
  -0.00001712   0.00000000   0.00000000         -2.52      0.00      0.00
   0.00000000   0.00001557  -0.00000000          0.00      2.29     -0.00
   0.00000000  -0.00000000  -0.00006210          0.00     -0.00     -9.14


     Writing output data file scf.save
 
     init_run     :     22.78s CPU     23.57s WALL (       1 calls)
     electrons    :    787.19s CPU    811.71s WALL (       1 calls)
     forces       :     10.38s CPU     10.48s WALL (       1 calls)
     stress       :     38.85s CPU     39.08s WALL (       1 calls)

     Called by init_run:
     wfcinit      :     19.50s CPU     20.05s WALL (       1 calls)
     potinit      :      1.18s CPU      1.37s WALL (       1 calls)

     Called by electrons:
     c_bands      :    703.67s CPU    724.37s WALL (      15 calls)
     sum_band     :     76.83s CPU     79.88s WALL (      15 calls)
     v_of_rho     :      1.07s CPU      1.17s WALL (      16 calls)
     newd         :      1.88s CPU      2.24s WALL (      16 calls)
     PAW_pot      :      3.46s CPU      3.46s WALL (      16 calls)
     mix_rho      :      0.22s CPU      0.25s WALL (      15 calls)

     Called by c_bands:
     init_us_2    :      4.66s CPU      4.68s WALL (     396 calls)
     cegterg      :    684.97s CPU    705.64s WALL (     180 calls)

     Called by sum_band:
     sum_band:bec :      0.06s CPU      0.06s WALL (     180 calls)
     addusdens    :      1.87s CPU      2.25s WALL (      15 calls)

     Called by *egterg:
     h_psi        :    393.77s CPU    406.73s WALL (     803 calls)
     s_psi        :     73.91s CPU     73.92s WALL (     803 calls)
     g_psi        :      2.16s CPU      2.16s WALL (     611 calls)
     cdiaghg      :     43.74s CPU     43.74s WALL (     791 calls)

     Called by h_psi:
     h_psi:pot    :    391.22s CPU    404.12s WALL (     803 calls)
     h_psi:calbec :     73.19s CPU     73.40s WALL (     803 calls)
     vloc_psi     :    244.10s CPU    256.77s WALL (     803 calls)
     add_vuspsi   :     73.93s CPU     73.95s WALL (     803 calls)

     General routines
     calbec       :    109.25s CPU    109.55s WALL (    1043 calls)
     fft          :      0.85s CPU      1.03s WALL (     232 calls)
     fftw         :    263.62s CPU    278.01s WALL (  163116 calls)
 
     Parallel routines
     fft_scatter  :     61.71s CPU     70.50s WALL (  163348 calls)
 
     PWSCF        : 14m27.01s CPU    14m54.48s WALL

 
   This run was terminated on:   3:39:10   4Nov2017            

=------------------------------------------------------------------------------=
   JOB DONE.
=------------------------------------------------------------------------------=
