
     Program PWSCF v.6.1 (svn rev. 13369) starts on 18Dec2017 at 11: 3:29 

     This program is part of the open-source Quantum ESPRESSO suite
     for quantum simulation of materials; please cite
         "P. Giannozzi et al., J. Phys.:Condens. Matter 21 395502 (2009);
          URL http://www.quantum-espresso.org", 
     in publications or presentations arising from this work. More details at
     http://www.quantum-espresso.org/quote

     Parallel version (MPI), running on     8 processors
     R & G space division:  proc/nbgrp/npool/nimage =       8
     Waiting for input...
     Reading input from standard input

     Current dimensions of program PWSCF are:
     Max number of different atomic species (ntypx) = 10
     Max number of k-points (npk) =  40000
     Max angular momentum in pseudopotentials (lmaxx) =  3
               file C.pbe-n-kjpaw_psl.0.1.UPF: wavefunction(s)  2P renormalized
               file N.pbe-n-kjpaw_psl.0.1.UPF: wavefunction(s)  2P renormalized
               file H.pbe-kjpaw_psl.0.1.UPF: wavefunction(s)  1S renormalized
               file O.pbe-n-kjpaw_psl.0.1.UPF: wavefunction(s)  2P renormalized

     -------------------------------------
     Parameters for Dispersion Correction:
     -------------------------------------
       atom      VdW radius       C_6     

        C          2.744         60.710
        N          2.640         42.670
        H          1.892          4.857
        O          2.536         24.284

     Subspace diagonalization in iterative solution of the eigenvalue problem:
     a serial algorithm will be used

 
     Parallelization info
     --------------------
     sticks:   dense  smooth     PW     G-vecs:    dense   smooth      PW
     Min         798     798    211               123664   123664   16699
     Max         799     799    212               123678   123678   16706
     Sum        6389    6389   1689               989377   989377  133619
 


     bravais-lattice index     =            0
     lattice parameter (alat)  =      16.9357  a.u.
     unit-cell volume          =    7324.3965 (a.u.)^3
     number of atoms/cell      =          132
     number of atomic types    =            4
     number of electrons       =       312.00
     number of Kohn-Sham states=          187
     kinetic-energy cutoff     =     100.0000  Ry
     charge density cutoff     =     400.0000  Ry
     convergence threshold     =      1.0E-08
     mixing beta               =       0.5000
     number of iterations used =            8  plain     mixing
     Exchange-correlation      =  SLA  PW   PBX  PBC ( 1  4  3  4 0 0)

     celldm(1)=  16.935726  celldm(2)=   0.000000  celldm(3)=   0.000000
     celldm(4)=   0.000000  celldm(5)=   0.000000  celldm(6)=   0.000000

     crystal axes: (cart. coord. in units of alat)
               a(1) = (   1.000000   0.000000   0.000000 )  
               a(2) = (   0.000000   0.702745   0.000000 )  
               a(3) = (  -0.285531   0.000000   2.145669 )  

     reciprocal axes: (cart. coord. in units 2 pi/alat)
               b(1) = (  1.000000  0.000000  0.133073 )  
               b(2) = (  0.000000  1.422991  0.000000 )  
               b(3) = (  0.000000  0.000000  0.466055 )  


     PseudoPot. # 1 for  C read from file:
     /scratch/ahofstet/pseudo/C.pbe-n-kjpaw_psl.0.1.UPF
     MD5 check sum: 430fe95172b1e11ef3f8ed03bac87931
     Pseudo is Projector augmented-wave + core cor, Zval =  4.0
     Generated using "atomic" code by A. Dal Corso  v.5.0.99 svn rev. 10869
     Shape of augmentation charge: BESSEL
     Using radial grid of 1073 points,  4 beta functions with: 
                l(1) =   0
                l(2) =   0
                l(3) =   1
                l(4) =   1
     Q(r) pseudized with 0 coefficients 


     PseudoPot. # 2 for  N read from file:
     /scratch/ahofstet/pseudo/N.pbe-n-kjpaw_psl.0.1.UPF
     MD5 check sum: f73187c8b701007e77325f868c9291d7
     Pseudo is Projector augmented-wave + core cor, Zval =  5.0
     Generated using "atomic" code by A. Dal Corso  v.5.0.99 svn rev. 10869
     Shape of augmentation charge: PSQ
     Using radial grid of 1085 points,  4 beta functions with: 
                l(1) =   0
                l(2) =   0
                l(3) =   1
                l(4) =   1
     Q(r) pseudized with 0 coefficients 


     PseudoPot. # 3 for  H read from file:
     /scratch/ahofstet/pseudo/H.pbe-kjpaw_psl.0.1.UPF
     MD5 check sum: 94e484f906d9e9773b2f6e52662335b2
     Pseudo is Projector augmented-wave, Zval =  1.0
     Generated using "atomic" code by A. Dal Corso  v.5.0.99 svn rev. 10869
     Shape of augmentation charge: PSQ
     Using radial grid of  929 points,  2 beta functions with: 
                l(1) =   0
                l(2) =   0
     Q(r) pseudized with 0 coefficients 


     PseudoPot. # 4 for  O read from file:
     /scratch/ahofstet/pseudo/O.pbe-n-kjpaw_psl.0.1.UPF
     MD5 check sum: 3f94a2996a3169367d6eb21d9b593f20
     Pseudo is Projector augmented-wave + core cor, Zval =  6.0
     Generated using "atomic" code by A. Dal Corso  v.5.0.99 svn rev. 10869
     Shape of augmentation charge: BESSEL
     Using radial grid of 1095 points,  4 beta functions with: 
                l(1) =   0
                l(2) =   0
                l(3) =   1
                l(4) =   1
     Q(r) pseudized with 0 coefficients 


     atomic species   valence    mass     pseudopotential
        C              4.00    12.01070      C( 1.00)
        N              5.00    14.00670      N( 1.00)
        H              1.00     1.00794      H( 1.00)
        O              6.00    15.99940      O( 1.00)

      2 Sym. Ops., with inversion, found
          (note:  2 additional sym.ops. were found but ignored
           their fractional translations are incommensurate with FFT grid)


   Cartesian axes

     site n.     atom                  positions (alat units)
         1           O   tau(   1) = (  -0.0796281   0.0887423   2.1230273  )
         2           O   tau(   2) = (   0.6513315   0.4401148   1.0954760  )
         3           O   tau(   3) = (   0.7940971   0.6140026   0.0226416  )
         4           O   tau(   4) = (   0.0631374   0.2626302   1.0501929  )
         5           C   tau(   5) = (   0.2174563   0.7031585   0.0794120  )
         6           C   tau(   6) = (   0.6397782   0.3517860   0.9934225  )
         7           C   tau(   7) = (   0.4970126  -0.0004136   2.0662569  )
         8           C   tau(   8) = (   0.0746907   0.3509589   1.1522464  )
         9           C   tau(   9) = (   0.3769319   0.0170570   0.2882810  )
        10           C   tau(  10) = (   0.4803026   0.3684295   0.7845534  )
        11           C   tau(  11) = (   0.3375370   0.6856879   1.8573879  )
        12           C   tau(  12) = (   0.2341664   0.3343154   1.3611155  )
        13           H   tau(  13) = (   0.3854813   0.0611312   0.4028250  )
        14           H   tau(  14) = (   0.4717532   0.4125037   0.6700094  )
        15           H   tau(  15) = (   0.3289876   0.6416137   1.7428439  )
        16           H   tau(  16) = (   0.2427158   0.2902412   1.4756595  )
        17           H   tau(  17) = (   0.4586553   0.0779911   0.2192839  )
        18           H   tau(  18) = (   0.3985791   0.4293636   0.8535506  )
        19           H   tau(  19) = (   0.2558136   0.6247538   1.9263850  )
        20           H   tau(  20) = (   0.3158898   0.2733814   1.2921183  )
        21           N   tau(  21) = (   0.2250916   0.0527040   0.2323906  )
        22           N   tau(  22) = (   0.6321428   0.4040764   0.8404438  )
        23           N   tau(  23) = (   0.4893773   0.6500409   1.9132783  )
        24           N   tau(  24) = (   0.0823261   0.2986685   1.3052251  )
        25           C   tau(  25) = (   0.1122550   0.6744019   0.3223227  )
        26           C   tau(  26) = (   0.7449795   0.3230294   0.7505117  )
        27           C   tau(  27) = (   0.6022139   0.0283431   1.8233462  )
        28           C   tau(  28) = (  -0.0305106   0.3797155   1.3951572  )
        29           H   tau(  29) = (   0.0010800   0.7017253   0.2776706  )
        30           H   tau(  30) = (   0.8561544   0.3503529   0.7951638  )
        31           H   tau(  31) = (   0.7133889   0.0010196   1.8679983  )
        32           H   tau(  32) = (  -0.1416855   0.3523920   1.3505051  )
        33           H   tau(  33) = (   0.1183183   0.0161398   0.4369055  )
        34           H   tau(  34) = (   0.7389161   0.3675123   0.6359290  )
        35           H   tau(  35) = (   0.5961506   0.6866051   1.7087634  )
        36           H   tau(  36) = (  -0.0244472   0.3352327   1.5097399  )
        37           C   tau(  37) = (   0.0182821   0.4302852   0.4218893  )
        38           C   tau(  38) = (   0.8389523   0.0789128   0.6509451  )
        39           C   tau(  39) = (   0.6961868   0.2724597   1.7237796  )
        40           C   tau(  40) = (  -0.1244834   0.6238322   1.4947238  )
        41           H   tau(  41) = (   0.0366233   0.3090723   0.4245691  )
        42           H   tau(  42) = (   0.8206112   0.6604447   0.6482653  )
        43           H   tau(  43) = (   0.6778456   0.3936726   1.7210998  )
        44           H   tau(  44) = (  -0.1061423   0.0423002   1.4974036  )
        45           H   tau(  45) = (   0.9049067   0.4512383   0.3802915  )
        46           H   tau(  46) = (  -0.0476722   0.0998659   0.6925430  )
        47           H   tau(  47) = (  -0.1904377   0.2515066   1.7653774  )
        48           H   tau(  48) = (   0.7621411   0.6028790   1.4531259  )
        49           H   tau(  49) = (   0.0258588   0.4729490   0.5369210  )
        50           H   tau(  50) = (   0.8313756   0.1215766   0.5359135  )
        51           H   tau(  51) = (   0.6886101   0.2297959   1.6087479  )
        52           H   tau(  52) = (  -0.1169067   0.5811683   1.6097554  )
        53           C   tau(  53) = (  -0.0608095   0.4813923   2.0454412  )
        54           C   tau(  54) = (   0.6325129   0.1300198   1.1730621  )
        55           C   tau(  55) = (   0.7752784   0.2213527   0.1002277  )
        56           C   tau(  56) = (   0.0819560   0.5727251   0.9726068  )
        57           H   tau(  57) = (   0.0216431   0.5376852   1.9739512  )
        58           H   tau(  58) = (   0.5500603   0.1863127   1.2445521  )
        59           H   tau(  59) = (   0.6928258   0.1650597   0.1717177  )
        60           H   tau(  60) = (   0.1644086   0.5164322   0.9011168  )
        61           H   tau(  61) = (  -0.1727229   0.5030684   2.0004178  )
        62           H   tau(  62) = (   0.7444263   0.1516960   1.2180856  )
        63           H   tau(  63) = (   0.8871919   0.1996765   0.1452511  )
        64           H   tau(  64) = (  -0.0299574   0.5510489   0.9275833  )
        65           H   tau(  65) = (  -0.0409308   0.3602787   2.0419446  )
        66           H   tau(  66) = (   0.6126342   0.0089063   1.1765588  )
        67           H   tau(  67) = (   0.7553998   0.3424662   0.1037243  )
        68           H   tau(  68) = (   0.1018347   0.6938387   0.9691101  )
        69           C   tau(  69) = (   0.5692759   0.5274626   0.3435896  )
        70           C   tau(  70) = (   0.2879586   0.1760901   0.7292449  )
        71           C   tau(  71) = (   0.1451930   0.1752823   1.8020793  )
        72           C   tau(  72) = (   0.4265104   0.5266548   1.4164240  )
        73           H   tau(  73) = (   0.6510852   0.5847996   0.2721726  )
        74           H   tau(  74) = (   0.2061493   0.2334271   0.8006619  )
        75           H   tau(  75) = (   0.0633838   0.1179453   1.8734963  )
        76           H   tau(  76) = (   0.5083196   0.4693178   1.3450070  )
        77           H   tau(  77) = (   0.5977929   0.4080729   0.3450578  )
        78           H   tau(  78) = (   0.2594416   0.0567004   0.7277766  )
        79           H   tau(  79) = (   0.1166760   0.2946721   1.8006111  )
        80           H   tau(  80) = (   0.4550274   0.6460445   1.4178923  )
        81           H   tau(  81) = (   0.5802273   0.5711089   0.4579886  )
        82           H   tau(  82) = (   0.2770072   0.2197364   0.6148459  )
        83           H   tau(  83) = (   0.1342416   0.1316360   1.6876803  )
        84           H   tau(  84) = (   0.4374618   0.4830085   1.5308230  )
        85           C   tau(  85) = (   0.4112352   0.5521466   0.2853878  )
        86           C   tau(  86) = (   0.4459993   0.2007741   0.7874466  )
        87           C   tau(  87) = (   0.3032338   0.1505983   1.8602811  )
        88           C   tau(  88) = (   0.2684696   0.5019708   1.3582223  )
        89           C   tau(  89) = (   0.2930079   0.4728362   0.3820564  )
        90           C   tau(  90) = (   0.5642266   0.1214637   0.6907780  )
        91           C   tau(  91) = (   0.4214610   0.2299087   1.7636125  )
        92           C   tau(  92) = (   0.1502424   0.5812812   1.4548909  )
        93           H   tau(  93) = (   0.3020013   0.5134125   0.4981554  )
        94           H   tau(  94) = (   0.5552331   0.1620401   0.5746791  )
        95           H   tau(  95) = (   0.4124676   0.1893324   1.6475135  )
        96           H   tau(  96) = (   0.1592358   0.5407049   1.5709898  )
        97           H   tau(  97) = (   0.3118208   0.3513771   0.3830444  )
        98           H   tau(  98) = (   0.5454136   0.0000047   0.6897900  )
        99           H   tau(  99) = (   0.4026481   0.3513678   1.7626245  )
       100           H   tau( 100) = (   0.1690553   0.7027403   1.4558789  )
       101           C   tau( 101) = (   0.1356842   0.5046409   0.3225471  )
       102           C   tau( 102) = (   0.7215503   0.1532684   0.7502874  )
       103           C   tau( 103) = (   0.5787847   0.1981040   1.8231218  )
       104           C   tau( 104) = (  -0.0070813   0.5494765   1.3953815  )
       105           C   tau( 105) = (   0.1247687   0.4499601   0.1606055  )
       106           C   tau( 106) = (   0.7324658   0.0985876   0.9122290  )
       107           C   tau( 107) = (   0.5897002   0.2527848   1.9850634  )
       108           C   tau( 108) = (  -0.0179968   0.6041573   1.2334399  )
       109           H   tau( 109) = (   0.0108343   0.4658523   0.1180630  )
       110           H   tau( 110) = (   0.8464001   0.1144798   0.9547714  )
       111           H   tau( 111) = (   0.7036346   0.2368926   2.0276059  )
       112           H   tau( 112) = (  -0.1319312   0.5882651   1.1908975  )
       113           H   tau( 113) = (   0.1515893   0.3290849   0.1532116  )
       114           H   tau( 114) = (   0.7056452   0.6804574   0.9196228  )
       115           H   tau( 115) = (   0.5628797   0.3736600   1.9924573  )
       116           H   tau( 116) = (   0.0088237   0.0222875   1.2260461  )
       117           C   tau( 117) = (   0.2370513   0.5335127   0.0605721  )
       118           C   tau( 118) = (   0.6201832   0.1821403   1.0122623  )
       119           C   tau( 119) = (   0.4774176   0.1692322   2.0850968  )
       120           C   tau( 120) = (   0.0942858   0.5206046   1.1334066  )
       121           C   tau( 121) = (   0.3953628   0.4995971   0.1227990  )
       122           C   tau( 122) = (   0.4618717   0.1482246   0.9500355  )
       123           C   tau( 123) = (   0.3191061   0.2031479   2.0228699  )
       124           C   tau( 124) = (   0.2525972   0.5545203   1.1956334  )
       125           H   tau( 125) = (   0.4110624   0.3776887   0.1140808  )
       126           H   tau( 126) = (   0.4461720   0.0263162   0.9587536  )
       127           H   tau( 127) = (   0.3034065   0.3250563   2.0315881  )
       128           H   tau( 128) = (   0.2682969   0.6764287   1.1869153  )
       129           H   tau( 129) = (   0.4817679   0.5530429   0.0532670  )
       130           H   tau( 130) = (   0.3754665   0.2016704   1.0195674  )
       131           H   tau( 131) = (   0.2327010   0.1497020   2.0924019  )
       132           H   tau( 132) = (   0.3390024   0.5010745   1.1261015  )

     number of k points=     4
                       cart. coord. in units 2pi/alat
        k(    1) = (   0.0000000   0.0000000   0.0000000), wk =   0.3333333
        k(    2) = (   0.0000000   0.4743305   0.0000000), wk =   0.6666667
        k(    3) = (  -0.5000000   0.0000000  -0.0665366), wk =   0.3333333
        k(    4) = (  -0.5000000   0.4743305  -0.0665366), wk =   0.6666667

     Dense  grid:   989377 G-vectors     FFT dimensions: ( 108,  75, 240)

     Estimated max dynamical RAM per process >     805.69MB

     Estimated total allocated dynamical RAM >    6445.50MB

     Check: negative/imaginary core charge=   -0.000002    0.000000

     Initial potential from superposition of free atoms

     starting charge  311.99724, renormalised to  312.00000
     Starting wfc are  300 randomized atomic wfcs
     Checking if some PAW data can be deallocated... 

     total cpu time spent up to now is       36.7 secs

     per-process dynamical memory:   504.1 Mb

     Self-consistent Calculation

     iteration #  1     ecut=   100.00 Ry     beta=0.50
     Davidson diagonalization with overlap
     ethr =  1.00E-02,  avg # of iterations =  4.0

     total cpu time spent up to now is      113.0 secs

     total energy              =   -1252.78254884 Ry
     Harris-Foulkes estimate   =   -1260.07134225 Ry
     estimated scf accuracy    <      13.99542656 Ry

     iteration #  2     ecut=   100.00 Ry     beta=0.50
     Davidson diagonalization with overlap
     ethr =  4.49E-03,  avg # of iterations =  2.0

     total cpu time spent up to now is      149.0 secs

     total energy              =   -1253.27754614 Ry
     Harris-Foulkes estimate   =   -1254.03467681 Ry
     estimated scf accuracy    <       1.57452078 Ry

     iteration #  3     ecut=   100.00 Ry     beta=0.50
     Davidson diagonalization with overlap
     ethr =  5.05E-04,  avg # of iterations =  5.0

     total cpu time spent up to now is      233.3 secs

     total energy              =   -1255.36186929 Ry
     Harris-Foulkes estimate   =   -1256.34599209 Ry
     estimated scf accuracy    <       3.71193920 Ry

     iteration #  4     ecut=   100.00 Ry     beta=0.50
     Davidson diagonalization with overlap
     ethr =  5.05E-04,  avg # of iterations =  1.0

     total cpu time spent up to now is      267.8 secs

     total energy              =   -1254.09096135 Ry
     Harris-Foulkes estimate   =   -1255.44709405 Ry
     estimated scf accuracy    <       1.79977082 Ry

     iteration #  5     ecut=   100.00 Ry     beta=0.50
     Davidson diagonalization with overlap
     ethr =  5.05E-04,  avg # of iterations =  4.8

     total cpu time spent up to now is      346.0 secs

     total energy              =   -1254.68490563 Ry
     Harris-Foulkes estimate   =   -1256.45359579 Ry
     estimated scf accuracy    <       3.82143107 Ry

     iteration #  6     ecut=   100.00 Ry     beta=0.50
     Davidson diagonalization with overlap
     ethr =  5.05E-04,  avg # of iterations =  2.2

     total cpu time spent up to now is      382.1 secs

     total energy              =   -1254.45974463 Ry
     Harris-Foulkes estimate   =   -1254.90666105 Ry
     estimated scf accuracy    <       0.79216368 Ry

     iteration #  7     ecut=   100.00 Ry     beta=0.50
     Davidson diagonalization with overlap
     ethr =  2.54E-04,  avg # of iterations =  4.8

     total cpu time spent up to now is      458.3 secs

     total energy              =   -1255.17160564 Ry
     Harris-Foulkes estimate   =   -1255.45815164 Ry
     estimated scf accuracy    <       0.72102815 Ry

     iteration #  8     ecut=   100.00 Ry     beta=0.50
     Davidson diagonalization with overlap
     ethr =  2.31E-04,  avg # of iterations =  1.0

     total cpu time spent up to now is      492.7 secs

     total energy              =   -1255.12781329 Ry
     Harris-Foulkes estimate   =   -1255.20215596 Ry
     estimated scf accuracy    <       0.21248326 Ry

     iteration #  9     ecut=   100.00 Ry     beta=0.50
     Davidson diagonalization with overlap
     ethr =  6.81E-05,  avg # of iterations =  9.0

     total cpu time spent up to now is      562.9 secs

     total energy              =   -1255.24326964 Ry
     Harris-Foulkes estimate   =   -1255.24579825 Ry
     estimated scf accuracy    <       0.01531835 Ry

     iteration # 10     ecut=   100.00 Ry     beta=0.50
     Davidson diagonalization with overlap
     ethr =  4.91E-06,  avg # of iterations =  2.8

     total cpu time spent up to now is      602.4 secs

     total energy              =   -1255.23755990 Ry
     Harris-Foulkes estimate   =   -1255.24421271 Ry
     estimated scf accuracy    <       0.01082361 Ry

     iteration # 11     ecut=   100.00 Ry     beta=0.50
     Davidson diagonalization with overlap
     ethr =  3.47E-06,  avg # of iterations = 10.2

     total cpu time spent up to now is      672.4 secs

     total energy              =   -1255.24194076 Ry
     Harris-Foulkes estimate   =   -1255.24229714 Ry
     estimated scf accuracy    <       0.00179205 Ry

     iteration # 12     ecut=   100.00 Ry     beta=0.50
     Davidson diagonalization with overlap
     ethr =  5.74E-07,  avg # of iterations =  1.5

     total cpu time spent up to now is      707.5 secs

     total energy              =   -1255.24144802 Ry
     Harris-Foulkes estimate   =   -1255.24198921 Ry
     estimated scf accuracy    <       0.00110686 Ry

     iteration # 13     ecut=   100.00 Ry     beta=0.50
     Davidson diagonalization with overlap
     ethr =  3.55E-07,  avg # of iterations =  3.0

     total cpu time spent up to now is      761.0 secs

     total energy              =   -1255.24180641 Ry
     Harris-Foulkes estimate   =   -1255.24180161 Ry
     estimated scf accuracy    <       0.00002469 Ry

     iteration # 14     ecut=   100.00 Ry     beta=0.50
     Davidson diagonalization with overlap
     ethr =  7.91E-09,  avg # of iterations =  4.0

     total cpu time spent up to now is      821.0 secs

     total energy              =   -1255.24180978 Ry
     Harris-Foulkes estimate   =   -1255.24182099 Ry
     estimated scf accuracy    <       0.00005110 Ry

     iteration # 15     ecut=   100.00 Ry     beta=0.50
     Davidson diagonalization with overlap
     ethr =  7.91E-09,  avg # of iterations =  1.0

     total cpu time spent up to now is      855.5 secs

     total energy              =   -1255.24180029 Ry
     Harris-Foulkes estimate   =   -1255.24181040 Ry
     estimated scf accuracy    <       0.00003037 Ry

     iteration # 16     ecut=   100.00 Ry     beta=0.50
     Davidson diagonalization with overlap
     ethr =  7.91E-09,  avg # of iterations =  3.0

     total cpu time spent up to now is      897.6 secs

     total energy              =   -1255.24180409 Ry
     Harris-Foulkes estimate   =   -1255.24180396 Ry
     estimated scf accuracy    <       0.00000438 Ry

     iteration # 17     ecut=   100.00 Ry     beta=0.50
     Davidson diagonalization with overlap
     ethr =  1.40E-09,  avg # of iterations =  4.0

     total cpu time spent up to now is      944.6 secs

     total energy              =   -1255.24180432 Ry
     Harris-Foulkes estimate   =   -1255.24180521 Ry
     estimated scf accuracy    <       0.00000283 Ry

     iteration # 18     ecut=   100.00 Ry     beta=0.50
     Davidson diagonalization with overlap
     ethr =  9.08E-10,  avg # of iterations =  3.0

     total cpu time spent up to now is      982.9 secs

     total energy              =   -1255.24180408 Ry
     Harris-Foulkes estimate   =   -1255.24180456 Ry
     estimated scf accuracy    <       0.00000099 Ry

     iteration # 19     ecut=   100.00 Ry     beta=0.50
     Davidson diagonalization with overlap
     ethr =  3.19E-10,  avg # of iterations =  4.2

     total cpu time spent up to now is     1048.3 secs

     total energy              =   -1255.24180471 Ry
     Harris-Foulkes estimate   =   -1255.24180480 Ry
     estimated scf accuracy    <       0.00000032 Ry

     iteration # 20     ecut=   100.00 Ry     beta=0.50
     Davidson diagonalization with overlap
     ethr =  1.02E-10,  avg # of iterations =  1.0

     total cpu time spent up to now is     1082.8 secs

     total energy              =   -1255.24180462 Ry
     Harris-Foulkes estimate   =   -1255.24180472 Ry
     estimated scf accuracy    <       0.00000016 Ry

     iteration # 21     ecut=   100.00 Ry     beta=0.50
     Davidson diagonalization with overlap
     ethr =  5.19E-11,  avg # of iterations =  3.0

     total cpu time spent up to now is     1139.5 secs

     total energy              =   -1255.24180469 Ry
     Harris-Foulkes estimate   =   -1255.24180471 Ry
     estimated scf accuracy    <       0.00000006 Ry

     iteration # 22     ecut=   100.00 Ry     beta=0.50
     Davidson diagonalization with overlap
     ethr =  1.83E-11,  avg # of iterations =  1.0

     total cpu time spent up to now is     1174.0 secs

     total energy              =   -1255.24180468 Ry
     Harris-Foulkes estimate   =   -1255.24180470 Ry
     estimated scf accuracy    <       0.00000002 Ry

     iteration # 23     ecut=   100.00 Ry     beta=0.50
     Davidson diagonalization with overlap
     ethr =  6.13E-12,  avg # of iterations =  4.0

     total cpu time spent up to now is     1249.1 secs

     total energy              =   -1255.24180470 Ry
     Harris-Foulkes estimate   =   -1255.24180473 Ry
     estimated scf accuracy    <       0.00000008 Ry

     iteration # 24     ecut=   100.00 Ry     beta=0.50
     Davidson diagonalization with overlap
     ethr =  6.13E-12,  avg # of iterations =  2.5

     total cpu time spent up to now is     1285.5 secs

     total energy              =   -1255.24180469 Ry
     Harris-Foulkes estimate   =   -1255.24180470 Ry
     estimated scf accuracy    <       0.00000004 Ry

     iteration # 25     ecut=   100.00 Ry     beta=0.50
     Davidson diagonalization with overlap
     ethr =  6.13E-12,  avg # of iterations =  4.0

     total cpu time spent up to now is     1347.0 secs

     End of self-consistent calculation

          k = 0.0000 0.0000 0.0000 (123559 PWs)   bands (ev):

   -20.4150 -20.4150 -20.4014 -20.4014 -17.4451 -17.4411 -17.4379 -17.4340
   -14.8328 -14.8264 -14.8063 -14.8003 -13.9354 -13.9238 -13.9192 -13.9070
   -13.6996 -13.6919 -13.6641 -13.6578 -11.0589 -11.0588 -11.0369 -11.0209
   -10.9982 -10.9694 -10.9124 -10.8671 -10.8296 -10.8236 -10.7660 -10.7132
   -10.6091 -10.5909 -10.5811 -10.5506 -10.2075 -10.1930 -10.1589 -10.1369
    -8.9505  -8.9426  -8.8084  -8.8049  -7.8988  -7.8788  -7.8053  -7.7928
    -7.7179  -7.6937  -7.6837  -7.6517  -6.6149  -6.5958  -6.5948  -6.5445
    -5.8560  -5.8352  -5.7633  -5.7059  -5.4609  -5.4427  -5.4210  -5.4033
    -5.3326  -5.3227  -5.3185  -5.2502  -5.2475  -5.2267  -5.1381  -5.1363
    -5.1276  -5.1185  -5.0805  -5.0211  -4.9640  -4.9305  -4.8895  -4.8399
    -4.3323  -4.2184  -4.1734  -4.1477  -3.9098  -3.8601  -3.7386  -3.7132
    -3.6706  -3.5895  -3.4931  -3.4753  -3.3995  -3.3954  -3.3760  -3.3664
    -3.3235  -3.3032  -3.2884  -3.2732  -3.2374  -3.2156  -3.2007  -3.0961
    -3.0910  -3.0440  -3.0335  -3.0223  -2.9849  -2.9656  -2.9406  -2.9260
    -2.9187  -2.9186  -2.9171  -2.8194  -2.7842  -2.7664  -2.7456  -2.6998
    -2.6987  -2.6702  -2.6039  -2.5667  -2.4856  -2.4520  -2.3721  -2.3358
    -2.1616  -2.1111  -2.0781  -2.0471  -1.8175  -1.8006  -1.7112  -1.6852
    -1.6565  -1.6065  -1.5177  -1.5164  -1.1080  -1.0667  -1.0348  -1.0231
    -0.9143  -0.7932  -0.7143  -0.7117  -0.0617  -0.0535  -0.0003   0.0084
     0.6599   0.6717   0.6974   0.7100   4.2162   4.2174   4.3743   4.3843
     5.5154   5.6741   6.0053   6.0417   6.2035   6.2479   6.5131   6.5568
     6.8891   6.9634   7.1135   7.1521   7.1896   7.3728   7.4716   7.4817
     7.6506   7.7986   7.8602   7.9183   7.9282   8.0160   8.0505   8.0899
     8.2503   8.2594   8.2792

          k = 0.0000 0.4743 0.0000 (123694 PWs)   bands (ev):

   -20.4136 -20.4136 -20.4002 -20.4002 -17.4395 -17.4375 -17.4312 -17.4292
   -14.8538 -14.8507 -14.8303 -14.8275 -13.9223 -13.9157 -13.9134 -13.9076
   -13.6984 -13.6883 -13.6811 -13.6713 -11.0735 -11.0675 -11.0629 -11.0580
   -10.9835 -10.9632 -10.9250 -10.9102 -10.8045 -10.8015 -10.7466 -10.7231
   -10.6128 -10.6106 -10.5670 -10.5607 -10.2254 -10.2224 -10.2049 -10.1881
    -8.8297  -8.8296  -8.7032  -8.7015  -7.8220  -7.8048  -7.7529  -7.7380
    -7.7332  -7.6994  -7.6896  -7.6548  -6.6092  -6.5929  -6.5124  -6.4829
    -5.7943  -5.7645  -5.6846  -5.6584  -5.5119  -5.4891  -5.4372  -5.4071
    -5.3731  -5.3648  -5.3063  -5.2859  -5.1970  -5.1498  -5.1375  -5.1311
    -5.0887  -5.0867  -5.0475  -5.0077  -4.9589  -4.9523  -4.8619  -4.8528
    -4.3504  -4.2787  -4.1882  -4.1518  -3.9285  -3.9008  -3.7392  -3.7045
    -3.6548  -3.5912  -3.5034  -3.4823  -3.4520  -3.3893  -3.3518  -3.3414
    -3.3239  -3.3074  -3.2842  -3.2634  -3.2604  -3.2093  -3.1902  -3.1759
    -3.1469  -3.1384  -3.1047  -3.0778  -3.0524  -3.0292  -3.0230  -2.9820
    -2.9651  -2.9444  -2.9095  -2.8805  -2.8783  -2.8380  -2.7927  -2.7887
    -2.7001  -2.6594  -2.6527  -2.6338  -2.4621  -2.4556  -2.3613  -2.3613
    -2.2932  -2.2687  -2.2482  -2.2294  -1.9198  -1.9139  -1.7186  -1.7015
    -1.6353  -1.6291  -1.5095  -1.4933  -1.1071  -1.0573  -1.0195  -0.9477
    -0.9371  -0.8526  -0.7771  -0.7576   0.0164   0.0166   0.1016   0.1087
     0.9922   1.0056   1.0150   1.0302   4.1815   4.1865   4.3487   4.3564
     5.8891   6.0383   6.2629   6.2839   6.4190   6.4863   6.6929   6.7588
     6.8201   6.8568   7.0286   7.0379   7.1953   7.2037   7.2522   7.2702
     7.5150   7.5195   7.6376   7.6912   7.6960   7.8576   7.8631   7.9851
     8.0080   8.0896   8.1985

          k =-0.5000 0.0000-0.0665 (123698 PWs)   bands (ev):

   -20.4134 -20.4134 -20.4030 -20.4030 -17.4432 -17.4403 -17.4386 -17.4357
   -14.8218 -14.8165 -14.8138 -14.8097 -13.9395 -13.9358 -13.9242 -13.9207
   -13.6852 -13.6819 -13.6655 -13.6632 -11.0648 -11.0571 -11.0500 -11.0471
   -10.9442 -10.9402 -10.9134 -10.9011 -10.7643 -10.7526 -10.7266 -10.7238
   -10.6392 -10.6366 -10.5898 -10.5814 -10.1862 -10.1761 -10.1636 -10.1488
    -8.8862  -8.8798  -8.8794  -8.8782  -7.9271  -7.8718  -7.8481  -7.8289
    -7.7591  -7.7170  -7.6866  -7.6639  -6.6981  -6.6168  -6.5703  -6.5046
    -5.7976  -5.7945  -5.7611  -5.7581  -5.4259  -5.4222  -5.4212  -5.4103
    -5.3313  -5.3221  -5.3147  -5.2557  -5.2525  -5.2457  -5.2045  -5.1690
    -5.1139  -5.0867  -5.0099  -5.0020  -4.9765  -4.9588  -4.9206  -4.9159
    -4.1746  -4.1508  -4.1464  -4.1424  -3.7957  -3.7705  -3.7318  -3.6655
    -3.6039  -3.5560  -3.5262  -3.5138  -3.4345  -3.3931  -3.3667  -3.3500
    -3.3359  -3.2788  -3.2770  -3.2515  -3.2273  -3.2033  -3.1926  -3.1701
    -3.1528  -3.0546  -3.0546  -3.0322  -2.9923  -2.9846  -2.9498  -2.9433
    -2.9090  -2.8989  -2.8819  -2.8387  -2.8023  -2.7739  -2.7181  -2.7054
    -2.6659  -2.6082  -2.6002  -2.5881  -2.4535  -2.3947  -2.3885  -2.3870
    -2.1435  -2.1153  -2.1082  -2.0317  -1.7940  -1.7548  -1.7321  -1.7034
    -1.6329  -1.6111  -1.5747  -1.5483  -1.1759  -1.1249  -1.0367  -1.0337
    -0.9509  -0.8802  -0.8188  -0.7845  -0.0613  -0.0445   0.0110   0.0144
     0.6656   0.6760   0.6938   0.7087   4.2311   4.2560   4.3167   4.3221
     5.7565   5.8812   5.8997   5.9373   6.3310   6.4511   6.6290   6.7095
     6.8567   6.9003   6.9080   7.2084   7.4054   7.4478   7.5238   7.5252
     7.5813   7.6027   7.6288   7.6859   7.8823   7.9554   7.9824   8.0227
     8.1949   8.2479   8.2929

          k =-0.5000 0.4743-0.0665 (123734 PWs)   bands (ev):

   -20.4121 -20.4121 -20.4018 -20.4018 -17.4372 -17.4358 -17.4327 -17.4313
   -14.8429 -14.8406 -14.8379 -14.8358 -13.9300 -13.9227 -13.9223 -13.9151
   -13.6890 -13.6837 -13.6816 -13.6726 -11.0999 -11.0919 -11.0861 -11.0811
   -10.9303 -10.9260 -10.9005 -10.9000 -10.7567 -10.7372 -10.7366 -10.7237
   -10.6394 -10.6069 -10.6055 -10.5826 -10.2260 -10.2092 -10.1953 -10.1891
    -8.7812  -8.7795  -8.7561  -8.7543  -7.8589  -7.8223  -7.7975  -7.7883
    -7.7365  -7.7167  -7.7016  -7.6920  -6.6329  -6.5831  -6.5211  -6.4757
    -5.7582  -5.7190  -5.6925  -5.6730  -5.4923  -5.4912  -5.4709  -5.4574
    -5.3575  -5.3352  -5.2794  -5.2527  -5.2490  -5.2087  -5.1987  -5.1644
    -5.1096  -5.0961  -4.9956  -4.9830  -4.9769  -4.9522  -4.8733  -4.8621
    -4.1958  -4.1725  -4.1408  -4.1272  -3.8671  -3.8233  -3.7768  -3.7593
    -3.5595  -3.5542  -3.5243  -3.5110  -3.3836  -3.3616  -3.3468  -3.3249
    -3.3225  -3.2817  -3.2568  -3.2469  -3.2120  -3.1995  -3.1771  -3.1519
    -3.1482  -3.1224  -3.1149  -3.0982  -3.0778  -3.0591  -3.0116  -2.9685
    -2.9412  -2.9390  -2.9250  -2.9212  -2.8779  -2.8774  -2.8030  -2.7345
    -2.7039  -2.6278  -2.5942  -2.5736  -2.5263  -2.4736  -2.4316  -2.4096
    -2.2960  -2.2803  -2.2456  -2.2241  -1.8681  -1.8429  -1.7692  -1.7613
    -1.6607  -1.6420  -1.5804  -1.5624  -1.1009  -1.0948  -1.0552  -0.9890
    -0.9487  -0.8776  -0.8671  -0.8638   0.0355   0.0422   0.0903   0.0920
     0.9879   0.9918   1.0294   1.0324   4.1997   4.2121   4.3048   4.3059
     6.1128   6.1195   6.1847   6.2166   6.6263   6.6595   6.6943   6.7158
     6.8566   6.9147   7.0722   7.1078   7.1999   7.2625   7.2935   7.4688
     7.5186   7.6493   7.6540   7.6807   7.8032   7.8063   7.8718   7.9167
     8.0512   8.0703   8.1145

     highest occupied, lowest unoccupied level (ev):     1.0324    4.1815

!    total energy              =   -1255.24180470 Ry
     Harris-Foulkes estimate   =   -1255.24180470 Ry
     estimated scf accuracy    <          1.4E-09 Ry

     total all-electron energy =     -4788.501118 Ry

     The total energy is the sum of the following terms:

     one-electron contribution =    -888.89814191 Ry
     hartree contribution      =     557.03231274 Ry
     xc contribution           =    -305.65070492 Ry
     ewald contribution        =    -226.67729094 Ry
     Dispersion Correction     =      -0.62752515 Ry
     one-center paw contrib.   =    -390.42045452 Ry

     convergence has been achieved in  25 iterations

     Forces acting on atoms (cartesian axes, Ry/au):

     atom    1 type  4   force =    -0.00079827    0.00256304   -0.01012517
     atom    2 type  4   force =     0.00079851    0.00256584    0.01012496
     atom    3 type  4   force =     0.00079827   -0.00256304    0.01012517
     atom    4 type  4   force =    -0.00079851   -0.00256584   -0.01012496
     atom    5 type  1   force =     0.00221777   -0.01532142   -0.00278367
     atom    6 type  1   force =    -0.00221764   -0.01532821    0.00278291
     atom    7 type  1   force =    -0.00221777    0.01532142    0.00278367
     atom    8 type  1   force =     0.00221764    0.01532821   -0.00278291
     atom    9 type  1   force =    -0.00170516    0.01023697    0.00179733
     atom   10 type  1   force =     0.00170573    0.01024156   -0.00179742
     atom   11 type  1   force =     0.00170516   -0.01023697   -0.00179733
     atom   12 type  1   force =    -0.00170573   -0.01024156    0.00179742
     atom   13 type  3   force =    -0.00066805   -0.00101057    0.00058419
     atom   14 type  3   force =     0.00066800   -0.00101047   -0.00058434
     atom   15 type  3   force =     0.00066805    0.00101057   -0.00058419
     atom   16 type  3   force =    -0.00066800    0.00101047    0.00058434
     atom   17 type  3   force =    -0.00011100    0.00005991   -0.00038702
     atom   18 type  3   force =     0.00011090    0.00006022    0.00038705
     atom   19 type  3   force =     0.00011100   -0.00005991    0.00038702
     atom   20 type  3   force =    -0.00011090   -0.00006022   -0.00038705
     atom   21 type  2   force =    -0.00020515   -0.00462345   -0.00057737
     atom   22 type  2   force =     0.00020555   -0.00462306    0.00057707
     atom   23 type  2   force =     0.00020515    0.00462345    0.00057737
     atom   24 type  2   force =    -0.00020555    0.00462306   -0.00057707
     atom   25 type  1   force =    -0.00248548    0.00330514    0.00391713
     atom   26 type  1   force =     0.00248611    0.00328937   -0.00391705
     atom   27 type  1   force =     0.00248548   -0.00330514   -0.00391713
     atom   28 type  1   force =    -0.00248611   -0.00328937    0.00391705
     atom   29 type  3   force =    -0.00083542   -0.00053247   -0.00056630
     atom   30 type  3   force =     0.00083531   -0.00053269    0.00056623
     atom   31 type  3   force =     0.00083542    0.00053247    0.00056630
     atom   32 type  3   force =    -0.00083531    0.00053269   -0.00056623
     atom   33 type  3   force =     0.00046683   -0.00030750    0.00031768
     atom   34 type  3   force =    -0.00046674   -0.00030762   -0.00031774
     atom   35 type  3   force =    -0.00046683    0.00030750   -0.00031768
     atom   36 type  3   force =     0.00046674    0.00030762    0.00031774
     atom   37 type  1   force =     0.00580716    0.00047214   -0.00238973
     atom   38 type  1   force =    -0.00580719    0.00046223    0.00239010
     atom   39 type  1   force =    -0.00580716   -0.00047214    0.00238973
     atom   40 type  1   force =     0.00580719   -0.00046223   -0.00239010
     atom   41 type  3   force =    -0.00082159   -0.00225012    0.00035035
     atom   42 type  3   force =     0.00082133   -0.00225172   -0.00035032
     atom   43 type  3   force =     0.00082159    0.00225012   -0.00035035
     atom   44 type  3   force =    -0.00082133    0.00225172    0.00035032
     atom   45 type  3   force =    -0.00196057    0.00106328   -0.00176779
     atom   46 type  3   force =     0.00196038    0.00106356    0.00176773
     atom   47 type  3   force =     0.00196057   -0.00106328    0.00176779
     atom   48 type  3   force =    -0.00196038   -0.00106356   -0.00176773
     atom   49 type  3   force =    -0.00027780   -0.00069736   -0.00026712
     atom   50 type  3   force =     0.00027773   -0.00069723    0.00026727
     atom   51 type  3   force =     0.00027780    0.00069736    0.00026712
     atom   52 type  3   force =    -0.00027773    0.00069723   -0.00026727
     atom   53 type  1   force =     0.00008277   -0.00011327   -0.00293502
     atom   54 type  1   force =    -0.00008304   -0.00010884    0.00293496
     atom   55 type  1   force =    -0.00008277    0.00011327    0.00293502
     atom   56 type  1   force =     0.00008304    0.00010884   -0.00293496
     atom   57 type  3   force =    -0.00113690    0.00041327    0.00011118
     atom   58 type  3   force =     0.00113664    0.00041377   -0.00011106
     atom   59 type  3   force =     0.00113690   -0.00041327   -0.00011118
     atom   60 type  3   force =    -0.00113664   -0.00041377    0.00011106
     atom   61 type  3   force =    -0.00045197    0.00096494   -0.00054379
     atom   62 type  3   force =     0.00045234    0.00096477    0.00054394
     atom   63 type  3   force =     0.00045197   -0.00096494    0.00054379
     atom   64 type  3   force =    -0.00045234   -0.00096477   -0.00054394
     atom   65 type  3   force =    -0.00048092    0.00190095   -0.00095885
     atom   66 type  3   force =     0.00048088    0.00190152    0.00095870
     atom   67 type  3   force =     0.00048092   -0.00190095    0.00095885
     atom   68 type  3   force =    -0.00048088   -0.00190152   -0.00095870
     atom   69 type  1   force =     0.00028067   -0.00201049    0.00169964
     atom   70 type  1   force =    -0.00028061   -0.00201205   -0.00169949
     atom   71 type  1   force =    -0.00028067    0.00201049   -0.00169964
     atom   72 type  1   force =     0.00028061    0.00201205    0.00169949
     atom   73 type  3   force =     0.00078617   -0.00053829   -0.00023644
     atom   74 type  3   force =    -0.00078607   -0.00053796    0.00023643
     atom   75 type  3   force =    -0.00078617    0.00053829    0.00023644
     atom   76 type  3   force =     0.00078607    0.00053796   -0.00023643
     atom   77 type  3   force =    -0.00059347   -0.00108965   -0.00019040
     atom   78 type  3   force =     0.00059329   -0.00108950    0.00019040
     atom   79 type  3   force =     0.00059347    0.00108965    0.00019040
     atom   80 type  3   force =    -0.00059329    0.00108950   -0.00019040
     atom   81 type  3   force =     0.00026420   -0.00074017   -0.00015005
     atom   82 type  3   force =    -0.00026412   -0.00074036    0.00015006
     atom   83 type  3   force =    -0.00026420    0.00074017    0.00015005
     atom   84 type  3   force =     0.00026412    0.00074036   -0.00015006
     atom   85 type  1   force =     0.00097140   -0.00486991    0.00111772
     atom   86 type  1   force =    -0.00097150   -0.00484757   -0.00111761
     atom   87 type  1   force =    -0.00097140    0.00486991   -0.00111772
     atom   88 type  1   force =     0.00097150    0.00484757    0.00111761
     atom   89 type  1   force =     0.00504492    0.00386851   -0.00092396
     atom   90 type  1   force =    -0.00504553    0.00388350    0.00092445
     atom   91 type  1   force =    -0.00504492   -0.00386851    0.00092396
     atom   92 type  1   force =     0.00504553   -0.00388350   -0.00092445
     atom   93 type  3   force =     0.00013185   -0.00097261   -0.00014193
     atom   94 type  3   force =    -0.00013186   -0.00097286    0.00014191
     atom   95 type  3   force =    -0.00013185    0.00097261    0.00014193
     atom   96 type  3   force =     0.00013186    0.00097286   -0.00014191
     atom   97 type  3   force =     0.00286543   -0.00169195   -0.00160692
     atom   98 type  3   force =    -0.00286501   -0.00169000    0.00160693
     atom   99 type  3   force =    -0.00286543    0.00169195    0.00160692
     atom  100 type  3   force =     0.00286501    0.00169000   -0.00160693
     atom  101 type  1   force =    -0.00822618   -0.00239749    0.00685820
     atom  102 type  1   force =     0.00822564   -0.00237544   -0.00685786
     atom  103 type  1   force =     0.00822618    0.00239749   -0.00685820
     atom  104 type  1   force =    -0.00822564    0.00237544    0.00685786
     atom  105 type  1   force =    -0.00124089   -0.00876116    0.00106679
     atom  106 type  1   force =     0.00124092   -0.00877894   -0.00106724
     atom  107 type  1   force =     0.00124089    0.00876116   -0.00106679
     atom  108 type  1   force =    -0.00124092    0.00877894    0.00106724
     atom  109 type  3   force =    -0.00132838    0.00191125    0.00000092
     atom  110 type  3   force =     0.00132826    0.00191085   -0.00000103
     atom  111 type  3   force =     0.00132838   -0.00191125   -0.00000092
     atom  112 type  3   force =    -0.00132826   -0.00191085    0.00000103
     atom  113 type  3   force =    -0.00321587    0.00911661    0.00309009
     atom  114 type  3   force =     0.00321534    0.00911516   -0.00308993
     atom  115 type  3   force =     0.00321587   -0.00911661   -0.00309009
     atom  116 type  3   force =    -0.00321534   -0.00911516    0.00308993
     atom  117 type  1   force =     0.00378829    0.01191354    0.00138452
     atom  118 type  1   force =    -0.00378910    0.01193717   -0.00138475
     atom  119 type  1   force =    -0.00378829   -0.01191354   -0.00138452
     atom  120 type  1   force =     0.00378910   -0.01193717    0.00138475
     atom  121 type  1   force =     0.00171521   -0.00336376    0.00112049
     atom  122 type  1   force =    -0.00171473   -0.00336580   -0.00112077
     atom  123 type  1   force =    -0.00171521    0.00336376   -0.00112049
     atom  124 type  1   force =     0.00171473    0.00336580    0.00112077
     atom  125 type  3   force =     0.00215862    0.00215246    0.00213750
     atom  126 type  3   force =    -0.00215866    0.00215347   -0.00213762
     atom  127 type  3   force =    -0.00215862   -0.00215246   -0.00213750
     atom  128 type  3   force =     0.00215866   -0.00215347    0.00213762
     atom  129 type  3   force =    -0.00044726    0.00031053    0.00006032
     atom  130 type  3   force =     0.00044745    0.00031032   -0.00006048
     atom  131 type  3   force =     0.00044726   -0.00031053   -0.00006032
     atom  132 type  3   force =    -0.00044745   -0.00031032    0.00006048

     Total force =     0.068852     Total SCF correction =     0.000080


     Computing stress (Cartesian axis) and pressure

          total   stress  (Ry/bohr**3)                   (kbar)     P=   -4.43
  -0.00002033   0.00000000   0.00000754         -2.99      0.00      1.11
   0.00000000  -0.00006154  -0.00000000          0.00     -9.05     -0.00
   0.00000754  -0.00000000  -0.00000840          1.11     -0.00     -1.24


     Writing output data file scf.save
 
     init_run     :     34.93s CPU     36.10s WALL (       1 calls)
     electrons    :   1252.44s CPU   1310.39s WALL (       1 calls)
     forces       :     20.85s CPU     21.13s WALL (       1 calls)
     stress       :     95.89s CPU     96.17s WALL (       1 calls)

     Called by init_run:
     wfcinit      :     20.52s CPU     21.53s WALL (       1 calls)
     potinit      :      5.00s CPU      5.02s WALL (       1 calls)

     Called by electrons:
     c_bands      :   1105.32s CPU   1153.06s WALL (      25 calls)
     sum_band     :    121.16s CPU    128.64s WALL (      25 calls)
     v_of_rho     :      3.67s CPU      3.86s WALL (      26 calls)
     newd         :      9.85s CPU     12.33s WALL (      26 calls)
     PAW_pot      :     10.69s CPU     10.69s WALL (      26 calls)
     mix_rho      :      1.16s CPU      1.28s WALL (      25 calls)

     Called by c_bands:
     init_us_2    :      9.41s CPU      9.46s WALL (     212 calls)
     cegterg      :   1072.44s CPU   1120.10s WALL (     100 calls)

     Called by sum_band:
     sum_band:bec :      0.07s CPU      0.07s WALL (     100 calls)
     addusdens    :     10.70s CPU     13.10s WALL (      25 calls)

     Called by *egterg:
     h_psi        :    608.71s CPU    644.87s WALL (     448 calls)
     s_psi        :    123.19s CPU    123.19s WALL (     448 calls)
     g_psi        :      4.64s CPU      4.64s WALL (     344 calls)
     cdiaghg      :     50.87s CPU     50.93s WALL (     444 calls)

     Called by h_psi:
     h_psi:pot    :    603.67s CPU    639.74s WALL (     448 calls)
     h_psi:calbec :    116.83s CPU    117.10s WALL (     448 calls)
     vloc_psi     :    363.63s CPU    399.41s WALL (     448 calls)
     add_vuspsi   :    123.21s CPU    123.23s WALL (     448 calls)

     General routines
     calbec       :    163.49s CPU    163.85s WALL (     568 calls)
     fft          :      2.91s CPU      3.29s WALL (     362 calls)
     fftw         :    387.55s CPU    426.92s WALL (  129008 calls)
 
     Parallel routines
     fft_scatter  :     73.34s CPU    106.66s WALL (  129370 calls)
 
     PWSCF        : 23m31.00s CPU    24m53.79s WALL

 
   This run was terminated on:  11:28:22  18Dec2017            

=------------------------------------------------------------------------------=
   JOB DONE.
=------------------------------------------------------------------------------=
