
     Program PWSCF v.6.1 (svn rev. 13369) starts on 13Nov2017 at 12:24: 3 

     This program is part of the open-source Quantum ESPRESSO suite
     for quantum simulation of materials; please cite
         "P. Giannozzi et al., J. Phys.:Condens. Matter 21 395502 (2009);
          URL http://www.quantum-espresso.org", 
     in publications or presentations arising from this work. More details at
     http://www.quantum-espresso.org/quote

     Parallel version (MPI), running on     8 processors
     R & G space division:  proc/nbgrp/npool/nimage =       8
     Waiting for input...
     Reading input from standard input

     Current dimensions of program PWSCF are:
     Max number of different atomic species (ntypx) = 10
     Max number of k-points (npk) =  40000
     Max angular momentum in pseudopotentials (lmaxx) =  3
               file C.pbe-n-kjpaw_psl.0.1.UPF: wavefunction(s)  2P renormalized
               file N.pbe-n-kjpaw_psl.0.1.UPF: wavefunction(s)  2P renormalized
               file H.pbe-kjpaw_psl.0.1.UPF: wavefunction(s)  1S renormalized
               file O.pbe-n-kjpaw_psl.0.1.UPF: wavefunction(s)  2P renormalized

     -------------------------------------
     Parameters for Dispersion Correction:
     -------------------------------------
       atom      VdW radius       C_6     

        C          2.744         60.710
        N          2.640         42.670
        H          1.892          4.857
        O          2.536         24.284

     Subspace diagonalization in iterative solution of the eigenvalue problem:
     a serial algorithm will be used

 
     Parallelization info
     --------------------
     sticks:   dense  smooth     PW     G-vecs:    dense   smooth      PW
     Min         614     614    161                85016    85016   11431
     Max         615     615    162                85027    85027   11438
     Sum        4919    4919   1293               680203   680203   91479
 


     bravais-lattice index     =            0
     lattice parameter (alat)  =      14.6019  a.u.
     unit-cell volume          =    5033.6709 (a.u.)^3
     number of atoms/cell      =           68
     number of atomic types    =            4
     number of electrons       =       280.00
     number of Kohn-Sham states=          168
     kinetic-energy cutoff     =     100.0000  Ry
     charge density cutoff     =     400.0000  Ry
     convergence threshold     =      1.0E-08
     mixing beta               =       0.5000
     number of iterations used =            8  plain     mixing
     Exchange-correlation      =  SLA  PW   PBX  PBC ( 1  4  3  4 0 0)

     celldm(1)=  14.601914  celldm(2)=   0.000000  celldm(3)=   0.000000
     celldm(4)=   0.000000  celldm(5)=   0.000000  celldm(6)=   0.000000

     crystal axes: (cart. coord. in units of alat)
               a(1) = (   1.000000   0.000000   0.000000 )  
               a(2) = (   0.000000   0.724861   0.000000 )  
               a(3) = (  -0.258077   0.000000   2.230493 )  

     reciprocal axes: (cart. coord. in units 2 pi/alat)
               b(1) = (  1.000000  0.000000  0.115704 )  
               b(2) = (  0.000000  1.379575  0.000000 )  
               b(3) = (  0.000000  0.000000  0.448331 )  


     PseudoPot. # 1 for  C read from file:
     /scratch/ahofstet/pseudo/C.pbe-n-kjpaw_psl.0.1.UPF
     MD5 check sum: 430fe95172b1e11ef3f8ed03bac87931
     Pseudo is Projector augmented-wave + core cor, Zval =  4.0
     Generated using "atomic" code by A. Dal Corso  v.5.0.99 svn rev. 10869
     Shape of augmentation charge: BESSEL
     Using radial grid of 1073 points,  4 beta functions with: 
                l(1) =   0
                l(2) =   0
                l(3) =   1
                l(4) =   1
     Q(r) pseudized with 0 coefficients 


     PseudoPot. # 2 for  N read from file:
     /scratch/ahofstet/pseudo/N.pbe-n-kjpaw_psl.0.1.UPF
     MD5 check sum: f73187c8b701007e77325f868c9291d7
     Pseudo is Projector augmented-wave + core cor, Zval =  5.0
     Generated using "atomic" code by A. Dal Corso  v.5.0.99 svn rev. 10869
     Shape of augmentation charge: PSQ
     Using radial grid of 1085 points,  4 beta functions with: 
                l(1) =   0
                l(2) =   0
                l(3) =   1
                l(4) =   1
     Q(r) pseudized with 0 coefficients 


     PseudoPot. # 3 for  H read from file:
     /scratch/ahofstet/pseudo/H.pbe-kjpaw_psl.0.1.UPF
     MD5 check sum: 94e484f906d9e9773b2f6e52662335b2
     Pseudo is Projector augmented-wave, Zval =  1.0
     Generated using "atomic" code by A. Dal Corso  v.5.0.99 svn rev. 10869
     Shape of augmentation charge: PSQ
     Using radial grid of  929 points,  2 beta functions with: 
                l(1) =   0
                l(2) =   0
     Q(r) pseudized with 0 coefficients 


     PseudoPot. # 4 for  O read from file:
     /scratch/ahofstet/pseudo/O.pbe-n-kjpaw_psl.0.1.UPF
     MD5 check sum: 3f94a2996a3169367d6eb21d9b593f20
     Pseudo is Projector augmented-wave + core cor, Zval =  6.0
     Generated using "atomic" code by A. Dal Corso  v.5.0.99 svn rev. 10869
     Shape of augmentation charge: BESSEL
     Using radial grid of 1095 points,  4 beta functions with: 
                l(1) =   0
                l(2) =   0
                l(3) =   1
                l(4) =   1
     Q(r) pseudized with 0 coefficients 


     atomic species   valence    mass     pseudopotential
        C              4.00    12.01070      C( 1.00)
        N              5.00    14.00670      N( 1.00)
        H              1.00     1.00794      H( 1.00)
        O              6.00    15.99940      O( 1.00)

      4 Sym. Ops., with inversion, found ( 2 have fractional translation)



   Cartesian axes

     site n.     atom                  positions (alat units)
         1           O   tau(   1) = (   0.4039943   0.1971008   0.9606820  )
         2           O   tau(   2) = (   0.4669673   0.5595312   0.1545643  )
         3           O   tau(   3) = (   0.3379289   0.5277601   1.2698107  )
         4           O   tau(   4) = (   0.2749559   0.1653297   2.0759284  )
         5           N   tau(   5) = (   0.4887412   0.1700919   0.8299093  )
         6           N   tau(   6) = (   0.3822204   0.5325223   0.2853370  )
         7           N   tau(   7) = (   0.2531820   0.5547690   1.4005834  )
         8           N   tau(   8) = (   0.3597028   0.1923385   1.9451557  )
         9           N   tau(   9) = (   0.4910221   0.2679536   0.6897520  )
        10           N   tau(  10) = (   0.3799395   0.6303840   0.4254944  )
        11           N   tau(  11) = (   0.2509011   0.4569073   1.5407407  )
        12           N   tau(  12) = (   0.3619837   0.0944769   1.8049984  )
        13           C   tau(  13) = (   0.6003000   0.1861889   0.5783396  )
        14           C   tau(  14) = (   0.2706616   0.5486193   0.5369068  )
        15           C   tau(  15) = (   0.1416232   0.5386720   1.6521531  )
        16           C   tau(  16) = (   0.4712616   0.1762416   1.6935860  )
        17           N   tau(  17) = (   0.6362247   0.2388596   0.4208699  )
        18           N   tau(  18) = (   0.2347369   0.6012900   0.6943765  )
        19           N   tau(  19) = (   0.1056985   0.4860013   1.8096228  )
        20           N   tau(  20) = (   0.5071863   0.1235708   1.5361163  )
        21           C   tau(  21) = (   0.7477164   0.1264810   0.3446919  )
        22           C   tau(  22) = (   0.1232452   0.4889115   0.7705545  )
        23           C   tau(  23) = (  -0.0057932   0.5983799   1.8858009  )
        24           C   tau(  24) = (   0.6186780   0.2359494   1.4599382  )
        25           N   tau(  25) = (   0.8106298   0.1389935   0.1854703  )
        26           N   tau(  26) = (   0.0603318   0.5014239   0.9297760  )
        27           N   tau(  27) = (  -0.0687066   0.5858674   2.0450224  )
        28           N   tau(  28) = (   0.6815914   0.2234369   1.3007167  )
        29           O   tau(  29) = (   0.9187596   0.7232582   0.1702769  )
        30           O   tau(  30) = (  -0.0477980   0.3608278   0.9449695  )
        31           O   tau(  31) = (  -0.1768365   0.0016027   2.0602158  )
        32           O   tau(  32) = (   0.7897212   0.3640331   1.2855233  )
        33           N   tau(  33) = (   0.9257828   0.6209999   0.3178886  )
        34           N   tau(  34) = (  -0.0548212   0.2585694   0.7973577  )
        35           N   tau(  35) = (  -0.1838596   0.1038610   1.9126041  )
        36           N   tau(  36) = (   0.7967444   0.4662914   1.4331350  )
        37           C   tau(  37) = (   0.8182388   0.6978733   0.4265351  )
        38           C   tau(  38) = (   0.0527228   0.3354428   0.6887113  )
        39           C   tau(  39) = (  -0.0763156   0.0269876   1.8039577  )
        40           C   tau(  40) = (   0.6892004   0.3894180   1.5417815  )
        41           N   tau(  41) = (   0.7793204   0.6443399   0.5901992  )
        42           N   tau(  42) = (   0.0916412   0.2819095   0.5250472  )
        43           N   tau(  43) = (  -0.0373973   0.0805209   1.6402936  )
        44           N   tau(  44) = (   0.6502820   0.4429514   1.7054455  )
        45           C   tau(  45) = (   0.6698854   0.0288626   0.6589413  )
        46           C   tau(  46) = (   0.2010762   0.3912930   0.4563050  )
        47           C   tau(  47) = (   0.0720378   0.6959983   1.5715514  )
        48           C   tau(  48) = (   0.5408470   0.3335679   1.7741877  )
        49           N   tau(  49) = (   0.5951281   0.0235206   0.8177368  )
        50           N   tau(  50) = (   0.2758335   0.3859511   0.2975096  )
        51           N   tau(  51) = (   0.1467951   0.7013402   1.4127559  )
        52           N   tau(  52) = (   0.4660897   0.3389098   1.9329832  )
        53           C   tau(  53) = (   0.6077496   0.6303992   0.9628749  )
        54           C   tau(  54) = (   0.2632120   0.2679687   0.1523714  )
        55           C   tau(  55) = (   0.1341736   0.0944617   1.2676178  )
        56           C   tau(  56) = (   0.4787112   0.4568922   2.0781213  )
        57           H   tau(  57) = (   0.6666448   0.6967619   1.0738516  )
        58           H   tau(  58) = (   0.2043168   0.3343315   0.0413948  )
        59           H   tau(  59) = (   0.0752784   0.0280990   1.1566412  )
        60           H   tau(  60) = (   0.5376064   0.3905294   2.1890979  )
        61           H   tau(  61) = (   0.6888497   0.5227931   0.9195016  )
        62           H   tau(  62) = (   0.1821119   0.1603626   0.1957448  )
        63           H   tau(  63) = (   0.0530735   0.2020678   1.3109912  )
        64           H   tau(  64) = (   0.5598113   0.5644982   2.0347479  )
        65           H   tau(  65) = (   0.4778489   0.5851520   0.9968083  )
        66           H   tau(  66) = (   0.3931127   0.2227215   0.1184381  )
        67           H   tau(  67) = (   0.2640743   0.1397089   1.2336845  )
        68           H   tau(  68) = (   0.3488105   0.5021393   2.1120546  )

     number of k points=     4
                       cart. coord. in units 2pi/alat
        k(    1) = (   0.0000000   0.0000000   0.0000000), wk =   0.2222222
        k(    2) = (   0.0000000   0.4598584   0.0000000), wk =   0.4444444
        k(    3) = (   0.3333333   0.0000000   0.0385680), wk =   0.4444444
        k(    4) = (   0.3333333   0.4598584   0.0385680), wk =   0.8888889

     Dense  grid:   680203 G-vectors     FFT dimensions: (  96,  72, 216)

     Estimated max dynamical RAM per process >     496.35MB

     Estimated total allocated dynamical RAM >    3970.82MB

     Check: negative/imaginary core charge=   -0.000002    0.000000

     Initial potential from superposition of free atoms

     starting charge  279.99884, renormalised to  280.00000
     Starting wfc are  236 randomized atomic wfcs
     Checking if some PAW data can be deallocated... 

     total cpu time spent up to now is       21.6 secs

     per-process dynamical memory:   323.5 Mb

     Self-consistent Calculation

     iteration #  1     ecut=   100.00 Ry     beta=0.50
     Davidson diagonalization with overlap
     ethr =  1.00E-02,  avg # of iterations =  3.5

     total cpu time spent up to now is       67.7 secs

     total energy              =   -1503.39493452 Ry
     Harris-Foulkes estimate   =   -1506.87026530 Ry
     estimated scf accuracy    <       6.56264255 Ry

     iteration #  2     ecut=   100.00 Ry     beta=0.50
     Davidson diagonalization with overlap
     ethr =  2.34E-03,  avg # of iterations =  3.0

     total cpu time spent up to now is       96.6 secs

     total energy              =   -1504.14328293 Ry
     Harris-Foulkes estimate   =   -1505.07276640 Ry
     estimated scf accuracy    <       1.96932229 Ry

     iteration #  3     ecut=   100.00 Ry     beta=0.50
     Davidson diagonalization with overlap
     ethr =  7.03E-04,  avg # of iterations =  6.2

     total cpu time spent up to now is      130.7 secs

     total energy              =   -1504.65320576 Ry
     Harris-Foulkes estimate   =   -1504.83633329 Ry
     estimated scf accuracy    <       0.42918243 Ry

     iteration #  4     ecut=   100.00 Ry     beta=0.50
     Davidson diagonalization with overlap
     ethr =  1.53E-04,  avg # of iterations = 15.2

     total cpu time spent up to now is      171.3 secs

     total energy              =   -1504.71584352 Ry
     Harris-Foulkes estimate   =   -1504.77980595 Ry
     estimated scf accuracy    <       0.15859151 Ry

     iteration #  5     ecut=   100.00 Ry     beta=0.50
     Davidson diagonalization with overlap
     c_bands:  2 eigenvalues not converged
     ethr =  5.66E-05,  avg # of iterations = 10.8

     total cpu time spent up to now is      206.1 secs

     total energy              =   -1504.75555126 Ry
     Harris-Foulkes estimate   =   -1504.76620932 Ry
     estimated scf accuracy    <       0.03318920 Ry

     iteration #  6     ecut=   100.00 Ry     beta=0.50
     Davidson diagonalization with overlap
     ethr =  1.19E-05,  avg # of iterations = 11.2

     total cpu time spent up to now is      242.2 secs

     total energy              =   -1504.76271072 Ry
     Harris-Foulkes estimate   =   -1504.76379616 Ry
     estimated scf accuracy    <       0.00309807 Ry

     iteration #  7     ecut=   100.00 Ry     beta=0.50
     Davidson diagonalization with overlap
     ethr =  1.11E-06,  avg # of iterations =  8.8

     total cpu time spent up to now is      297.9 secs

     total energy              =   -1504.76381945 Ry
     Harris-Foulkes estimate   =   -1504.76413327 Ry
     estimated scf accuracy    <       0.00082301 Ry

     iteration #  8     ecut=   100.00 Ry     beta=0.50
     Davidson diagonalization with overlap
     ethr =  2.94E-07,  avg # of iterations =  3.0

     total cpu time spent up to now is      325.3 secs

     total energy              =   -1504.76393777 Ry
     Harris-Foulkes estimate   =   -1504.76404176 Ry
     estimated scf accuracy    <       0.00029225 Ry

     iteration #  9     ecut=   100.00 Ry     beta=0.50
     Davidson diagonalization with overlap
     ethr =  1.04E-07,  avg # of iterations =  4.0

     total cpu time spent up to now is      354.3 secs

     total energy              =   -1504.76400607 Ry
     Harris-Foulkes estimate   =   -1504.76401865 Ry
     estimated scf accuracy    <       0.00003764 Ry

     iteration # 10     ecut=   100.00 Ry     beta=0.50
     Davidson diagonalization with overlap
     ethr =  1.34E-08,  avg # of iterations =  3.2

     total cpu time spent up to now is      386.8 secs

     total energy              =   -1504.76401432 Ry
     Harris-Foulkes estimate   =   -1504.76401758 Ry
     estimated scf accuracy    <       0.00000766 Ry

     iteration # 11     ecut=   100.00 Ry     beta=0.50
     Davidson diagonalization with overlap
     ethr =  2.74E-09,  avg # of iterations =  4.0

     total cpu time spent up to now is      421.2 secs

     total energy              =   -1504.76401662 Ry
     Harris-Foulkes estimate   =   -1504.76401736 Ry
     estimated scf accuracy    <       0.00000216 Ry

     iteration # 12     ecut=   100.00 Ry     beta=0.50
     Davidson diagonalization with overlap
     ethr =  7.71E-10,  avg # of iterations =  2.0

     total cpu time spent up to now is      446.3 secs

     total energy              =   -1504.76401689 Ry
     Harris-Foulkes estimate   =   -1504.76401703 Ry
     estimated scf accuracy    <       0.00000042 Ry

     iteration # 13     ecut=   100.00 Ry     beta=0.50
     Davidson diagonalization with overlap
     ethr =  1.50E-10,  avg # of iterations =  4.0

     total cpu time spent up to now is      485.2 secs

     total energy              =   -1504.76401706 Ry
     Harris-Foulkes estimate   =   -1504.76401710 Ry
     estimated scf accuracy    <       0.00000009 Ry

     iteration # 14     ecut=   100.00 Ry     beta=0.50
     Davidson diagonalization with overlap
     ethr =  3.32E-11,  avg # of iterations =  2.0

     total cpu time spent up to now is      510.8 secs

     total energy              =   -1504.76401706 Ry
     Harris-Foulkes estimate   =   -1504.76401707 Ry
     estimated scf accuracy    <       0.00000001 Ry

     iteration # 15     ecut=   100.00 Ry     beta=0.50
     Davidson diagonalization with overlap
     ethr =  4.09E-12,  avg # of iterations =  4.0

     total cpu time spent up to now is      558.9 secs

     End of self-consistent calculation

          k = 0.0000 0.0000 0.0000 ( 84991 PWs)   bands (ev):

   -23.4861 -23.4830 -23.4780 -23.4750 -22.4935 -22.4912 -22.4698 -22.4672
   -19.4471 -19.4461 -19.3982 -19.3971 -17.5941 -17.5903 -17.5597 -17.5573
   -17.2297 -17.2261 -17.2082 -17.2079 -16.2257 -16.2189 -16.2088 -16.2037
   -14.9831 -14.9790 -14.9727 -14.9651 -13.9544 -13.9188 -13.9135 -13.8813
   -11.5350 -11.5313 -11.5186 -11.5158 -11.3816 -11.3444 -11.3103 -11.2835
   -10.0121 -10.0108 -10.0107 -10.0065  -8.3888  -8.3497  -8.2422  -8.2284
    -8.1908  -8.1892  -8.1886  -8.1836  -7.3057  -7.3010  -7.2677  -7.2252
    -7.0879  -6.9257  -6.9105  -6.8888  -6.5484  -6.5315  -6.4439  -6.4338
    -5.6986  -5.6417  -5.4459  -5.4168  -5.2309  -5.2236  -5.2166  -5.2065
    -5.1113  -5.1022  -5.0955  -5.0830  -4.8688  -4.7972  -4.7620  -4.7537
    -3.8706  -3.8065  -3.7927  -3.7318  -3.4522  -3.4010  -3.3880  -3.3598
    -3.3194  -3.2728  -3.0507  -3.0262  -2.7939  -2.7868  -2.7434  -2.7278
    -2.3730  -2.3555  -2.1023  -2.0611  -1.7654  -1.7456  -1.6704  -1.6293
    -1.2717  -1.2379  -1.1284  -1.0883  -0.9816  -0.9208  -0.8945  -0.8835
    -0.8471  -0.8111  -0.7928  -0.7405  -0.5877  -0.5031  -0.4634  -0.4592
    -0.3371  -0.3203  -0.2580  -0.2554  -0.1808  -0.1028  -0.0990  -0.0678
     0.6612   0.6780   0.7538   0.7547   0.7852   0.8508   0.9524   0.9994
     1.0505   1.0666   1.0901   1.1245   3.3222   3.3871   3.5661   3.6313
     5.3686   5.3923   5.4625   5.4760   5.7533   5.8198   6.4063   6.4766
     6.8196   6.8923   6.9704   6.9746   7.4573   7.7760   7.8558   8.1117
     8.2594   8.2911   8.7798   8.8199   8.8789   9.0281   9.0669   9.2308

          k = 0.0000 0.4599 0.0000 ( 85056 PWs)   bands (ev):

   -23.4822 -23.4805 -23.4781 -23.4765 -22.4922 -22.4910 -22.4684 -22.4671
   -19.4330 -19.4302 -19.4084 -19.4056 -17.5805 -17.5778 -17.5621 -17.5602
   -17.2386 -17.2356 -17.2263 -17.2245 -16.2347 -16.2280 -16.2259 -16.2200
   -14.9850 -14.9800 -14.9800 -14.9731 -13.9435 -13.9253 -13.9043 -13.8879
   -11.5131 -11.5052 -11.5045 -11.5000 -11.3565 -11.3201 -11.3175 -11.2934
   -10.0103 -10.0100 -10.0079 -10.0063  -8.3452  -8.3098  -8.2759  -8.2488
    -8.1885  -8.1860  -8.1845  -8.1835  -7.3301  -7.3241  -7.2560  -7.2257
    -7.0056  -6.9430  -6.8670  -6.8520  -6.5814  -6.5697  -6.5003  -6.4830
    -5.6434  -5.6053  -5.4620  -5.4453  -5.2612  -5.2432  -5.2202  -5.2093
    -5.1482  -5.1240  -5.0914  -5.0896  -4.9162  -4.8685  -4.7850  -4.7840
    -3.7646  -3.7584  -3.7370  -3.7312  -3.4660  -3.4458  -3.3980  -3.3551
    -3.3407  -3.2972  -2.9869  -2.9242  -2.7993  -2.7961  -2.7553  -2.7207
    -2.2006  -2.1878  -2.0572  -2.0335  -1.7481  -1.7245  -1.6774  -1.6724
    -1.2716  -1.2573  -1.1859  -1.1659  -1.1086  -1.0818  -1.0099  -0.9711
    -0.7909  -0.7759  -0.7539  -0.7411  -0.5724  -0.5461  -0.4778  -0.4418
    -0.3565  -0.3056  -0.2128  -0.2073  -0.1568  -0.1188  -0.1038  -0.0738
     0.7273   0.7595   0.7889   0.7961   0.9489   0.9591   0.9617   0.9948
     1.0531   1.0808   1.0890   1.1339   3.3647   3.4335   3.4913   3.5550
     5.3226   5.3478   5.4296   5.4409   5.7500   5.8367   6.0804   6.1584
     6.8314   6.8668   6.9020   6.9090   7.7027   7.7273   7.8612   8.1439
     8.2729   8.5113   8.5628   8.7886   9.0581   9.1018   9.3231   9.3289

          k = 0.3333 0.0000 0.0386 ( 84966 PWs)   bands (ev):

   -23.4859 -23.4828 -23.4780 -23.4750 -22.4938 -22.4912 -22.4700 -22.4671
   -19.4440 -19.4432 -19.4010 -19.4001 -17.6109 -17.6074 -17.5436 -17.5412
   -17.2279 -17.2245 -17.2077 -17.2076 -16.2258 -16.2181 -16.2099 -16.2058
   -14.9864 -14.9832 -14.9700 -14.9614 -13.9559 -13.9173 -13.9143 -13.8790
   -11.5498 -11.5397 -11.5093 -11.5044 -11.3619 -11.3520 -11.3112 -11.2956
   -10.0166 -10.0127 -10.0083 -10.0015  -8.3607  -8.3294  -8.2822  -8.2496
    -8.2004  -8.1951  -8.1916  -8.1882  -7.3360  -7.2999  -7.2560  -7.1939
    -7.0248  -6.9366  -6.9253  -6.8350  -6.5473  -6.5424  -6.4392  -6.4330
    -5.6949  -5.6377  -5.4447  -5.4130  -5.2313  -5.2164  -5.1833  -5.1747
    -5.1546  -5.1453  -5.0756  -5.0483  -4.9032  -4.8740  -4.7909  -4.7234
    -3.8329  -3.8304  -3.7864  -3.7711  -3.4577  -3.4353  -3.4176  -3.4096
    -3.3276  -3.3003  -3.0233  -2.9597  -2.7872  -2.7656  -2.7243  -2.6506
    -2.3611  -2.3507  -2.1767  -2.1179  -1.7491  -1.7328  -1.6893  -1.6667
    -1.2372  -1.1960  -1.1267  -1.1222  -1.0235  -1.0114  -0.9538  -0.9425
    -0.8479  -0.8021  -0.8017  -0.7733  -0.5696  -0.5645  -0.4704  -0.3670
    -0.3131  -0.2373  -0.2322  -0.2258  -0.1652  -0.1338  -0.0715  -0.0575
     0.7603   0.7740   0.8069   0.8233   0.8377   0.9104   0.9422   0.9569
     0.9858   1.0211   1.0555   1.0880   3.3582   3.4403   3.5243   3.5723
     5.3285   5.3760   5.3846   5.4991   5.9359   5.9942   6.2548   6.3222
     6.8605   6.9118   6.9420   6.9570   7.5546   7.7202   7.9131   7.9396
     8.4459   8.5318   8.6061   8.8277   8.9095   8.9417   9.1364   9.1599

          k = 0.3333 0.4599 0.0386 ( 85024 PWs)   bands (ev):

   -23.4820 -23.4804 -23.4781 -23.4765 -22.4924 -22.4910 -22.4686 -22.4671
   -19.4314 -19.4285 -19.4098 -19.4069 -17.5880 -17.5841 -17.5542 -17.5507
   -17.2397 -17.2367 -17.2288 -17.2269 -16.2340 -16.2266 -16.2254 -16.2197
   -14.9864 -14.9816 -14.9784 -14.9709 -13.9451 -13.9255 -13.9040 -13.8860
   -11.5223 -11.5056 -11.4986 -11.4900 -11.3478 -11.3295 -11.3140 -11.3024
   -10.0140 -10.0092 -10.0085 -10.0028  -8.3247  -8.2972  -8.2844  -8.2548
    -8.1869  -8.1854  -8.1826  -8.1809  -7.3586  -7.3350  -7.2430  -7.2039
    -6.9847  -6.9479  -6.9185  -6.8646  -6.5747  -6.5622  -6.5024  -6.4809
    -5.6372  -5.6025  -5.4585  -5.4410  -5.3165  -5.2728  -5.2008  -5.1928
    -5.1460  -5.1382  -5.1231  -5.0894  -4.8928  -4.8019  -4.7922  -4.7744
    -3.7730  -3.7530  -3.7134  -3.7004  -3.4727  -3.4127  -3.4090  -3.3476
    -3.3367  -3.3095  -2.9713  -2.9534  -2.8405  -2.8062  -2.7668  -2.7468
    -2.1982  -2.1844  -2.1208  -2.0743  -1.7568  -1.7088  -1.6920  -1.6559
    -1.2653  -1.2298  -1.1944  -1.1503  -1.0709  -1.0535  -0.9834  -0.9515
    -0.8084  -0.7860  -0.7620  -0.7274  -0.5405  -0.5233  -0.4838  -0.4030
    -0.3485  -0.3114  -0.2439  -0.2102  -0.1895  -0.1536  -0.1051  -0.0656
     0.7868   0.7951   0.8274   0.8608   0.9078   0.9194   0.9548   0.9815
     1.0100   1.0627   1.0775   1.1011   3.3901   3.4570   3.4785   3.5275
     5.3203   5.3477   5.4144   5.4631   5.8193   5.8935   5.9835   6.0604
     6.8461   6.8817   6.8986   6.9035   7.7004   7.7598   8.0500   8.1073
     8.3742   8.5160   8.5688   8.7876   9.0087   9.1566   9.2047   9.3385

     highest occupied, lowest unoccupied level (ev):     1.1339    3.3222

!    total energy              =   -1504.76401707 Ry
     Harris-Foulkes estimate   =   -1504.76401708 Ry
     estimated scf accuracy    <          9.2E-09 Ry

     total all-electron energy =     -5807.187564 Ry

     The total energy is the sum of the following terms:

     one-electron contribution =    -836.22026788 Ry
     hartree contribution      =     530.33162906 Ry
     xc contribution           =    -301.11613182 Ry
     ewald contribution        =    -456.26399586 Ry
     Dispersion Correction     =      -0.32852043 Ry
     one-center paw contrib.   =    -441.16673013 Ry

     convergence has been achieved in  15 iterations

     Forces acting on atoms (cartesian axes, Ry/au):

     atom    1 type  4   force =     0.00058617    0.00093751   -0.00003394
     atom    2 type  4   force =    -0.00058617    0.00093751    0.00003394
     atom    3 type  4   force =    -0.00058617   -0.00093751    0.00003394
     atom    4 type  4   force =     0.00058617   -0.00093751   -0.00003394
     atom    5 type  2   force =    -0.00118348   -0.00044180   -0.00170045
     atom    6 type  2   force =     0.00118348   -0.00044180    0.00170045
     atom    7 type  2   force =     0.00118348    0.00044180    0.00170045
     atom    8 type  2   force =    -0.00118348    0.00044180   -0.00170045
     atom    9 type  2   force =    -0.00156118    0.00088329    0.00390064
     atom   10 type  2   force =     0.00156118    0.00088329   -0.00390064
     atom   11 type  2   force =     0.00156118   -0.00088329   -0.00390064
     atom   12 type  2   force =    -0.00156118   -0.00088329    0.00390064
     atom   13 type  1   force =     0.00139475    0.00198861   -0.00309596
     atom   14 type  1   force =    -0.00139475    0.00198861    0.00309596
     atom   15 type  1   force =    -0.00139475   -0.00198861    0.00309596
     atom   16 type  1   force =     0.00139475   -0.00198861   -0.00309596
     atom   17 type  2   force =     0.00132494   -0.00192845    0.00288447
     atom   18 type  2   force =    -0.00132494   -0.00192845   -0.00288447
     atom   19 type  2   force =    -0.00132494    0.00192845   -0.00288447
     atom   20 type  2   force =     0.00132494    0.00192845    0.00288447
     atom   21 type  1   force =    -0.00016797   -0.00007459   -0.00450825
     atom   22 type  1   force =     0.00016797   -0.00007459    0.00450825
     atom   23 type  1   force =     0.00016797    0.00007459    0.00450825
     atom   24 type  1   force =    -0.00016797    0.00007459   -0.00450825
     atom   25 type  2   force =     0.00128524    0.00023378    0.00364692
     atom   26 type  2   force =    -0.00128524    0.00023378   -0.00364692
     atom   27 type  2   force =    -0.00128524   -0.00023378   -0.00364692
     atom   28 type  2   force =     0.00128524   -0.00023378    0.00364692
     atom   29 type  4   force =     0.00084550   -0.00363797    0.00213578
     atom   30 type  4   force =    -0.00084550   -0.00363797   -0.00213578
     atom   31 type  4   force =    -0.00084550    0.00363797   -0.00213578
     atom   32 type  4   force =     0.00084550    0.00363797    0.00213578
     atom   33 type  2   force =    -0.00348814    0.00039555   -0.00499072
     atom   34 type  2   force =     0.00348814    0.00039555    0.00499072
     atom   35 type  2   force =     0.00348814   -0.00039555    0.00499072
     atom   36 type  2   force =    -0.00348814   -0.00039555   -0.00499072
     atom   37 type  1   force =     0.00008756    0.00005624    0.00224524
     atom   38 type  1   force =    -0.00008756    0.00005624   -0.00224524
     atom   39 type  1   force =    -0.00008756   -0.00005624   -0.00224524
     atom   40 type  1   force =     0.00008756   -0.00005624    0.00224524
     atom   41 type  2   force =    -0.00190341    0.00213142   -0.00123636
     atom   42 type  2   force =     0.00190341    0.00213142    0.00123636
     atom   43 type  2   force =     0.00190341   -0.00213142    0.00123636
     atom   44 type  2   force =    -0.00190341   -0.00213142   -0.00123636
     atom   45 type  1   force =    -0.00004839    0.00024815    0.00293778
     atom   46 type  1   force =     0.00004839    0.00024815   -0.00293778
     atom   47 type  1   force =     0.00004839   -0.00024815   -0.00293778
     atom   48 type  1   force =    -0.00004839   -0.00024815    0.00293778
     atom   49 type  2   force =     0.00057536    0.00284951    0.00195316
     atom   50 type  2   force =    -0.00057536    0.00284951   -0.00195316
     atom   51 type  2   force =    -0.00057536   -0.00284951   -0.00195316
     atom   52 type  2   force =     0.00057536   -0.00284951    0.00195316
     atom   53 type  1   force =     0.00179775   -0.00122209   -0.00554772
     atom   54 type  1   force =    -0.00179775   -0.00122209    0.00554772
     atom   55 type  1   force =    -0.00179775    0.00122209    0.00554772
     atom   56 type  1   force =     0.00179775    0.00122209   -0.00554772
     atom   57 type  3   force =    -0.00046109    0.00018469   -0.00004354
     atom   58 type  3   force =     0.00046109    0.00018469    0.00004354
     atom   59 type  3   force =     0.00046109   -0.00018469    0.00004354
     atom   60 type  3   force =    -0.00046109   -0.00018469   -0.00004354
     atom   61 type  3   force =    -0.00091290    0.00033872    0.00093930
     atom   62 type  3   force =     0.00091290    0.00033872   -0.00093930
     atom   63 type  3   force =     0.00091290   -0.00033872   -0.00093930
     atom   64 type  3   force =    -0.00091290   -0.00033872    0.00093930
     atom   65 type  3   force =    -0.00035970   -0.00163904   -0.00008042
     atom   66 type  3   force =     0.00035970   -0.00163904    0.00008042
     atom   67 type  3   force =     0.00035970    0.00163904    0.00008042
     atom   68 type  3   force =    -0.00035970    0.00163904   -0.00008042

     Total force =     0.029708     Total SCF correction =     0.000146


     Computing stress (Cartesian axis) and pressure

          total   stress  (Ry/bohr**3)                   (kbar)     P=   -1.57
  -0.00000011   0.00000000  -0.00001109         -0.02      0.00     -1.63
   0.00000000  -0.00001112   0.00000000          0.00     -1.64      0.00
  -0.00001109   0.00000000  -0.00002078         -1.63      0.00     -3.06


     Writing output data file scf.save
 
     init_run     :     20.10s CPU     20.87s WALL (       1 calls)
     electrons    :    515.01s CPU    537.56s WALL (       1 calls)
     forces       :     12.23s CPU     12.33s WALL (       1 calls)
     stress       :     37.03s CPU     37.11s WALL (       1 calls)

     Called by init_run:
     wfcinit      :     11.98s CPU     12.59s WALL (       1 calls)
     potinit      :      2.92s CPU      3.00s WALL (       1 calls)

     Called by electrons:
     c_bands      :    459.14s CPU    477.80s WALL (      15 calls)
     sum_band     :     46.51s CPU     49.51s WALL (      15 calls)
     v_of_rho     :      1.46s CPU      1.61s WALL (      16 calls)
     newd         :      3.26s CPU      3.89s WALL (      16 calls)
     PAW_pot      :      4.37s CPU      4.37s WALL (      16 calls)
     mix_rho      :      0.30s CPU      0.33s WALL (      15 calls)

     Called by c_bands:
     init_us_2    :      2.38s CPU      2.39s WALL (     132 calls)
     cegterg      :    448.93s CPU    467.58s WALL (      60 calls)

     Called by sum_band:
     sum_band:bec :      0.03s CPU      0.03s WALL (      60 calls)
     addusdens    :      3.21s CPU      3.82s WALL (      15 calls)

     Called by *egterg:
     h_psi        :    234.84s CPU    249.70s WALL (     404 calls)
     s_psi        :     51.86s CPU     51.86s WALL (     404 calls)
     g_psi        :      1.22s CPU      1.23s WALL (     340 calls)
     cdiaghg      :     40.59s CPU     40.58s WALL (     400 calls)

     Called by h_psi:
     h_psi:pot    :    233.19s CPU    248.01s WALL (     404 calls)
     h_psi:calbec :     50.96s CPU     51.09s WALL (     404 calls)
     vloc_psi     :    130.39s CPU    145.07s WALL (     404 calls)
     add_vuspsi   :     51.84s CPU     51.85s WALL (     404 calls)

     General routines
     calbec       :     73.84s CPU     74.02s WALL (     484 calls)
     fft          :      0.97s CPU      1.23s WALL (     232 calls)
     fftw         :    141.06s CPU    156.75s WALL (   67482 calls)
 
     Parallel routines
     fft_scatter  :     33.97s CPU     45.58s WALL (   67714 calls)
 
     PWSCF        :  9m48.88s CPU    10m35.91s WALL

 
   This run was terminated on:  12:34:39  13Nov2017            

=------------------------------------------------------------------------------=
   JOB DONE.
=------------------------------------------------------------------------------=
