
     Program PWSCF v.6.1 (svn rev. 13369) starts on  7Dec2017 at 11:27:21 

     This program is part of the open-source Quantum ESPRESSO suite
     for quantum simulation of materials; please cite
         "P. Giannozzi et al., J. Phys.:Condens. Matter 21 395502 (2009);
          URL http://www.quantum-espresso.org", 
     in publications or presentations arising from this work. More details at
     http://www.quantum-espresso.org/quote

     Parallel version (MPI), running on     8 processors
     R & G space division:  proc/nbgrp/npool/nimage =       8
     Waiting for input...
     Reading input from standard input

     Current dimensions of program PWSCF are:
     Max number of different atomic species (ntypx) = 10
     Max number of k-points (npk) =  40000
     Max angular momentum in pseudopotentials (lmaxx) =  3
               file C.pbe-n-kjpaw_psl.0.1.UPF: wavefunction(s)  2P renormalized
               file N.pbe-n-kjpaw_psl.0.1.UPF: wavefunction(s)  2P renormalized
               file H.pbe-kjpaw_psl.0.1.UPF: wavefunction(s)  1S renormalized
               file O.pbe-n-kjpaw_psl.0.1.UPF: wavefunction(s)  2P renormalized

     -------------------------------------
     Parameters for Dispersion Correction:
     -------------------------------------
       atom      VdW radius       C_6     

        C          2.744         60.710
        N          2.640         42.670
        H          1.892          4.857
        O          2.536         24.284

     Subspace diagonalization in iterative solution of the eigenvalue problem:
     a serial algorithm will be used

 
     Parallelization info
     --------------------
     sticks:   dense  smooth     PW     G-vecs:    dense   smooth      PW
     Min        1570    1570    415               135571   135571   18466
     Max        1571    1571    417               135573   135573   18467
     Sum       12565   12565   3327              1084579  1084579  147735
 


     bravais-lattice index     =            0
     lattice parameter (alat)  =      22.9273  a.u.
     unit-cell volume          =    8029.0094 (a.u.)^3
     number of atoms/cell      =          136
     number of atomic types    =            4
     number of electrons       =       368.00
     number of Kohn-Sham states=          220
     kinetic-energy cutoff     =     100.0000  Ry
     charge density cutoff     =     400.0000  Ry
     convergence threshold     =      1.0E-08
     mixing beta               =       0.5000
     number of iterations used =            8  plain     mixing
     Exchange-correlation      =  SLA  PW   PBX  PBC ( 1  4  3  4 0 0)

     celldm(1)=  22.927291  celldm(2)=   0.000000  celldm(3)=   0.000000
     celldm(4)=   0.000000  celldm(5)=   0.000000  celldm(6)=   0.000000

     crystal axes: (cart. coord. in units of alat)
               a(1) = (   1.000000   0.000000   0.000000 )  
               a(2) = (   0.000000   0.752262   0.000000 )  
               a(3) = (  -0.163577   0.000000   0.885593 )  

     reciprocal axes: (cart. coord. in units 2 pi/alat)
               b(1) = (  1.000000  0.000000  0.184709 )  
               b(2) = (  0.000000  1.329323  0.000000 )  
               b(3) = (  0.000000  0.000000  1.129187 )  


     PseudoPot. # 1 for  C read from file:
     /scratch/ahofstet/pseudo/C.pbe-n-kjpaw_psl.0.1.UPF
     MD5 check sum: 430fe95172b1e11ef3f8ed03bac87931
     Pseudo is Projector augmented-wave + core cor, Zval =  4.0
     Generated using "atomic" code by A. Dal Corso  v.5.0.99 svn rev. 10869
     Shape of augmentation charge: BESSEL
     Using radial grid of 1073 points,  4 beta functions with: 
                l(1) =   0
                l(2) =   0
                l(3) =   1
                l(4) =   1
     Q(r) pseudized with 0 coefficients 


     PseudoPot. # 2 for  N read from file:
     /scratch/ahofstet/pseudo/N.pbe-n-kjpaw_psl.0.1.UPF
     MD5 check sum: f73187c8b701007e77325f868c9291d7
     Pseudo is Projector augmented-wave + core cor, Zval =  5.0
     Generated using "atomic" code by A. Dal Corso  v.5.0.99 svn rev. 10869
     Shape of augmentation charge: PSQ
     Using radial grid of 1085 points,  4 beta functions with: 
                l(1) =   0
                l(2) =   0
                l(3) =   1
                l(4) =   1
     Q(r) pseudized with 0 coefficients 


     PseudoPot. # 3 for  H read from file:
     /scratch/ahofstet/pseudo/H.pbe-kjpaw_psl.0.1.UPF
     MD5 check sum: 94e484f906d9e9773b2f6e52662335b2
     Pseudo is Projector augmented-wave, Zval =  1.0
     Generated using "atomic" code by A. Dal Corso  v.5.0.99 svn rev. 10869
     Shape of augmentation charge: PSQ
     Using radial grid of  929 points,  2 beta functions with: 
                l(1) =   0
                l(2) =   0
     Q(r) pseudized with 0 coefficients 


     PseudoPot. # 4 for  O read from file:
     /scratch/ahofstet/pseudo/O.pbe-n-kjpaw_psl.0.1.UPF
     MD5 check sum: 3f94a2996a3169367d6eb21d9b593f20
     Pseudo is Projector augmented-wave + core cor, Zval =  6.0
     Generated using "atomic" code by A. Dal Corso  v.5.0.99 svn rev. 10869
     Shape of augmentation charge: BESSEL
     Using radial grid of 1095 points,  4 beta functions with: 
                l(1) =   0
                l(2) =   0
                l(3) =   1
                l(4) =   1
     Q(r) pseudized with 0 coefficients 


     atomic species   valence    mass     pseudopotential
        C              4.00    12.01070      C( 1.00)
        N              5.00    14.00670      N( 1.00)
        H              1.00     1.00794      H( 1.00)
        O              6.00    15.99940      O( 1.00)

      2 Sym. Ops., with inversion, found
          (note:  2 additional sym.ops. were found but ignored
           their fractional translations are incommensurate with FFT grid)


   Cartesian axes

     site n.     atom                  positions (alat units)
         1           N   tau(   1) = (   0.2656664   0.5243001   0.7684836  )
         2           N   tau(   2) = (   0.3474549   0.6040937   0.3256870  )
         3           N   tau(   3) = (   0.5707565   0.2279624   0.1171096  )
         4           N   tau(   4) = (   0.4889680   0.1481688   0.5599063  )
         5           N   tau(   5) = (   0.2492471   0.4947466   0.8609994  )
         6           N   tau(   6) = (   0.3310356   0.6336472   0.4182028  )
         7           N   tau(   7) = (   0.5871758   0.2575159   0.0245939  )
         8           N   tau(   8) = (   0.5053872   0.1186153   0.4673905  )
         9           N   tau(   9) = (   0.3969833   0.4654395   0.0664114  )
        10           N   tau(  10) = (   0.3151947   0.6629542   0.5092080  )
        11           N   tau(  11) = (   0.4394396   0.2868230   0.8191819  )
        12           N   tau(  12) = (   0.5212282   0.0893083   0.3763852  )
        13           N   tau(  13) = (   0.7480999   0.7085922   0.3443609  )
        14           N   tau(  14) = (   0.6663114   0.4198016   0.7871576  )
        15           N   tau(  15) = (   0.0883230   0.0436703   0.5412323  )
        16           N   tau(  16) = (   0.1701115   0.3324609   0.0984357  )
        17           N   tau(  17) = (   0.8038050   0.6636273   0.4122105  )
        18           N   tau(  18) = (   0.7220165   0.4647665   0.8550071  )
        19           N   tau(  19) = (   0.0326178   0.0886352   0.4733828  )
        20           N   tau(  20) = (   0.1144064   0.2874960   0.0305861  )
        21           N   tau(  21) = (   0.8585031   0.6187502   0.4779370  )
        22           N   tau(  22) = (   0.9402917   0.5096435   0.0351404  )
        23           N   tau(  23) = (  -0.0220803   0.1335123   0.4076562  )
        24           N   tau(  24) = (  -0.1038688   0.2426190   0.8504529  )
        25           N   tau(  25) = (   0.0924126   0.5791298   0.6176112  )
        26           N   tau(  26) = (   0.1742012   0.5492639   0.1748145  )
        27           N   tau(  27) = (   0.7440103   0.1731327   0.2679821  )
        28           N   tau(  28) = (   0.6622217   0.2029986   0.7107787  )
        29           H   tau(  29) = (   0.1591927   0.5695500   0.6721531  )
        30           H   tau(  30) = (   0.2409813   0.5588437   0.2293565  )
        31           H   tau(  31) = (   0.6772302   0.1827125   0.2134402  )
        32           H   tau(  32) = (   0.5954416   0.1934188   0.6562368  )
        33           H   tau(  33) = (   0.0956605   0.6577631   0.5785594  )
        34           H   tau(  34) = (   0.1774490   0.4706306   0.1357628  )
        35           H   tau(  35) = (   0.7407624   0.0944994   0.3070339  )
        36           H   tau(  36) = (   0.6589739   0.2816319   0.7498305  )
        37           N   tau(  37) = (  -0.0071893   0.5757265   0.6845244  )
        38           N   tau(  38) = (   0.0745992   0.5526673   0.2417278  )
        39           N   tau(  39) = (   0.8436122   0.1765360   0.2010688  )
        40           N   tau(  40) = (   0.7618236   0.1995952   0.6438655  )
        41           H   tau(  41) = (  -0.0663325   0.6082920   0.6329091  )
        42           H   tau(  42) = (   0.0154560   0.5201018   0.1901124  )
        43           H   tau(  43) = (   0.9027554   0.1439705   0.2526842  )
        44           H   tau(  44) = (   0.8209669   0.2321607   0.6954808  )
        45           C   tau(  45) = (  -0.0292065   0.4565584   0.6938808  )
        46           C   tau(  46) = (   0.0525820   0.6718354   0.2510842  )
        47           C   tau(  47) = (   0.8656294   0.2957041   0.1917125  )
        48           C   tau(  48) = (   0.7838409   0.0804271   0.6345091  )
        49           H   tau(  49) = (   0.0242233   0.4222795   0.7585470  )
        50           H   tau(  50) = (   0.1060119   0.7061142   0.3157503  )
        51           H   tau(  51) = (   0.8121995   0.3299830   0.1270463  )
        52           H   tau(  52) = (   0.7304110   0.0461483   0.5698429  )
        53           H   tau(  53) = (  -0.1151932   0.4444294   0.7185097  )
        54           H   tau(  54) = (  -0.0334046   0.6839643   0.2757131  )
        55           H   tau(  55) = (   0.9516161   0.3078331   0.1670836  )
        56           H   tau(  56) = (   0.8698275   0.0682982   0.6098802  )
        57           C   tau(  57) = (  -0.0013734   0.4081200   0.5798452  )
        58           C   tau(  58) = (   0.0804152   0.7202737   0.1370486  )
        59           C   tau(  59) = (   0.8377963   0.3441425   0.3057480  )
        60           C   tau(  60) = (   0.7560077   0.0319888   0.7485447  )
        61           H   tau(  61) = (   0.0240406   0.3215103   0.5835564  )
        62           H   tau(  62) = (   0.1058292   0.0546209   0.1407598  )
        63           H   tau(  63) = (   0.8123823   0.4307522   0.3020369  )
        64           H   tau(  64) = (   0.7305937   0.6976416   0.7448335  )
        65           H   tau(  65) = (  -0.0730030   0.4152840   0.5253449  )
        66           H   tau(  66) = (   0.0087856   0.7131098   0.0825483  )
        67           H   tau(  67) = (   0.9094259   0.3369785   0.3602484  )
        68           H   tau(  68) = (   0.8276373   0.0391527   0.8030450  )
        69           C   tau(  69) = (   0.0923352   0.4823178   0.5380252  )
        70           C   tau(  70) = (   0.1741237   0.6460759   0.0952285  )
        71           C   tau(  71) = (   0.7440877   0.2699447   0.3475681  )
        72           C   tau(  72) = (   0.6622992   0.1061866   0.7903647  )
        73           H   tau(  73) = (   0.1732107   0.4425548   0.5441116  )
        74           H   tau(  74) = (   0.2549992   0.6858390   0.1013150  )
        75           H   tau(  75) = (   0.6632122   0.3097077   0.3414816  )
        76           H   tau(  76) = (   0.5814237   0.0664235   0.7842783  )
        77           H   tau(  77) = (   0.0784154   0.5131936   0.4542753  )
        78           H   tau(  78) = (   0.1602039   0.6152002   0.0114786  )
        79           H   tau(  79) = (   0.7580075   0.2390689   0.4313180  )
        80           H   tau(  80) = (   0.6762190   0.1370623   0.8741146  )
        81           N   tau(  81) = (   0.5600662   0.6293209   0.2402879  )
        82           N   tau(  82) = (   0.4782776   0.4990729   0.6830846  )
        83           N   tau(  83) = (   0.2763567   0.1229416   0.6453053  )
        84           N   tau(  84) = (   0.3581453   0.2531896   0.2025087  )
        85           H   tau(  85) = (   0.6232766   0.6605242   0.2928193  )
        86           H   tau(  86) = (   0.5414881   0.4678695   0.7356160  )
        87           H   tau(  87) = (   0.2131463   0.0917383   0.5927739  )
        88           H   tau(  88) = (   0.2949348   0.2843930   0.1499773  )
        89           H   tau(  89) = (   0.5210182   0.4872912   0.1712516  )
        90           H   tau(  90) = (   0.4392296   0.6411026   0.6140483  )
        91           H   tau(  91) = (   0.3154047   0.2649713   0.7143417  )
        92           H   tau(  92) = (   0.3971933   0.1111599   0.2715450  )
        93           N   tau(  93) = (   0.5907532   0.5175880   0.2100284  )
        94           N   tau(  94) = (   0.5089646   0.6108057   0.6528250  )
        95           N   tau(  95) = (   0.2456697   0.2346745   0.6755649  )
        96           N   tau(  96) = (   0.3274583   0.1414568   0.2327683  )
        97           H   tau(  97) = (   0.4819671   0.6271125   0.2800949  )
        98           H   tau(  98) = (   0.4001785   0.5012813   0.7228916  )
        99           H   tau(  99) = (   0.3544558   0.1251500   0.6054983  )
       100           H   tau( 100) = (   0.4362443   0.2509812   0.1627017  )
       101           C   tau( 101) = (   0.6756587   0.5336078   0.1236524  )
       102           C   tau( 102) = (   0.5938701   0.5947860   0.5664490  )
       103           C   tau( 103) = (   0.1607642   0.2186547   0.7619409  )
       104           C   tau( 104) = (   0.2425528   0.1574765   0.3191443  )
       105           H   tau( 105) = (   0.7577395   0.5319792   0.1613321  )
       106           H   tau( 106) = (   0.6759509   0.5964146   0.6041287  )
       107           H   tau( 107) = (   0.0786834   0.2202833   0.7242612  )
       108           H   tau( 108) = (   0.1604719   0.1558479   0.2814646  )
       109           H   tau( 109) = (   0.6695866   0.4651555   0.0648549  )
       110           H   tau( 110) = (   0.5877980   0.6632383   0.5076515  )
       111           H   tau( 111) = (   0.1668363   0.2871070   0.8207384  )
       112           H   tau( 112) = (   0.2486249   0.0890242   0.3779417  )
       113           C   tau( 113) = (   0.6548569   0.6485180   0.0703879  )
       114           C   tau( 114) = (   0.5730683   0.4798758   0.5131846  )
       115           C   tau( 115) = (   0.1815660   0.1037445   0.8152053  )
       116           C   tau( 116) = (   0.2633545   0.2723867   0.3724087  )
       117           H   tau( 117) = (   0.7281356   0.7005943   0.0801335  )
       118           H   tau( 118) = (   0.6463470   0.4277995   0.5229301  )
       119           H   tau( 119) = (   0.1082873   0.0516682   0.8054598  )
       120           H   tau( 120) = (   0.1900759   0.3244630   0.3626632  )
       121           H   tau( 121) = (   0.4720523   0.6433414   0.8678288  )
       122           H   tau( 122) = (   0.5538409   0.4850524   0.4250322  )
       123           H   tau( 123) = (   0.3643706   0.1089211   0.0177644  )
       124           H   tau( 124) = (   0.2825820   0.2672101   0.4605611  )
       125           C   tau( 125) = (   0.5576111   0.6955051   0.1359530  )
       126           C   tau( 126) = (   0.4758225   0.4328886   0.5787496  )
       127           C   tau( 127) = (   0.2788118   0.0567574   0.7496403  )
       128           C   tau( 128) = (   0.3606004   0.3193739   0.3068436  )
       129           H   tau( 129) = (   0.5637048   0.0311579   0.1553678  )
       130           H   tau( 130) = (   0.4819162   0.3449734   0.5981645  )
       131           H   tau( 131) = (   0.2727181   0.7211046   0.7302254  )
       132           H   tau( 132) = (   0.3545067   0.4072891   0.2874288  )
       133           H   tau( 133) = (   0.4781003   0.6787080   0.0963278  )
       134           H   tau( 134) = (   0.3963118   0.4496857   0.5391244  )
       135           H   tau( 135) = (   0.3583226   0.0735545   0.7892655  )
       136           H   tau( 136) = (   0.4401111   0.3025768   0.3464689  )

     number of k points=     8
                       cart. coord. in units 2pi/alat
        k(    1) = (   0.0000000   0.0000000   0.0000000), wk =   0.2500000
        k(    2) = (   0.0000000   0.0000000  -0.5645933), wk =   0.2500000
        k(    3) = (   0.0000000  -0.6646616   0.0000000), wk =   0.2500000
        k(    4) = (   0.0000000  -0.6646616  -0.5645933), wk =   0.2500000
        k(    5) = (  -0.5000000   0.0000000  -0.0923545), wk =   0.2500000
        k(    6) = (  -0.5000000   0.0000000  -0.6569478), wk =   0.2500000
        k(    7) = (  -0.5000000  -0.6646616  -0.0923545), wk =   0.2500000
        k(    8) = (  -0.5000000  -0.6646616  -0.6569478), wk =   0.2500000

     Dense  grid:  1084579 G-vectors     FFT dimensions: ( 150, 120, 135)

     Estimated max dynamical RAM per process >    1244.19MB

     Estimated total allocated dynamical RAM >    9953.49MB

     Check: negative/imaginary core charge=   -0.000002    0.000000

     Initial potential from superposition of free atoms

     starting charge  367.99802, renormalised to  368.00000
     Starting wfc are  328 randomized atomic wfcs
     Checking if some PAW data can be deallocated... 

     total cpu time spent up to now is       85.8 secs

     per-process dynamical memory:   829.3 Mb

     Self-consistent Calculation

     iteration #  1     ecut=   100.00 Ry     beta=0.50
     Davidson diagonalization with overlap
     ethr =  1.00E-02,  avg # of iterations =  3.0

     total cpu time spent up to now is      326.0 secs

     total energy              =   -1654.14767861 Ry
     Harris-Foulkes estimate   =   -1659.98262125 Ry
     estimated scf accuracy    <      11.74523223 Ry

     iteration #  2     ecut=   100.00 Ry     beta=0.50
     Davidson diagonalization with overlap
     ethr =  3.19E-03,  avg # of iterations =  2.0

     total cpu time spent up to now is      459.3 secs

     total energy              =   -1655.07779271 Ry
     Harris-Foulkes estimate   =   -1655.58987966 Ry
     estimated scf accuracy    <       1.26629181 Ry

     iteration #  3     ecut=   100.00 Ry     beta=0.50
     Davidson diagonalization with overlap
     ethr =  3.44E-04,  avg # of iterations =  6.4

     total cpu time spent up to now is      759.1 secs

     total energy              =   -1655.92515534 Ry
     Harris-Foulkes estimate   =   -1656.35240299 Ry
     estimated scf accuracy    <       1.17831525 Ry

     iteration #  4     ecut=   100.00 Ry     beta=0.50
     Davidson diagonalization with overlap
     ethr =  3.20E-04,  avg # of iterations =  1.0

     total cpu time spent up to now is      880.6 secs

     total energy              =   -1655.71020880 Ry
     Harris-Foulkes estimate   =   -1655.98006968 Ry
     estimated scf accuracy    <       0.40252447 Ry

     iteration #  5     ecut=   100.00 Ry     beta=0.50
     Davidson diagonalization with overlap
     ethr =  1.09E-04,  avg # of iterations =  6.0

     total cpu time spent up to now is     1164.8 secs

     total energy              =   -1656.05048182 Ry
     Harris-Foulkes estimate   =   -1656.25461006 Ry
     estimated scf accuracy    <       0.87417578 Ry

     iteration #  6     ecut=   100.00 Ry     beta=0.50
     Davidson diagonalization with overlap
     ethr =  1.09E-04,  avg # of iterations =  3.0

     total cpu time spent up to now is     1294.0 secs

     total energy              =   -1655.98440626 Ry
     Harris-Foulkes estimate   =   -1656.08075157 Ry
     estimated scf accuracy    <       0.44941968 Ry

     iteration #  7     ecut=   100.00 Ry     beta=0.50
     Davidson diagonalization with overlap
     ethr =  1.09E-04,  avg # of iterations =  2.0

     total cpu time spent up to now is     1433.4 secs

     total energy              =   -1655.96920918 Ry
     Harris-Foulkes estimate   =   -1656.02422667 Ry
     estimated scf accuracy    <       0.11476960 Ry

     iteration #  8     ecut=   100.00 Ry     beta=0.50
     Davidson diagonalization with overlap
     ethr =  3.12E-05,  avg # of iterations =  8.5

     total cpu time spent up to now is     1629.6 secs

     total energy              =   -1655.99722165 Ry
     Harris-Foulkes estimate   =   -1655.99742589 Ry
     estimated scf accuracy    <       0.00082141 Ry

     iteration #  9     ecut=   100.00 Ry     beta=0.50
     Davidson diagonalization with overlap
     ethr =  2.23E-07,  avg # of iterations =  5.0

     total cpu time spent up to now is     1946.1 secs

     total energy              =   -1655.99998568 Ry
     Harris-Foulkes estimate   =   -1656.00032457 Ry
     estimated scf accuracy    <       0.00106354 Ry

     iteration # 10     ecut=   100.00 Ry     beta=0.50
     Davidson diagonalization with overlap
     ethr =  2.23E-07,  avg # of iterations =  8.8

     total cpu time spent up to now is     2092.4 secs

     total energy              =   -1655.99985002 Ry
     Harris-Foulkes estimate   =   -1656.00005934 Ry
     estimated scf accuracy    <       0.00038940 Ry

     iteration # 11     ecut=   100.00 Ry     beta=0.50
     Davidson diagonalization with overlap
     ethr =  1.06E-07,  avg # of iterations =  4.0

     total cpu time spent up to now is     2300.3 secs

     total energy              =   -1656.00004459 Ry
     Harris-Foulkes estimate   =   -1656.00007281 Ry
     estimated scf accuracy    <       0.00013127 Ry

     iteration # 12     ecut=   100.00 Ry     beta=0.50
     Davidson diagonalization with overlap
     ethr =  3.57E-08,  avg # of iterations =  1.2

     total cpu time spent up to now is     2421.0 secs

     total energy              =   -1656.00002237 Ry
     Harris-Foulkes estimate   =   -1656.00004806 Ry
     estimated scf accuracy    <       0.00007252 Ry

     iteration # 13     ecut=   100.00 Ry     beta=0.50
     Davidson diagonalization with overlap
     ethr =  1.97E-08,  avg # of iterations =  3.0

     total cpu time spent up to now is     2574.3 secs

     total energy              =   -1656.00003242 Ry
     Harris-Foulkes estimate   =   -1656.00003573 Ry
     estimated scf accuracy    <       0.00000722 Ry

     iteration # 14     ecut=   100.00 Ry     beta=0.50
     Davidson diagonalization with overlap
     ethr =  1.96E-09,  avg # of iterations =  4.0

     total cpu time spent up to now is     2779.1 secs

     total energy              =   -1656.00003497 Ry
     Harris-Foulkes estimate   =   -1656.00003546 Ry
     estimated scf accuracy    <       0.00000103 Ry

     iteration # 15     ecut=   100.00 Ry     beta=0.50
     Davidson diagonalization with overlap
     ethr =  2.80E-10,  avg # of iterations =  3.2

     total cpu time spent up to now is     2912.8 secs

     total energy              =   -1656.00003504 Ry
     Harris-Foulkes estimate   =   -1656.00003512 Ry
     estimated scf accuracy    <       0.00000024 Ry

     iteration # 16     ecut=   100.00 Ry     beta=0.50
     Davidson diagonalization with overlap
     ethr =  6.59E-11,  avg # of iterations =  4.0

     total cpu time spent up to now is     3117.1 secs

     total energy              =   -1656.00003517 Ry
     Harris-Foulkes estimate   =   -1656.00003518 Ry
     estimated scf accuracy    <       0.00000005 Ry

     iteration # 17     ecut=   100.00 Ry     beta=0.50
     Davidson diagonalization with overlap
     ethr =  1.49E-11,  avg # of iterations =  3.4

     total cpu time spent up to now is     3248.0 secs

     total energy              =   -1656.00003517 Ry
     Harris-Foulkes estimate   =   -1656.00003518 Ry
     estimated scf accuracy    <       0.00000001 Ry

     iteration # 18     ecut=   100.00 Ry     beta=0.50
     Davidson diagonalization with overlap
     ethr =  3.00E-12,  avg # of iterations =  4.0

     total cpu time spent up to now is     3458.2 secs

     End of self-consistent calculation

          k = 0.0000 0.0000 0.0000 (135601 PWs)   bands (ev):

   -21.1563 -21.1489 -21.1246 -21.1196 -20.8447 -20.8432 -20.8129 -20.8121
   -19.7457 -19.7431 -19.7374 -19.7347 -19.5793 -19.5786 -19.5772 -19.5730
   -16.8753 -16.8709 -16.8641 -16.8609 -16.5538 -16.5533 -16.5495 -16.5484
   -14.6588 -14.6326 -14.6310 -14.6085 -14.5922 -14.5780 -14.5692 -14.5598
   -13.4135 -13.3516 -13.3174 -13.2934 -13.2210 -13.1790 -13.1693 -13.1640
   -10.2819 -10.1990 -10.1703 -10.1690  -9.9636  -9.9598  -9.8997  -9.8783
    -9.0122  -8.9707  -8.9324  -8.9055  -8.8714  -8.8634  -8.8448  -8.8314
    -8.4601  -8.3848  -8.3548  -8.3388  -8.1531  -8.0975  -8.0778  -8.0684
    -7.1843  -7.0759  -7.0235  -6.9322  -6.8362  -6.7977  -6.7272  -6.7238
    -6.1638  -6.1023  -6.0543  -6.0390  -5.9740  -5.9405  -5.9173  -5.9011
    -5.5769  -5.5431  -5.5328  -5.5214  -5.4639  -5.4158  -5.4144  -5.3696
    -5.3532  -5.2585  -5.2191  -5.2154  -5.2006  -5.1919  -5.1666  -5.1421
    -5.0638  -5.0614  -5.0268  -5.0082  -4.9934  -4.9561  -4.8947  -4.8450
    -4.8333  -4.8264  -4.8257  -4.7260  -4.7194  -4.6969  -4.6281  -4.5629
    -4.2946  -4.2844  -4.1940  -4.0883  -4.0336  -4.0191  -3.9741  -3.8907
    -3.8552  -3.7805  -3.6641  -3.6023  -3.5950  -3.5672  -3.5497  -3.5442
    -3.4907  -3.3513  -3.3408  -3.3197  -3.2732  -3.1978  -3.1429  -3.0635
    -3.0462  -2.9684  -2.9334  -2.8877  -2.8062  -2.7310  -2.7116  -2.6922
    -2.6724  -2.6714  -2.6607  -2.5334  -2.5253  -2.4955  -2.4903  -2.4823
    -2.1218  -2.1105  -2.1084  -2.0666  -1.9412  -1.8890  -1.8026  -1.7024
    -0.3833  -0.3539  -0.2103  -0.1773  -0.1662  -0.1050  -0.0398  -0.0225
     0.3855   0.4736   0.5075   0.5375   0.5896   0.6418   0.6901   0.6902
     0.7163   0.7388   0.9353   0.9602   0.9743   0.9751   1.0203   1.0411
     5.4483   5.5473   5.7249   5.7772   5.7818   5.8605   5.9201   5.9940
     6.0243   6.0467   6.0629   6.0803   6.1256   6.1584   6.2328   6.3200
     6.4007   6.5212   6.5796   6.6355   6.8015   6.8373   6.8810   7.0365
     7.2189   7.3033   7.3545   7.3671   7.4236   7.4531   7.5768   7.6137
     7.7196   7.7382   7.7850   7.7955

          k = 0.0000 0.0000-0.5646 (135568 PWs)   bands (ev):

   -21.1526 -21.1526 -21.1221 -21.1221 -20.8440 -20.8440 -20.8125 -20.8125
   -19.7444 -19.7444 -19.7359 -19.7359 -19.5788 -19.5788 -19.5754 -19.5754
   -16.8732 -16.8732 -16.8624 -16.8624 -16.5536 -16.5536 -16.5490 -16.5490
   -14.6450 -14.6450 -14.6201 -14.6201 -14.5809 -14.5809 -14.5687 -14.5687
   -13.3682 -13.3682 -13.3210 -13.3210 -13.2039 -13.2039 -13.1628 -13.1628
   -10.2363 -10.2363 -10.1738 -10.1738  -9.9611  -9.9611  -9.8900  -9.8900
    -8.9573  -8.9573  -8.9405  -8.9405  -8.8841  -8.8841  -8.8321  -8.8321
    -8.4051  -8.4051  -8.3621  -8.3621  -8.1314  -8.1314  -8.0664  -8.0664
    -7.1184  -7.1184  -7.0054  -7.0054  -6.8221  -6.8221  -6.7232  -6.7232
    -6.0860  -6.0860  -6.0323  -6.0323  -5.9813  -5.9813  -5.9271  -5.9271
    -5.5727  -5.5727  -5.5206  -5.5206  -5.4496  -5.4496  -5.3210  -5.3210
    -5.3080  -5.3080  -5.2802  -5.2802  -5.2135  -5.2135  -5.1793  -5.1793
    -5.0926  -5.0926  -4.9724  -4.9724  -4.9184  -4.9183  -4.8780  -4.8780
    -4.8298  -4.8298  -4.7905  -4.7905  -4.6880  -4.6880  -4.6582  -4.6582
    -4.2048  -4.2048  -4.1363  -4.1363  -4.1009  -4.1009  -3.8441  -3.8441
    -3.7692  -3.7692  -3.6781  -3.6781  -3.6293  -3.6293  -3.5623  -3.5623
    -3.3998  -3.3998  -3.3777  -3.3777  -3.2734  -3.2734  -3.1993  -3.1992
    -2.9207  -2.9207  -2.8213  -2.8213  -2.7605  -2.7605  -2.6971  -2.6971
    -2.6594  -2.6594  -2.6114  -2.6114  -2.5216  -2.5216  -2.5047  -2.5047
    -2.1288  -2.1288  -2.0416  -2.0416  -1.9525  -1.9525  -1.7546  -1.7546
    -0.2712  -0.2712  -0.2440  -0.2440  -0.1064  -0.1064  -0.0846  -0.0845
     0.4284   0.4284   0.4991   0.4991   0.6030   0.6030   0.6952   0.6952
     0.7602   0.7602   0.9294   0.9294   0.9704   0.9704   1.0313   1.0313
     5.5896   5.5896   5.6628   5.6628   5.8939   5.8939   5.9221   5.9221
     6.0071   6.0071   6.0778   6.0778   6.1345   6.1345   6.3680   6.3680
     6.4373   6.4373   6.5526   6.5526   6.8466   6.8466   7.0793   7.0793
     7.2817   7.2817   7.2957   7.2957   7.3164   7.3164   7.5773   7.5773
     7.7054   7.7054   7.8022   7.8024

          k = 0.0000-0.6647 0.0000 (135602 PWs)   bands (ev):

   -21.1527 -21.1527 -21.1220 -21.1220 -20.8440 -20.8439 -20.8125 -20.8125
   -19.7406 -19.7406 -19.7396 -19.7396 -19.5798 -19.5798 -19.5748 -19.5748
   -16.8737 -16.8737 -16.8620 -16.8620 -16.5535 -16.5535 -16.5487 -16.5487
   -14.6414 -14.6414 -14.6144 -14.6144 -14.5892 -14.5892 -14.5696 -14.5696
   -13.3867 -13.3867 -13.3063 -13.3063 -13.1975 -13.1975 -13.1645 -13.1645
   -10.2457 -10.2457 -10.1663 -10.1663  -9.9358  -9.9358  -9.9082  -9.9082
    -8.9863  -8.9863  -8.9304  -8.9303  -8.8653  -8.8653  -8.8481  -8.8481
    -8.4229  -8.4229  -8.3480  -8.3480  -8.1152  -8.1152  -8.0756  -8.0755
    -7.0582  -7.0582  -7.0202  -7.0202  -6.8050  -6.8050  -6.7923  -6.7923
    -6.1493  -6.1493  -6.0444  -6.0444  -5.9854  -5.9854  -5.8330  -5.8330
    -5.6169  -5.6169  -5.5086  -5.5086  -5.4225  -5.4225  -5.3553  -5.3553
    -5.3120  -5.3120  -5.2191  -5.2191  -5.1672  -5.1672  -5.1447  -5.1447
    -5.0852  -5.0852  -4.9935  -4.9935  -4.9732  -4.9732  -4.8990  -4.8990
    -4.8703  -4.8703  -4.8004  -4.8004  -4.7332  -4.7332  -4.5934  -4.5934
    -4.2549  -4.2549  -4.1409  -4.1409  -4.0058  -4.0057  -3.8890  -3.8890
    -3.8308  -3.8308  -3.6637  -3.6637  -3.6187  -3.6187  -3.4914  -3.4914
    -3.3825  -3.3825  -3.3427  -3.3427  -3.2621  -3.2621  -3.0985  -3.0985
    -3.0330  -3.0330  -2.8440  -2.8440  -2.7792  -2.7792  -2.7262  -2.7262
    -2.6724  -2.6724  -2.6105  -2.6105  -2.5101  -2.5101  -2.4571  -2.4571
    -2.1496  -2.1496  -2.0455  -2.0455  -1.9402  -1.9402  -1.7586  -1.7586
    -0.3722  -0.3722  -0.1894  -0.1894  -0.1545  -0.1545  -0.0236  -0.0236
     0.4221   0.4221   0.5442   0.5442   0.6075   0.6075   0.6726   0.6726
     0.7311   0.7311   0.9305   0.9305   0.9644   0.9644   1.0451   1.0451
     5.4987   5.4987   5.7542   5.7542   5.8598   5.8598   5.9110   5.9110
     5.9148   5.9148   6.0888   6.0888   6.1407   6.1407   6.3988   6.3988
     6.4536   6.4536   6.6752   6.6752   6.8400   6.8400   7.0109   7.0109
     7.1356   7.1356   7.1976   7.1976   7.3665   7.3665   7.6714   7.6715
     7.8027   7.8027   7.8682   7.8682

          k = 0.0000-0.6647-0.5646 (135532 PWs)   bands (ev):

   -21.1524 -21.1524 -21.1223 -21.1223 -20.8440 -20.8440 -20.8125 -20.8125
   -19.7416 -19.7416 -19.7385 -19.7385 -19.5790 -19.5790 -19.5756 -19.5756
   -16.8737 -16.8737 -16.8620 -16.8620 -16.5535 -16.5535 -16.5488 -16.5488
   -14.6294 -14.6294 -14.6261 -14.6261 -14.5822 -14.5822 -14.5768 -14.5768
   -13.3674 -13.3674 -13.3241 -13.3241 -13.1993 -13.1993 -13.1656 -13.1656
   -10.2246 -10.2246 -10.1875 -10.1875  -9.9245  -9.9245  -9.9204  -9.9204
    -8.9466  -8.9466  -8.9401  -8.9401  -8.8941  -8.8941  -8.8463  -8.8463
    -8.3866  -8.3866  -8.3826  -8.3826  -8.1094  -8.1094  -8.0804  -8.0804
    -7.0504  -7.0504  -7.0147  -7.0147  -6.8273  -6.8273  -6.8092  -6.8092
    -6.1049  -6.1049  -6.0591  -6.0591  -5.9335  -5.9335  -5.8722  -5.8722
    -5.6056  -5.6056  -5.5360  -5.5360  -5.4832  -5.4832  -5.2919  -5.2919
    -5.2770  -5.2770  -5.2324  -5.2324  -5.1816  -5.1816  -5.1754  -5.1753
    -5.1391  -5.1391  -5.0216  -5.0216  -4.9381  -4.9381  -4.9022  -4.9022
    -4.7930  -4.7930  -4.7723  -4.7723  -4.6838  -4.6838  -4.6723  -4.6723
    -4.1797  -4.1797  -4.1762  -4.1762  -4.1134  -4.1133  -3.8724  -3.8724
    -3.7713  -3.7713  -3.6208  -3.6208  -3.5933  -3.5933  -3.4939  -3.4939
    -3.4497  -3.4497  -3.3573  -3.3573  -3.2598  -3.2598  -3.2186  -3.2186
    -2.9430  -2.9430  -2.8721  -2.8721  -2.7399  -2.7399  -2.7010  -2.7010
    -2.6504  -2.6504  -2.6042  -2.6042  -2.5276  -2.5276  -2.4783  -2.4783
    -2.1156  -2.1156  -2.1012  -2.1012  -1.9028  -1.9028  -1.7812  -1.7812
    -0.2701  -0.2701  -0.2572  -0.2572  -0.1040  -0.1040  -0.0842  -0.0842
     0.4176   0.4176   0.5475   0.5475   0.5742   0.5742   0.6776   0.6776
     0.7479   0.7479   0.9279   0.9279   0.9768   0.9768   1.0261   1.0261
     5.6054   5.6054   5.6519   5.6519   5.8737   5.8737   5.9128   5.9128
     5.9877   5.9877   6.0024   6.0024   6.1850   6.1850   6.3239   6.3239
     6.5308   6.5308   6.7153   6.7153   6.8251   6.8251   6.9277   6.9277
     7.1766   7.1766   7.3357   7.3357   7.4512   7.4512   7.5903   7.5904
     7.7330   7.7330   7.7790   7.7790

          k =-0.5000 0.0000-0.0924 (135566 PWs)   bands (ev):

   -21.1562 -21.1489 -21.1246 -21.1196 -20.8449 -20.8433 -20.8127 -20.8120
   -19.7456 -19.7431 -19.7373 -19.7348 -19.5796 -19.5785 -19.5778 -19.5725
   -16.8752 -16.8709 -16.8639 -16.8610 -16.5536 -16.5535 -16.5493 -16.5488
   -14.6611 -14.6318 -14.6269 -14.6066 -14.5974 -14.5762 -14.5722 -14.5579
   -13.4128 -13.3527 -13.3169 -13.2939 -13.2208 -13.1793 -13.1690 -13.1638
   -10.2836 -10.1961 -10.1705 -10.1688  -9.9646  -9.9600  -9.8988  -9.8793
    -9.0240  -8.9375  -8.9337  -8.9282  -8.8697  -8.8646  -8.8446  -8.8300
    -8.4579  -8.3866  -8.3615  -8.3329  -8.1578  -8.1034  -8.0680  -8.0627
    -7.1759  -7.0967  -7.0284  -6.9255  -6.7815  -6.7780  -6.7665  -6.7532
    -6.1699  -6.1005  -6.0757  -6.0073  -5.9760  -5.9410  -5.9257  -5.9099
    -5.5894  -5.5559  -5.5252  -5.5030  -5.4378  -5.4297  -5.4164  -5.3639
    -5.3026  -5.2847  -5.2547  -5.2316  -5.1731  -5.1652  -5.1333  -5.1328
    -5.1172  -5.0965  -5.0403  -5.0096  -4.9861  -4.9263  -4.9206  -4.8608
    -4.8345  -4.8241  -4.7536  -4.7516  -4.6830  -4.6747  -4.6681  -4.6073
    -4.3896  -4.2412  -4.1583  -4.1178  -4.0434  -3.9984  -3.8871  -3.8562
    -3.8112  -3.7757  -3.6455  -3.6419  -3.6132  -3.5665  -3.5445  -3.5090
    -3.4945  -3.4286  -3.3193  -3.3105  -3.3073  -3.3010  -3.2018  -3.1666
    -2.9862  -2.8816  -2.8498  -2.8127  -2.7726  -2.7451  -2.7321  -2.7080
    -2.7044  -2.6602  -2.6586  -2.5986  -2.5608  -2.4941  -2.4856  -2.4318
    -2.1251  -2.1233  -2.0743  -2.0501  -1.9209  -1.9186  -1.8281  -1.7009
    -0.3692  -0.3648  -0.2049  -0.1629  -0.1494  -0.1311  -0.0465  -0.0425
     0.3706   0.4862   0.4910   0.5135   0.5817   0.6618   0.6782   0.6905
     0.7642   0.7873   0.9243   0.9365   0.9826   1.0000   1.0083   1.0132
     5.4361   5.5599   5.6932   5.7356   5.8120   5.8937   5.9306   5.9877
     6.0047   6.0623   6.0808   6.0825   6.0828   6.1662   6.2389   6.2917
     6.4614   6.4804   6.6214   6.8079   6.8115   6.8662   6.9034   6.9931
     7.1946   7.3032   7.3041   7.3810   7.3904   7.5053   7.5447   7.6215
     7.6899   7.7825   7.7842   7.8006

          k =-0.5000 0.0000-0.6569 (135574 PWs)   bands (ev):

   -21.1526 -21.1526 -21.1221 -21.1221 -20.8441 -20.8441 -20.8124 -20.8124
   -19.7445 -19.7445 -19.7360 -19.7360 -19.5787 -19.5787 -19.5754 -19.5754
   -16.8733 -16.8733 -16.8624 -16.8624 -16.5535 -16.5535 -16.5490 -16.5490
   -14.6469 -14.6469 -14.6162 -14.6162 -14.5848 -14.5848 -14.5670 -14.5670
   -13.3676 -13.3676 -13.3217 -13.3217 -13.2042 -13.2042 -13.1625 -13.1625
   -10.2364 -10.2364 -10.1735 -10.1735  -9.9617  -9.9617  -9.8895  -9.8895
    -8.9696  -8.9696  -8.9184  -8.9184  -8.8943  -8.8943  -8.8321  -8.8321
    -8.4062  -8.4062  -8.3606  -8.3606  -8.1363  -8.1363  -8.0601  -8.0601
    -7.1217  -7.1217  -7.0080  -7.0080  -6.7772  -6.7772  -6.7652  -6.7652
    -6.1104  -6.1104  -6.0237  -6.0237  -5.9690  -5.9690  -5.9180  -5.9180
    -5.5614  -5.5614  -5.5492  -5.5491  -5.4460  -5.4460  -5.3142  -5.3142
    -5.2893  -5.2893  -5.2763  -5.2763  -5.2362  -5.2362  -5.1071  -5.1071
    -5.0636  -5.0636  -5.0242  -5.0242  -4.9984  -4.9984  -4.9272  -4.9272
    -4.8268  -4.8268  -4.7429  -4.7429  -4.6963  -4.6963  -4.6128  -4.6128
    -4.1901  -4.1901  -4.1586  -4.1586  -4.0923  -4.0923  -3.8645  -3.8645
    -3.8095  -3.8095  -3.6615  -3.6615  -3.6253  -3.6253  -3.5320  -3.5320
    -3.4457  -3.4457  -3.3212  -3.3212  -3.2161  -3.2161  -3.1210  -3.1210
    -3.0233  -3.0232  -2.9102  -2.9102  -2.7556  -2.7556  -2.6904  -2.6904
    -2.6852  -2.6852  -2.5993  -2.5993  -2.5280  -2.5280  -2.4509  -2.4509
    -2.0994  -2.0994  -2.0769  -2.0769  -1.9273  -1.9273  -1.7713  -1.7713
    -0.2857  -0.2857  -0.2377  -0.2377  -0.1137  -0.1137  -0.0650  -0.0650
     0.4250   0.4250   0.5172   0.5172   0.6019   0.6019   0.6848   0.6848
     0.7361   0.7361   0.9529   0.9529   0.9927   0.9927   1.0020   1.0020
     5.6210   5.6210   5.7040   5.7040   5.8096   5.8096   5.9011   5.9011
     5.9873   5.9873   6.0838   6.0838   6.1879   6.1879   6.3186   6.3186
     6.4352   6.4352   6.6340   6.6340   6.8952   6.8952   7.1180   7.1180
     7.2162   7.2162   7.2813   7.2813   7.3950   7.3950   7.6196   7.6196
     7.6727   7.6727   7.8023   7.8024

          k =-0.5000-0.6647-0.0924 (135504 PWs)   bands (ev):

   -21.1527 -21.1527 -21.1220 -21.1220 -20.8441 -20.8441 -20.8124 -20.8124
   -19.7406 -19.7406 -19.7396 -19.7396 -19.5799 -19.5799 -19.5748 -19.5748
   -16.8737 -16.8737 -16.8620 -16.8619 -16.5535 -16.5535 -16.5488 -16.5488
   -14.6413 -14.6413 -14.6143 -14.6143 -14.5896 -14.5896 -14.5696 -14.5696
   -13.3864 -13.3864 -13.3064 -13.3064 -13.1985 -13.1985 -13.1637 -13.1636
   -10.2446 -10.2446 -10.1676 -10.1676  -9.9358  -9.9358  -9.9080  -9.9080
    -8.9874  -8.9874  -8.9276  -8.9276  -8.8658  -8.8658  -8.8488  -8.8488
    -8.4217  -8.4217  -8.3498  -8.3498  -8.1125  -8.1125  -8.0775  -8.0775
    -7.0538  -7.0538  -7.0249  -7.0249  -6.8153  -6.8153  -6.7808  -6.7808
    -6.1482  -6.1482  -6.0481  -6.0481  -5.9776  -5.9776  -5.8392  -5.8392
    -5.6368  -5.6368  -5.5135  -5.5135  -5.4148  -5.4148  -5.3327  -5.3327
    -5.2860  -5.2860  -5.2486  -5.2486  -5.1749  -5.1749  -5.1463  -5.1463
    -5.0359  -5.0359  -5.0105  -5.0105  -4.9700  -4.9700  -4.9490  -4.9490
    -4.8404  -4.8404  -4.8221  -4.8221  -4.7008  -4.7008  -4.6241  -4.6241
    -4.2806  -4.2806  -4.1168  -4.1168  -4.0129  -4.0129  -3.8566  -3.8566
    -3.8112  -3.8112  -3.6347  -3.6347  -3.6027  -3.6027  -3.5030  -3.5030
    -3.3998  -3.3998  -3.3782  -3.3782  -3.2561  -3.2561  -3.2216  -3.2216
    -2.9458  -2.9458  -2.8631  -2.8631  -2.7334  -2.7334  -2.7029  -2.7029
    -2.6728  -2.6728  -2.6153  -2.6153  -2.5114  -2.5114  -2.4841  -2.4841
    -2.1189  -2.1189  -2.0760  -2.0760  -1.9281  -1.9281  -1.7700  -1.7700
    -0.3647  -0.3647  -0.1944  -0.1944  -0.1488  -0.1488  -0.0376  -0.0376
     0.4158   0.4158   0.5362   0.5362   0.5973   0.5973   0.6747   0.6747
     0.7664   0.7664   0.9422   0.9422   0.9901   0.9901   1.0017   1.0017
     5.4911   5.4911   5.7576   5.7576   5.8519   5.8519   5.8864   5.8864
     5.9390   5.9390   6.0628   6.0628   6.1528   6.1528   6.4357   6.4357
     6.5260   6.5260   6.6272   6.6272   6.8896   6.8896   6.9826   6.9826
     7.1295   7.1295   7.1647   7.1647   7.4452   7.4453   7.7333   7.7334
     7.7862   7.7863   7.7924   7.7927

          k =-0.5000-0.6647-0.6569 (135632 PWs)   bands (ev):

   -21.1524 -21.1524 -21.1223 -21.1223 -20.8440 -20.8440 -20.8124 -20.8124
   -19.7417 -19.7417 -19.7385 -19.7385 -19.5790 -19.5790 -19.5756 -19.5756
   -16.8737 -16.8737 -16.8620 -16.8620 -16.5534 -16.5534 -16.5489 -16.5489
   -14.6298 -14.6298 -14.6259 -14.6258 -14.5814 -14.5814 -14.5775 -14.5775
   -13.3665 -13.3665 -13.3253 -13.3253 -13.1992 -13.1992 -13.1655 -13.1655
   -10.2253 -10.2253 -10.1867 -10.1867  -9.9248  -9.9248  -9.9201  -9.9201
    -8.9589  -8.9589  -8.9140  -8.9140  -8.9080  -8.9080  -8.8460  -8.8460
    -8.3853  -8.3853  -8.3833  -8.3833  -8.1094  -8.1094  -8.0813  -8.0813
    -7.0516  -7.0516  -7.0141  -7.0141  -6.8337  -6.8337  -6.8015  -6.8014
    -6.0924  -6.0924  -6.0739  -6.0739  -5.9262  -5.9262  -5.8777  -5.8777
    -5.6115  -5.6115  -5.5268  -5.5268  -5.4855  -5.4855  -5.3120  -5.3120
    -5.2367  -5.2367  -5.2154  -5.2154  -5.2104  -5.2104  -5.1792  -5.1792
    -5.0728  -5.0728  -5.0443  -5.0443  -4.9812  -4.9812  -4.9594  -4.9594
    -4.7885  -4.7885  -4.7766  -4.7766  -4.6568  -4.6568  -4.6488  -4.6488
    -4.1840  -4.1840  -4.1672  -4.1672  -4.1247  -4.1247  -3.8667  -3.8666
    -3.7851  -3.7851  -3.6881  -3.6881  -3.5299  -3.5299  -3.4746  -3.4746
    -3.4277  -3.4277  -3.3563  -3.3563  -3.2698  -3.2697  -3.1262  -3.1262
    -3.0240  -3.0240  -2.8620  -2.8620  -2.8069  -2.8069  -2.6948  -2.6948
    -2.6783  -2.6783  -2.6043  -2.6043  -2.5231  -2.5231  -2.4343  -2.4343
    -2.1449  -2.1449  -2.0375  -2.0375  -1.9281  -1.9281  -1.7873  -1.7873
    -0.2754  -0.2754  -0.2580  -0.2580  -0.1149  -0.1149  -0.0622  -0.0622
     0.4206   0.4206   0.5442   0.5442   0.5824   0.5824   0.6664   0.6665
     0.7455   0.7455   0.9292   0.9292   0.9894   0.9894   1.0130   1.0130
     5.6104   5.6104   5.6894   5.6894   5.8401   5.8401   5.8751   5.8751
     6.0031   6.0031   6.0263   6.0263   6.2594   6.2594   6.2662   6.2662
     6.5769   6.5769   6.5822   6.5822   6.8909   6.8909   6.9642   6.9642
     7.2415   7.2415   7.3719   7.3719   7.4739   7.4739   7.5681   7.5681
     7.6472   7.6473   7.7398   7.7399

     highest occupied, lowest unoccupied level (ev):     1.0451    5.4361

!    total energy              =   -1656.00003517 Ry
     Harris-Foulkes estimate   =   -1656.00003518 Ry
     estimated scf accuracy    <          3.0E-09 Ry

     total all-electron energy =     -6294.290203 Ry

     The total energy is the sum of the following terms:

     one-electron contribution =    -848.48729951 Ry
     hartree contribution      =     557.13329334 Ry
     xc contribution           =    -367.31621540 Ry
     ewald contribution        =    -505.90864003 Ry
     Dispersion Correction     =      -0.61318087 Ry
     one-center paw contrib.   =    -490.80799270 Ry

     convergence has been achieved in  18 iterations

     Forces acting on atoms (cartesian axes, Ry/au):

     atom    1 type  2   force =     0.00032078    0.00016399   -0.00096718
     atom    2 type  2   force =     0.00032106   -0.00016430   -0.00096782
     atom    3 type  2   force =    -0.00032078   -0.00016399    0.00096718
     atom    4 type  2   force =    -0.00032106    0.00016430    0.00096782
     atom    5 type  2   force =    -0.00034978   -0.00091368    0.00110235
     atom    6 type  2   force =    -0.00034995    0.00091381    0.00110254
     atom    7 type  2   force =     0.00034978    0.00091368   -0.00110235
     atom    8 type  2   force =     0.00034995   -0.00091381   -0.00110254
     atom    9 type  2   force =    -0.00036976    0.00019196   -0.00026029
     atom   10 type  2   force =    -0.00036976   -0.00019205   -0.00026112
     atom   11 type  2   force =     0.00036976   -0.00019196    0.00026029
     atom   12 type  2   force =     0.00036976    0.00019205    0.00026112
     atom   13 type  2   force =     0.00008674   -0.00010408    0.00037453
     atom   14 type  2   force =     0.00009250    0.00010870    0.00038174
     atom   15 type  2   force =    -0.00008674    0.00010408   -0.00037453
     atom   16 type  2   force =    -0.00009250   -0.00010870   -0.00038174
     atom   17 type  2   force =     0.00014269   -0.00022349   -0.00037149
     atom   18 type  2   force =     0.00013987    0.00022133   -0.00037501
     atom   19 type  2   force =    -0.00014269    0.00022349    0.00037149
     atom   20 type  2   force =    -0.00013987   -0.00022133    0.00037501
     atom   21 type  2   force =    -0.00039193    0.00040409   -0.00035098
     atom   22 type  2   force =    -0.00038569   -0.00039884   -0.00034363
     atom   23 type  2   force =     0.00039193   -0.00040409    0.00035098
     atom   24 type  2   force =     0.00038569    0.00039884    0.00034363
     atom   25 type  2   force =    -0.00048672    0.00024980   -0.00041739
     atom   26 type  2   force =    -0.00048663   -0.00024973   -0.00041716
     atom   27 type  2   force =     0.00048672   -0.00024980    0.00041739
     atom   28 type  2   force =     0.00048663    0.00024973    0.00041716
     atom   29 type  3   force =     0.00061295   -0.00019270   -0.00015763
     atom   30 type  3   force =     0.00061289    0.00019260   -0.00015759
     atom   31 type  3   force =    -0.00061295    0.00019270    0.00015763
     atom   32 type  3   force =    -0.00061289   -0.00019260    0.00015759
     atom   33 type  3   force =     0.00004630    0.00020059    0.00022241
     atom   34 type  3   force =     0.00004637   -0.00020049    0.00022274
     atom   35 type  3   force =    -0.00004630   -0.00020059   -0.00022241
     atom   36 type  3   force =    -0.00004637    0.00020049   -0.00022274
     atom   37 type  2   force =     0.00042744    0.00021901    0.00048201
     atom   38 type  2   force =     0.00042728   -0.00021794    0.00048207
     atom   39 type  2   force =    -0.00042744   -0.00021901   -0.00048201
     atom   40 type  2   force =    -0.00042728    0.00021794   -0.00048207
     atom   41 type  3   force =    -0.00047186    0.00002396   -0.00011274
     atom   42 type  3   force =    -0.00047228   -0.00002407   -0.00011297
     atom   43 type  3   force =     0.00047186   -0.00002396    0.00011274
     atom   44 type  3   force =     0.00047228    0.00002407    0.00011297
     atom   45 type  1   force =     0.00063750   -0.00006575   -0.00023329
     atom   46 type  1   force =     0.00063773    0.00006595   -0.00022481
     atom   47 type  1   force =    -0.00063750    0.00006575    0.00023329
     atom   48 type  1   force =    -0.00063773   -0.00006595    0.00022481
     atom   49 type  3   force =     0.00017284   -0.00018508   -0.00037567
     atom   50 type  3   force =     0.00017188    0.00018463   -0.00037654
     atom   51 type  3   force =    -0.00017284    0.00018508    0.00037567
     atom   52 type  3   force =    -0.00017188   -0.00018463    0.00037654
     atom   53 type  3   force =    -0.00050312   -0.00027229   -0.00040667
     atom   54 type  3   force =    -0.00050175    0.00027221   -0.00040687
     atom   55 type  3   force =     0.00050312    0.00027229    0.00040667
     atom   56 type  3   force =     0.00050175   -0.00027221    0.00040687
     atom   57 type  1   force =    -0.00048785    0.00024694    0.00016999
     atom   58 type  1   force =    -0.00048805   -0.00024663    0.00016768
     atom   59 type  1   force =     0.00048785   -0.00024694   -0.00016999
     atom   60 type  1   force =     0.00048805    0.00024663   -0.00016768
     atom   61 type  3   force =     0.00060626   -0.00048699    0.00043688
     atom   62 type  3   force =     0.00060629    0.00048737    0.00043701
     atom   63 type  3   force =    -0.00060626    0.00048699   -0.00043688
     atom   64 type  3   force =    -0.00060629   -0.00048737   -0.00043701
     atom   65 type  3   force =    -0.00030471    0.00054978   -0.00001904
     atom   66 type  3   force =    -0.00030524   -0.00054971   -0.00001901
     atom   67 type  3   force =     0.00030471   -0.00054978    0.00001904
     atom   68 type  3   force =     0.00030524    0.00054971    0.00001901
     atom   69 type  1   force =     0.00010272   -0.00030476    0.00044459
     atom   70 type  1   force =     0.00010249    0.00030468    0.00044058
     atom   71 type  1   force =    -0.00010272    0.00030476   -0.00044459
     atom   72 type  1   force =    -0.00010249   -0.00030468   -0.00044058
     atom   73 type  3   force =     0.00056018    0.00031113    0.00021470
     atom   74 type  3   force =     0.00056082   -0.00031088    0.00021459
     atom   75 type  3   force =    -0.00056018   -0.00031113   -0.00021470
     atom   76 type  3   force =    -0.00056082    0.00031088   -0.00021459
     atom   77 type  3   force =     0.00036621    0.00047186   -0.00021590
     atom   78 type  3   force =     0.00036626   -0.00047187   -0.00021631
     atom   79 type  3   force =    -0.00036621   -0.00047186    0.00021590
     atom   80 type  3   force =    -0.00036626    0.00047187    0.00021631
     atom   81 type  2   force =    -0.00017073    0.00020348   -0.00121395
     atom   82 type  2   force =    -0.00017051   -0.00020336   -0.00121424
     atom   83 type  2   force =     0.00017073   -0.00020348    0.00121395
     atom   84 type  2   force =     0.00017051    0.00020336    0.00121424
     atom   85 type  3   force =    -0.00014014   -0.00029952   -0.00021213
     atom   86 type  3   force =    -0.00014030    0.00029955   -0.00021235
     atom   87 type  3   force =     0.00014014    0.00029952    0.00021213
     atom   88 type  3   force =     0.00014030   -0.00029955    0.00021235
     atom   89 type  3   force =     0.00033714    0.00004488    0.00016223
     atom   90 type  3   force =     0.00033721   -0.00004491    0.00016237
     atom   91 type  3   force =    -0.00033714   -0.00004488   -0.00016223
     atom   92 type  3   force =    -0.00033721    0.00004491   -0.00016237
     atom   93 type  2   force =     0.00083754   -0.00114165    0.00045818
     atom   94 type  2   force =     0.00083760    0.00114099    0.00045765
     atom   95 type  2   force =    -0.00083754    0.00114165   -0.00045818
     atom   96 type  2   force =    -0.00083760   -0.00114099   -0.00045765
     atom   97 type  3   force =    -0.00022403   -0.00030733   -0.00012886
     atom   98 type  3   force =    -0.00022398    0.00030735   -0.00012899
     atom   99 type  3   force =     0.00022403    0.00030733    0.00012886
     atom  100 type  3   force =     0.00022398   -0.00030735    0.00012899
     atom  101 type  1   force =    -0.00100369    0.00027848    0.00007184
     atom  102 type  1   force =    -0.00100423   -0.00027859    0.00007377
     atom  103 type  1   force =     0.00100369   -0.00027848   -0.00007184
     atom  104 type  1   force =     0.00100423    0.00027859   -0.00007377
     atom  105 type  3   force =     0.00008042    0.00000930   -0.00027121
     atom  106 type  3   force =     0.00008021   -0.00000941   -0.00027129
     atom  107 type  3   force =    -0.00008042   -0.00000930    0.00027121
     atom  108 type  3   force =    -0.00008021    0.00000941    0.00027129
     atom  109 type  3   force =    -0.00020092    0.00009170   -0.00032665
     atom  110 type  3   force =    -0.00020092   -0.00009201   -0.00032631
     atom  111 type  3   force =     0.00020092   -0.00009170    0.00032665
     atom  112 type  3   force =     0.00020092    0.00009201    0.00032631
     atom  113 type  1   force =     0.00018331   -0.00027233    0.00100520
     atom  114 type  1   force =     0.00018285    0.00027279    0.00101674
     atom  115 type  1   force =    -0.00018331    0.00027233   -0.00100520
     atom  116 type  1   force =    -0.00018285   -0.00027279   -0.00101674
     atom  117 type  3   force =     0.00022754    0.00020952   -0.00014876
     atom  118 type  3   force =     0.00022756   -0.00020947   -0.00014846
     atom  119 type  3   force =    -0.00022754   -0.00020952    0.00014876
     atom  120 type  3   force =    -0.00022756    0.00020947    0.00014846
     atom  121 type  3   force =     0.00010581   -0.00042310   -0.00049372
     atom  122 type  3   force =     0.00010601    0.00042314   -0.00049267
     atom  123 type  3   force =    -0.00010581    0.00042310    0.00049372
     atom  124 type  3   force =    -0.00010601   -0.00042314    0.00049267
     atom  125 type  1   force =     0.00028162   -0.00072270   -0.00014599
     atom  126 type  1   force =     0.00028102    0.00072305   -0.00014603
     atom  127 type  1   force =    -0.00028162    0.00072270    0.00014599
     atom  128 type  1   force =    -0.00028102   -0.00072305    0.00014603
     atom  129 type  3   force =     0.00053831    0.00099765    0.00012526
     atom  130 type  3   force =     0.00053834   -0.00099738    0.00012498
     atom  131 type  3   force =    -0.00053831   -0.00099765   -0.00012526
     atom  132 type  3   force =    -0.00053834    0.00099738   -0.00012498
     atom  133 type  3   force =    -0.00032829   -0.00052173   -0.00007794
     atom  134 type  3   force =    -0.00032809    0.00052184   -0.00007795
     atom  135 type  3   force =     0.00032829    0.00052173    0.00007794
     atom  136 type  3   force =     0.00032809   -0.00052184    0.00007795

     Total force =     0.008800     Total SCF correction =     0.000095


     Computing stress (Cartesian axis) and pressure

          total   stress  (Ry/bohr**3)                   (kbar)     P=   -6.97
  -0.00004250  -0.00000000  -0.00000868         -6.25     -0.00     -1.28
  -0.00000000  -0.00004481  -0.00000000         -0.00     -6.59     -0.00
  -0.00000868  -0.00000000  -0.00005483         -1.28     -0.00     -8.07


     Writing output data file scf.save
 
     init_run     :     82.43s CPU     85.15s WALL (       1 calls)
     electrons    :   3259.89s CPU   3372.54s WALL (       1 calls)
     forces       :     40.26s CPU     40.57s WALL (       1 calls)
     stress       :    192.86s CPU    193.39s WALL (       1 calls)

     Called by init_run:
     wfcinit      :     69.14s CPU     71.69s WALL (       1 calls)
     potinit      :      4.84s CPU      4.87s WALL (       1 calls)

     Called by electrons:
     c_bands      :   2953.28s CPU   3049.68s WALL (      18 calls)
     sum_band     :    284.38s CPU    298.29s WALL (      18 calls)
     v_of_rho     :      3.15s CPU      3.44s WALL (      19 calls)
     newd         :      8.23s CPU     10.29s WALL (      19 calls)
     PAW_pot      :      9.98s CPU      9.98s WALL (      19 calls)
     mix_rho      :      0.77s CPU      0.85s WALL (      18 calls)

     Called by c_bands:
     init_us_2    :     14.35s CPU     14.41s WALL (     312 calls)
     cegterg      :   2900.81s CPU   2997.09s WALL (     144 calls)

     Called by sum_band:
     sum_band:bec :      0.14s CPU      0.14s WALL (     144 calls)
     addusdens    :      8.41s CPU     10.41s WALL (      18 calls)

     Called by *egterg:
     h_psi        :   1509.98s CPU   1585.65s WALL (     732 calls)
     s_psi        :    372.49s CPU    372.58s WALL (     732 calls)
     g_psi        :      6.57s CPU      6.57s WALL (     580 calls)
     cdiaghg      :    143.05s CPU    143.07s WALL (     724 calls)

     Called by h_psi:
     h_psi:pot    :   1500.37s CPU   1575.85s WALL (     732 calls)
     h_psi:calbec :    362.79s CPU    363.45s WALL (     732 calls)
     vloc_psi     :    764.44s CPU    839.13s WALL (     732 calls)
     add_vuspsi   :    373.14s CPU    373.27s WALL (     732 calls)

     General routines
     calbec       :    526.27s CPU    527.17s WALL (     916 calls)
     fft          :      1.93s CPU      2.40s WALL (     271 calls)
     fftw         :    795.33s CPU    881.29s WALL (  216638 calls)
 
     Parallel routines
     fft_scatter  :    152.84s CPU    235.53s WALL (  216909 calls)
 
     PWSCF        :     0h59m CPU        1h 2m WALL

 
   This run was terminated on:  12:29:57   7Dec2017            

=------------------------------------------------------------------------------=
   JOB DONE.
=------------------------------------------------------------------------------=
