
     Program PWSCF v.6.1 (svn rev. 13369) starts on 13Nov2017 at 12:24: 4 

     This program is part of the open-source Quantum ESPRESSO suite
     for quantum simulation of materials; please cite
         "P. Giannozzi et al., J. Phys.:Condens. Matter 21 395502 (2009);
          URL http://www.quantum-espresso.org", 
     in publications or presentations arising from this work. More details at
     http://www.quantum-espresso.org/quote

     Parallel version (MPI), running on     8 processors
     R & G space division:  proc/nbgrp/npool/nimage =       8
     Waiting for input...
     Reading input from standard input

     Current dimensions of program PWSCF are:
     Max number of different atomic species (ntypx) = 10
     Max number of k-points (npk) =  40000
     Max angular momentum in pseudopotentials (lmaxx) =  3
               file C.pbe-n-kjpaw_psl.0.1.UPF: wavefunction(s)  2P renormalized
               file N.pbe-n-kjpaw_psl.0.1.UPF: wavefunction(s)  2P renormalized
               file H.pbe-kjpaw_psl.0.1.UPF: wavefunction(s)  1S renormalized
               file O.pbe-n-kjpaw_psl.0.1.UPF: wavefunction(s)  2P renormalized

     -------------------------------------
     Parameters for Dispersion Correction:
     -------------------------------------
       atom      VdW radius       C_6     

        C          2.744         60.710
        N          2.640         42.670
        H          1.892          4.857
        O          2.536         24.284

     Subspace diagonalization in iterative solution of the eigenvalue problem:
     a serial algorithm will be used

 
     Parallelization info
     --------------------
     sticks:   dense  smooth     PW     G-vecs:    dense   smooth      PW
     Min        1030    1030    271                64790    64790    8767
     Max        1031    1031    272                64793    64793    8768
     Sum        8247    8247   2175               518333   518333   70143
 


     bravais-lattice index     =            0
     lattice parameter (alat)  =      23.6178  a.u.
     unit-cell volume          =    3836.5512 (a.u.)^3
     number of atoms/cell      =           56
     number of atomic types    =            4
     number of electrons       =       208.00
     number of Kohn-Sham states=          124
     kinetic-energy cutoff     =     100.0000  Ry
     charge density cutoff     =     400.0000  Ry
     convergence threshold     =      1.0E-08
     mixing beta               =       0.5000
     number of iterations used =            8  plain     mixing
     Exchange-correlation      =  SLA  PW   PBX  PBC ( 1  4  3  4 0 0)

     celldm(1)=  23.617797  celldm(2)=   0.000000  celldm(3)=   0.000000
     celldm(4)=   0.000000  celldm(5)=   0.000000  celldm(6)=   0.000000

     crystal axes: (cart. coord. in units of alat)
               a(1) = (   1.000000   0.000000   0.000000 )  
               a(2) = (   0.000000   0.465194   0.000000 )  
               a(3) = (   0.000000   0.000000   0.626020 )  

     reciprocal axes: (cart. coord. in units 2 pi/alat)
               b(1) = (  1.000000  0.000000  0.000000 )  
               b(2) = (  0.000000  2.149639  0.000000 )  
               b(3) = (  0.000000  0.000000  1.597393 )  


     PseudoPot. # 1 for  C read from file:
     /scratch/ahofstet/pseudo/C.pbe-n-kjpaw_psl.0.1.UPF
     MD5 check sum: 430fe95172b1e11ef3f8ed03bac87931
     Pseudo is Projector augmented-wave + core cor, Zval =  4.0
     Generated using "atomic" code by A. Dal Corso  v.5.0.99 svn rev. 10869
     Shape of augmentation charge: BESSEL
     Using radial grid of 1073 points,  4 beta functions with: 
                l(1) =   0
                l(2) =   0
                l(3) =   1
                l(4) =   1
     Q(r) pseudized with 0 coefficients 


     PseudoPot. # 2 for  N read from file:
     /scratch/ahofstet/pseudo/N.pbe-n-kjpaw_psl.0.1.UPF
     MD5 check sum: f73187c8b701007e77325f868c9291d7
     Pseudo is Projector augmented-wave + core cor, Zval =  5.0
     Generated using "atomic" code by A. Dal Corso  v.5.0.99 svn rev. 10869
     Shape of augmentation charge: PSQ
     Using radial grid of 1085 points,  4 beta functions with: 
                l(1) =   0
                l(2) =   0
                l(3) =   1
                l(4) =   1
     Q(r) pseudized with 0 coefficients 


     PseudoPot. # 3 for  H read from file:
     /scratch/ahofstet/pseudo/H.pbe-kjpaw_psl.0.1.UPF
     MD5 check sum: 94e484f906d9e9773b2f6e52662335b2
     Pseudo is Projector augmented-wave, Zval =  1.0
     Generated using "atomic" code by A. Dal Corso  v.5.0.99 svn rev. 10869
     Shape of augmentation charge: PSQ
     Using radial grid of  929 points,  2 beta functions with: 
                l(1) =   0
                l(2) =   0
     Q(r) pseudized with 0 coefficients 


     PseudoPot. # 4 for  O read from file:
     /scratch/ahofstet/pseudo/O.pbe-n-kjpaw_psl.0.1.UPF
     MD5 check sum: 3f94a2996a3169367d6eb21d9b593f20
     Pseudo is Projector augmented-wave + core cor, Zval =  6.0
     Generated using "atomic" code by A. Dal Corso  v.5.0.99 svn rev. 10869
     Shape of augmentation charge: BESSEL
     Using radial grid of 1095 points,  4 beta functions with: 
                l(1) =   0
                l(2) =   0
                l(3) =   1
                l(4) =   1
     Q(r) pseudized with 0 coefficients 


     atomic species   valence    mass     pseudopotential
        C              4.00    12.01070      C( 1.00)
        N              5.00    14.00670      N( 1.00)
        H              1.00     1.00794      H( 1.00)
        O              6.00    15.99940      O( 1.00)

      4 Sym. Ops., with inversion, found ( 2 have fractional translation)



   Cartesian axes

     site n.     atom                  positions (alat units)
         1           C   tau(   1) = (   0.1657125   0.1162986   0.3168187  )
         2           C   tau(   2) = (   0.3342873   0.3488958   0.0038818  )
         3           C   tau(   3) = (   0.8342875   0.3488958   0.3092014  )
         4           C   tau(   4) = (   0.6657127   0.1162986   0.6221384  )
         5           C   tau(   5) = (   0.3024908   0.1162986   0.4497472  )
         6           C   tau(   6) = (   0.1974664   0.3488958   0.1367716  )
         7           C   tau(   7) = (   0.6975092   0.3488958   0.1762729  )
         8           C   tau(   8) = (   0.8025336   0.1162986   0.4892486  )
         9           C   tau(   9) = (   0.3806612   0.1162986   0.3720845  )
        10           C   tau(  10) = (   0.1193229   0.3488958   0.0590807  )
        11           C   tau(  11) = (   0.6193388   0.3488958   0.2539356  )
        12           C   tau(  12) = (   0.8806771   0.1162986   0.5669395  )
        13           C   tau(  13) = (   0.3496897   0.1162986   0.2647259  )
        14           C   tau(  14) = (   0.1503296   0.3488958   0.5777511  )
        15           C   tau(  15) = (   0.6503103   0.3488958   0.3612942  )
        16           C   tau(  16) = (   0.8496704   0.1162986   0.0482691  )
        17           C   tau(  17) = (   0.2416107   0.1162986   0.2368365  )
        18           C   tau(  18) = (   0.2584172   0.3488958   0.5498920  )
        19           C   tau(  19) = (   0.7583893   0.3488958   0.3891837  )
        20           C   tau(  20) = (   0.7415828   0.1162986   0.0761282  )
        21           H   tau(  21) = (   0.3171863   0.1162986   0.5355029  )
        22           H   tau(  22) = (   0.1827383   0.3488958   0.2225193  )
        23           H   tau(  23) = (   0.6828137   0.3488958   0.0905172  )
        24           H   tau(  24) = (   0.8172617   0.1162986   0.4035009  )
        25           H   tau(  25) = (   0.4645760   0.1162986   0.3953498  )
        26           H   tau(  26) = (   0.0353986   0.3488958   0.0823056  )
        27           H   tau(  27) = (   0.5354240   0.3488958   0.2306703  )
        28           H   tau(  28) = (   0.9646014   0.1162986   0.5437146  )
        29           H   tau(  29) = (   0.2154774   0.1162986   0.1535690  )
        30           H   tau(  30) = (   0.2845779   0.3488958   0.4666319  )
        31           H   tau(  31) = (   0.7845226   0.3488958   0.4724512  )
        32           H   tau(  32) = (   0.7154221   0.1162986   0.1593882  )
        33           H   tau(  33) = (   0.0798800   0.1162986   0.3025643  )
        34           H   tau(  34) = (   0.4201252   0.3488958  -0.0103426  )
        35           H   tau(  35) = (   0.9201200   0.3488958   0.3234558  )
        36           H   tau(  36) = (   0.5798748   0.1162986   0.6363627  )
        37           N   tau(  37) = (   0.1957769   0.1162986   0.4229487  )
        38           N   tau(  38) = (   0.3041886   0.3488958   0.1100026  )
        39           N   tau(  39) = (   0.8042231   0.3488958   0.2030715  )
        40           N   tau(  40) = (   0.6958114   0.1162986   0.5160176  )
        41           N   tau(  41) = (   0.4318071   0.1162986   0.1820452  )
        42           N   tau(  42) = (   0.0682441   0.3488958   0.4950331  )
        43           N   tau(  43) = (   0.5681929   0.3488958   0.4439749  )
        44           N   tau(  44) = (   0.9317559   0.1162986   0.1309871  )
        45           O   tau(  45) = (   0.1254572   0.1162986   0.4971993  )
        46           O   tau(  46) = (   0.3744895   0.3488958   0.1842713  )
        47           O   tau(  47) = (   0.8745428   0.3488958   0.1288209  )
        48           O   tau(  48) = (   0.6255105   0.1162986   0.4417489  )
        49           O   tau(  49) = (   0.4035527   0.1162986   0.0866772  )
        50           O   tau(  50) = (   0.0965233   0.3488958   0.3996822  )
        51           O   tau(  51) = (   0.5964473   0.3488958   0.5393430  )
        52           O   tau(  52) = (   0.9034767   0.1162986   0.2263380  )
        53           O   tau(  53) = (   0.5264562   0.1162986   0.2111398  )
        54           O   tau(  54) = (   0.9735771   0.3488958   0.5240983  )
        55           O   tau(  55) = (   0.4735438   0.3488958   0.4148804  )
        56           O   tau(  56) = (   0.0264229   0.1162986   0.1019219  )

     number of k points=     8
                       cart. coord. in units 2pi/alat
        k(    1) = (   0.0000000   0.0000000   0.0000000), wk =   0.1111111
        k(    2) = (   0.0000000   0.0000000   0.5324642), wk =   0.2222222
        k(    3) = (   0.0000000   0.7165463   0.0000000), wk =   0.2222222
        k(    4) = (   0.0000000   0.7165463   0.5324642), wk =   0.4444444
        k(    5) = (  -0.5000000   0.0000000   0.0000000), wk =   0.1111111
        k(    6) = (  -0.5000000   0.0000000   0.5324642), wk =   0.2222222
        k(    7) = (  -0.5000000   0.7165463   0.0000000), wk =   0.2222222
        k(    8) = (  -0.5000000   0.7165463   0.5324642), wk =   0.4444444

     Dense  grid:   518333 G-vectors     FFT dimensions: ( 160,  72,  96)

     Estimated max dynamical RAM per process >     350.56MB

     Estimated total allocated dynamical RAM >    2804.45MB

     Check: negative/imaginary core charge=   -0.000002    0.000000

     Initial potential from superposition of free atoms

     starting charge  207.99894, renormalised to  208.00000
     Starting wfc are  176 randomized atomic wfcs
     Checking if some PAW data can be deallocated... 

     total cpu time spent up to now is       16.6 secs

     per-process dynamical memory:   266.3 Mb

     Self-consistent Calculation

     iteration #  1     ecut=   100.00 Ry     beta=0.50
     Davidson diagonalization with overlap
     ethr =  1.00E-02,  avg # of iterations =  3.4

     total cpu time spent up to now is       59.5 secs

     total energy              =   -1111.05767092 Ry
     Harris-Foulkes estimate   =   -1114.07561597 Ry
     estimated scf accuracy    <       5.61762529 Ry

     iteration #  2     ecut=   100.00 Ry     beta=0.50
     Davidson diagonalization with overlap
     ethr =  2.70E-03,  avg # of iterations =  3.0

     total cpu time spent up to now is       88.5 secs

     total energy              =   -1111.73475408 Ry
     Harris-Foulkes estimate   =   -1112.38938578 Ry
     estimated scf accuracy    <       1.37229690 Ry

     iteration #  3     ecut=   100.00 Ry     beta=0.50
     Davidson diagonalization with overlap
     ethr =  6.60E-04,  avg # of iterations =  6.2

     total cpu time spent up to now is      127.2 secs

     total energy              =   -1112.11867654 Ry
     Harris-Foulkes estimate   =   -1112.30106050 Ry
     estimated scf accuracy    <       0.42945753 Ry

     iteration #  4     ecut=   100.00 Ry     beta=0.50
     Davidson diagonalization with overlap
     ethr =  2.06E-04,  avg # of iterations =  3.8

     total cpu time spent up to now is      152.7 secs

     total energy              =   -1112.17125319 Ry
     Harris-Foulkes estimate   =   -1112.20812853 Ry
     estimated scf accuracy    <       0.08636597 Ry

     iteration #  5     ecut=   100.00 Ry     beta=0.50
     Davidson diagonalization with overlap
     ethr =  4.15E-05,  avg # of iterations =  6.2

     total cpu time spent up to now is      190.7 secs

     total energy              =   -1112.19896896 Ry
     Harris-Foulkes estimate   =   -1112.20938550 Ry
     estimated scf accuracy    <       0.02847327 Ry

     iteration #  6     ecut=   100.00 Ry     beta=0.50
     Davidson diagonalization with overlap
     ethr =  1.37E-05,  avg # of iterations =  2.2

     total cpu time spent up to now is      215.8 secs

     total energy              =   -1112.20291226 Ry
     Harris-Foulkes estimate   =   -1112.20489205 Ry
     estimated scf accuracy    <       0.00523549 Ry

     iteration #  7     ecut=   100.00 Ry     beta=0.50
     Davidson diagonalization with overlap
     ethr =  2.52E-06,  avg # of iterations =  9.2

     total cpu time spent up to now is      253.0 secs

     total energy              =   -1112.20407348 Ry
     Harris-Foulkes estimate   =   -1112.20463070 Ry
     estimated scf accuracy    <       0.00155074 Ry

     iteration #  8     ecut=   100.00 Ry     beta=0.50
     Davidson diagonalization with overlap
     ethr =  7.46E-07,  avg # of iterations =  3.0

     total cpu time spent up to now is      282.8 secs

     total energy              =   -1112.20445733 Ry
     Harris-Foulkes estimate   =   -1112.20456457 Ry
     estimated scf accuracy    <       0.00031146 Ry

     iteration #  9     ecut=   100.00 Ry     beta=0.50
     Davidson diagonalization with overlap
     ethr =  1.50E-07,  avg # of iterations =  3.2

     total cpu time spent up to now is      311.0 secs

     total energy              =   -1112.20448620 Ry
     Harris-Foulkes estimate   =   -1112.20462296 Ry
     estimated scf accuracy    <       0.00055464 Ry

     iteration # 10     ecut=   100.00 Ry     beta=0.50
     Davidson diagonalization with overlap
     ethr =  1.50E-07,  avg # of iterations =  2.0

     total cpu time spent up to now is      334.2 secs

     total energy              =   -1112.20454167 Ry
     Harris-Foulkes estimate   =   -1112.20455243 Ry
     estimated scf accuracy    <       0.00002238 Ry

     iteration # 11     ecut=   100.00 Ry     beta=0.50
     Davidson diagonalization with overlap
     ethr =  1.08E-08,  avg # of iterations =  4.0

     total cpu time spent up to now is      376.3 secs

     total energy              =   -1112.20455481 Ry
     Harris-Foulkes estimate   =   -1112.20455754 Ry
     estimated scf accuracy    <       0.00000957 Ry

     iteration # 12     ecut=   100.00 Ry     beta=0.50
     Davidson diagonalization with overlap
     ethr =  4.60E-09,  avg # of iterations =  1.5

     total cpu time spent up to now is      399.0 secs

     total energy              =   -1112.20455537 Ry
     Harris-Foulkes estimate   =   -1112.20455583 Ry
     estimated scf accuracy    <       0.00000167 Ry

     iteration # 13     ecut=   100.00 Ry     beta=0.50
     Davidson diagonalization with overlap
     ethr =  8.05E-10,  avg # of iterations =  5.1

     total cpu time spent up to now is      435.3 secs

     total energy              =   -1112.20455600 Ry
     Harris-Foulkes estimate   =   -1112.20455607 Ry
     estimated scf accuracy    <       0.00000029 Ry

     iteration # 14     ecut=   100.00 Ry     beta=0.50
     Davidson diagonalization with overlap
     ethr =  1.40E-10,  avg # of iterations =  2.4

     total cpu time spent up to now is      460.2 secs

     total energy              =   -1112.20455603 Ry
     Harris-Foulkes estimate   =   -1112.20455605 Ry
     estimated scf accuracy    <       0.00000008 Ry

     iteration # 15     ecut=   100.00 Ry     beta=0.50
     Davidson diagonalization with overlap
     ethr =  3.73E-11,  avg # of iterations =  3.2

     total cpu time spent up to now is      492.6 secs

     total energy              =   -1112.20455605 Ry
     Harris-Foulkes estimate   =   -1112.20455606 Ry
     estimated scf accuracy    <       0.00000002 Ry

     iteration # 16     ecut=   100.00 Ry     beta=0.50
     Davidson diagonalization with overlap
     ethr =  7.45E-12,  avg # of iterations =  2.2

     total cpu time spent up to now is      516.8 secs

     End of self-consistent calculation

          k = 0.0000 0.0000 0.0000 ( 64899 PWs)   bands (ev):

   -23.6832 -23.6816 -23.6760 -23.6758 -21.2363 -21.2363 -21.2276 -21.2258
   -19.2186 -19.2172 -19.2079 -19.2062 -15.8241 -15.8094 -15.7965 -15.7696
   -13.7878 -13.7769 -13.7071 -13.6885 -12.8264 -12.8153 -12.6141 -12.6021
   -11.0012 -10.9509 -10.8552 -10.7805  -9.8045  -9.7426  -9.6399  -9.5777
    -8.1348  -7.9870  -7.8798  -7.8221  -6.9616  -6.8912  -6.8732  -6.7978
    -6.3544  -6.2290  -6.2219  -6.1992  -6.1348  -6.1337  -6.1272  -6.1158
    -5.7343  -5.7157  -5.4285  -5.4009  -5.3553  -5.2964  -5.2593  -5.2352
    -4.8571  -4.7778  -4.7292  -4.6962  -4.6652  -4.5257  -4.4898  -4.3823
    -4.0362  -3.9297  -3.8765  -3.8756  -3.5937  -3.5430  -3.1783  -3.1615
    -2.3890  -2.3333  -2.3138  -2.2315  -1.9559  -1.8725  -1.6192  -1.5575
    -0.9095  -0.8083  -0.7126  -0.5411  -0.4291  -0.3952  -0.3213  -0.2986
    -0.2651  -0.2228   0.2091   0.2549   0.2678   0.3077   0.3165   0.5108
     0.7572   0.7581   0.7670   0.8347   0.9430   0.9566   1.5922   1.6512
     3.2883   3.3677   3.5546   3.9164   4.6769   4.8546   5.3005   5.4086
     5.4679   5.6824   5.8697   6.1391   7.3409   7.6981   8.0139   8.1629
     8.6958   8.8316   8.9262   8.9804

          k = 0.0000 0.0000 0.5325 ( 64817 PWs)   bands (ev):

   -23.6821 -23.6813 -23.6766 -23.6765 -21.2342 -21.2336 -21.2299 -21.2283
   -19.2181 -19.2174 -19.2078 -19.2069 -15.8139 -15.8091 -15.7997 -15.7838
   -13.7665 -13.7482 -13.7301 -13.6988 -12.7828 -12.7637 -12.6764 -12.6564
   -10.9459 -10.8994 -10.8743 -10.8150  -9.7450  -9.7143  -9.6634  -9.6304
    -8.1942  -8.1248  -7.9362  -7.9087  -6.9387  -6.8825  -6.7001  -6.6488
    -6.3074  -6.2678  -6.2248  -6.2030  -6.2015  -6.1753  -6.1660  -6.1532
    -5.7030  -5.6900  -5.4590  -5.4371  -5.2338  -5.2051  -5.1462  -5.1105
    -4.8355  -4.7714  -4.7621  -4.7229  -4.6165  -4.5705  -4.5228  -4.4852
    -4.0600  -4.0056  -3.9499  -3.9409  -3.5078  -3.4866  -3.2017  -3.1928
    -2.4254  -2.3791  -2.3128  -2.2646  -1.9051  -1.7794  -1.7321  -1.6351
    -0.8627  -0.7508  -0.6347  -0.5545  -0.3833  -0.3424  -0.3218  -0.2804
    -0.2615  -0.0831   0.0997   0.2404   0.2576   0.2900   0.3020   0.3108
     0.7702   0.7744   0.9421   0.9598   0.9668   0.9787   1.3728   1.3973
     3.3749   3.4027   3.6779   3.8601   4.9695   5.1439   5.2404   5.3802
     5.4829   5.6211   5.6282   5.8385   7.6136   7.8334   8.2352   8.3138
     8.5723   8.6345   8.7888   8.8703

          k = 0.0000 0.7165 0.0000 ( 64753 PWs)   bands (ev):

   -23.6804 -23.6793 -23.6767 -23.6764 -21.2351 -21.2345 -21.2308 -21.2292
   -19.2170 -19.2153 -19.2116 -19.2097 -15.8205 -15.8131 -15.7890 -15.7755
   -13.7687 -13.7535 -13.7283 -13.7090 -12.7726 -12.7701 -12.6691 -12.6603
   -10.9920 -10.9668 -10.8360 -10.7986  -9.7689  -9.7075  -9.6867  -9.6253
    -8.1013  -8.0275  -7.8715  -7.8425  -6.9562  -6.9217  -6.9082  -6.8909
    -6.2301  -6.1995  -6.1968  -6.1911  -6.1588  -6.1354  -6.1128  -6.0714
    -5.6099  -5.6035  -5.4194  -5.4084  -5.4008  -5.3612  -5.2772  -5.2469
    -4.8412  -4.8390  -4.8112  -4.7658  -4.6080  -4.5053  -4.4913  -4.4183
    -4.0097  -3.9519  -3.8950  -3.8896  -3.5551  -3.5369  -3.1839  -3.1750
    -2.4280  -2.3665  -2.3218  -2.2734  -1.7654  -1.7433  -1.6539  -1.5367
    -0.6980  -0.6828  -0.6255  -0.5824  -0.3826  -0.3728  -0.3445  -0.2835
    -0.2463  -0.2282   0.1377   0.1759   0.2546   0.2611   0.2969   0.3671
     0.7359   0.7800   0.9010   0.9655   1.0177   1.0552   1.3903   1.4298
     3.3238   3.4093   3.4216   3.7396   4.8992   4.9898   5.2645   5.3533
     5.3791   5.5161   5.5492   5.7430   7.7857   7.9516   8.2520   8.4110
     8.8486   8.9061   8.9502   9.1120

          k = 0.0000 0.7165 0.5325 ( 64801 PWs)   bands (ev):

   -23.6798 -23.6792 -23.6770 -23.6767 -21.2342 -21.2331 -21.2320 -21.2305
   -19.2166 -19.2157 -19.2112 -19.2103 -15.8124 -15.8100 -15.7948 -15.7868
   -13.7572 -13.7393 -13.7372 -13.7121 -12.7568 -12.7380 -12.7037 -12.6839
   -10.9372 -10.9138 -10.8605 -10.8308  -9.7315  -9.7004  -9.6906  -9.6586
    -8.1835  -8.1492  -7.9369  -7.9230  -6.9593  -6.9323  -6.7146  -6.6933
    -6.2759  -6.2465  -6.2069  -6.1868  -6.1745  -6.1598  -6.1320  -6.1002
    -5.6012  -5.5914  -5.4682  -5.4655  -5.2570  -5.2497  -5.1540  -5.1514
    -4.8786  -4.8700  -4.8289  -4.7982  -4.5498  -4.5007  -4.4873  -4.4788
    -4.0207  -3.9923  -3.9501  -3.9407  -3.4891  -3.4808  -3.2199  -3.2142
    -2.4477  -2.4229  -2.3300  -2.2999  -1.7510  -1.7146  -1.6963  -1.6047
    -0.7186  -0.6955  -0.5829  -0.5819  -0.3978  -0.3902  -0.2910  -0.2745
    -0.1724  -0.0975   0.0361   0.1115   0.2703   0.2705   0.2999   0.3153
     0.7489   0.7780   0.9356   0.9691   1.1065   1.1536   1.3058   1.3177
     3.3851   3.4347   3.5253   3.6879   5.0513   5.1329   5.2049   5.3196
     5.3608   5.4077   5.4892   5.5765   8.0569   8.1305   8.5283   8.5428
     8.7198   8.7631   8.8619   9.0608

          k =-0.5000 0.0000 0.0000 ( 64804 PWs)   bands (ev):

   -23.6825 -23.6824 -23.6759 -23.6758 -21.2363 -21.2363 -21.2267 -21.2267
   -19.2180 -19.2178 -19.2071 -19.2069 -15.8111 -15.8110 -15.7892 -15.7891
   -13.7827 -13.7826 -13.6952 -13.6952 -12.8238 -12.8238 -12.6093 -12.6093
   -10.9307 -10.9304 -10.8632 -10.8629  -9.7757  -9.7757  -9.6075  -9.6075
    -8.0247  -8.0246  -7.9017  -7.9015  -6.9235  -6.9235  -6.8155  -6.8154
    -6.3092  -6.3091  -6.1887  -6.1887  -6.1367  -6.1366  -6.1208  -6.1208
    -5.5851  -5.5845  -5.5342  -5.5336  -5.3663  -5.3663  -5.2658  -5.2657
    -4.8181  -4.8181  -4.7123  -4.7123  -4.5745  -4.5744  -4.4320  -4.4319
    -4.0198  -4.0197  -3.9526  -3.9525  -3.3129  -3.3127  -3.2901  -3.2900
    -2.3731  -2.3730  -2.2751  -2.2750  -1.9173  -1.9173  -1.5827  -1.5826
    -0.8739  -0.8738  -0.6313  -0.6310  -0.3531  -0.3530  -0.3203  -0.3203
    -0.2932  -0.2931   0.2314   0.2316   0.2799   0.2800   0.4162   0.4162
     0.8012   0.8012   0.8550   0.8550   0.8694   0.8694   1.6220   1.6221
     3.2886   3.2887   3.7794   3.7795   4.7377   4.7379   5.3111   5.3113
     5.6343   5.6344   6.0144   6.0144   7.6147   7.6155   7.9057   7.9064
     8.9293   8.9293   8.9337   8.9337

          k =-0.5000 0.0000 0.5325 ( 64754 PWs)   bands (ev):

   -23.6818 -23.6817 -23.6766 -23.6765 -21.2339 -21.2339 -21.2291 -21.2291
   -19.2178 -19.2176 -19.2074 -19.2073 -15.8081 -15.8080 -15.7954 -15.7952
   -13.7596 -13.7594 -13.7134 -13.7133 -12.7724 -12.7724 -12.6648 -12.6648
   -10.9129 -10.9126 -10.8586 -10.8583  -9.7323  -9.7323  -9.6469  -9.6469
    -8.0844  -8.0843  -8.0015  -8.0014  -6.8451  -6.8450  -6.7316  -6.7314
    -6.2762  -6.2761  -6.2240  -6.2239  -6.1826  -6.1824  -6.1678  -6.1677
    -5.5917  -5.5912  -5.5507  -5.5502  -5.2403  -5.2400  -5.1716  -5.1713
    -4.7990  -4.7989  -4.7468  -4.7467  -4.5703  -4.5701  -4.4667  -4.4665
    -4.0034  -4.0033  -3.9554  -3.9553  -3.3756  -3.3755  -3.3553  -3.3552
    -2.3661  -2.3659  -2.3070  -2.3068  -1.8608  -1.8604  -1.6647  -1.6643
    -0.7958  -0.7956  -0.6316  -0.6313  -0.3357  -0.3357  -0.3028  -0.3027
    -0.1914  -0.1913   0.2139   0.2140   0.2538   0.2540   0.2956   0.2958
     0.8648   0.8648   0.8731   0.8732   0.9615   0.9616   1.3851   1.3852
     3.3850   3.3851   3.7727   3.7728   5.0314   5.0315   5.2795   5.2798
     5.5931   5.5932   5.7514   5.7516   7.8670   7.8675   8.0598   8.0600
     8.5475   8.5477   9.0402   9.0404

          k =-0.5000 0.7165 0.0000 ( 64776 PWs)   bands (ev):

   -23.6799 -23.6798 -23.6766 -23.6765 -21.2348 -21.2348 -21.2300 -21.2300
   -19.2162 -19.2160 -19.2107 -19.2106 -15.8052 -15.8052 -15.7943 -15.7942
   -13.7607 -13.7607 -13.7168 -13.7168 -12.7738 -12.7738 -12.6664 -12.6664
   -10.9153 -10.9150 -10.8815 -10.8812  -9.7392  -9.7392  -9.6552  -9.6552
    -7.9998  -7.9997  -7.9386  -7.9385  -6.9281  -6.9281  -6.8811  -6.8811
    -6.2145  -6.2143  -6.1675  -6.1674  -6.1396  -6.1396  -6.1185  -6.1184
    -5.5030  -5.5026  -5.4795  -5.4790  -5.3897  -5.3896  -5.3429  -5.3429
    -4.8217  -4.8217  -4.7963  -4.7962  -4.5335  -4.5335  -4.4555  -4.4554
    -4.0039  -4.0038  -3.9735  -3.9735  -3.3092  -3.3091  -3.2941  -3.2941
    -2.3796  -2.3796  -2.3311  -2.3311  -1.7577  -1.7576  -1.5923  -1.5922
    -0.7053  -0.7051  -0.5832  -0.5832  -0.3627  -0.3627  -0.3202  -0.3201
    -0.2595  -0.2594   0.1623   0.1623   0.2623   0.2625   0.3120   0.3121
     0.8285   0.8285   0.8780   0.8780   1.0335   1.0336   1.4088   1.4088
     3.3483   3.3484   3.5961   3.5962   4.9280   4.9282   5.3102   5.3104
     5.4704   5.4705   5.6436   5.6437   8.0264   8.0273   8.1272   8.1279
     8.8853   8.8853   9.0670   9.0671

          k =-0.5000 0.7165 0.5325 ( 64762 PWs)   bands (ev):

   -23.6795 -23.6794 -23.6769 -23.6768 -21.2336 -21.2336 -21.2312 -21.2312
   -19.2161 -19.2160 -19.2109 -19.2108 -15.8043 -15.8042 -15.7979 -15.7978
   -13.7486 -13.7484 -13.7254 -13.7253 -12.7463 -12.7463 -12.6924 -12.6924
   -10.9013 -10.9010 -10.8741 -10.8738  -9.7180  -9.7180  -9.6753  -9.6753
    -8.0712  -8.0710  -8.0302  -8.0301  -6.8467  -6.8465  -6.7996  -6.7994
    -6.2357  -6.2355  -6.2214  -6.2212  -6.1450  -6.1449  -6.1273  -6.1272
    -5.5236  -5.5231  -5.4928  -5.4923  -5.2788  -5.2786  -5.2606  -5.2604
    -4.8426  -4.8426  -4.8198  -4.8197  -4.4971  -4.4970  -4.4554  -4.4553
    -3.9738  -3.9737  -3.9564  -3.9564  -3.3764  -3.3763  -3.3649  -3.3647
    -2.3812  -2.3811  -2.3541  -2.3540  -1.7442  -1.7440  -1.6389  -1.6388
    -0.7101  -0.7099  -0.5812  -0.5810  -0.3494  -0.3493  -0.3284  -0.3283
    -0.1468  -0.1468   0.0865   0.0865   0.2758   0.2760   0.2966   0.2968
     0.8458   0.8459   0.8764   0.8765   1.1292   1.1292   1.3127   1.3127
     3.4046   3.4047   3.6069   3.6071   5.0800   5.0800   5.2674   5.2677
     5.4128   5.4129   5.5162   5.5164   8.2586   8.2591   8.3375   8.3381
     8.6791   8.6796   9.0145   9.0149

     highest occupied, lowest unoccupied level (ev):     1.6512    3.2883

!    total energy              =   -1112.20455605 Ry
     Harris-Foulkes estimate   =   -1112.20455605 Ry
     estimated scf accuracy    <          3.0E-09 Ry

     total all-electron energy =     -4224.039633 Ry

     The total energy is the sum of the following terms:

     one-electron contribution =    -549.64462596 Ry
     hartree contribution      =     359.07606011 Ry
     xc contribution           =    -225.40325023 Ry
     ewald contribution        =    -382.37184172 Ry
     Dispersion Correction     =      -0.26925970 Ry
     one-center paw contrib.   =    -313.59163855 Ry

     convergence has been achieved in  16 iterations

     Forces acting on atoms (cartesian axes, Ry/au):

     atom    1 type  1   force =     0.00189747    0.00000000    0.00321757
     atom    2 type  1   force =    -0.00190139    0.00000000    0.00317956
     atom    3 type  1   force =    -0.00189747    0.00000000   -0.00321757
     atom    4 type  1   force =     0.00190139    0.00000000   -0.00317956
     atom    5 type  1   force =     0.00310656    0.00000000   -0.00179205
     atom    6 type  1   force =    -0.00311273    0.00000000   -0.00187825
     atom    7 type  1   force =    -0.00310656    0.00000000    0.00179205
     atom    8 type  1   force =     0.00311273    0.00000000    0.00187825
     atom    9 type  1   force =    -0.00161634    0.00000000   -0.00010463
     atom   10 type  1   force =     0.00163394    0.00000000   -0.00017607
     atom   11 type  1   force =     0.00161634    0.00000000    0.00010463
     atom   12 type  1   force =    -0.00163394    0.00000000    0.00017607
     atom   13 type  1   force =     0.00445680    0.00000000   -0.00108341
     atom   14 type  1   force =    -0.00443410    0.00000000   -0.00112195
     atom   15 type  1   force =    -0.00445680    0.00000000    0.00108341
     atom   16 type  1   force =     0.00443410    0.00000000    0.00112195
     atom   17 type  1   force =    -0.00214218    0.00000000   -0.00376048
     atom   18 type  1   force =     0.00214523    0.00000000   -0.00372326
     atom   19 type  1   force =     0.00214218    0.00000000    0.00376048
     atom   20 type  1   force =    -0.00214523    0.00000000    0.00372326
     atom   21 type  3   force =     0.00244203    0.00000000   -0.00225942
     atom   22 type  3   force =    -0.00242642    0.00000000   -0.00223312
     atom   23 type  3   force =    -0.00244203    0.00000000    0.00225942
     atom   24 type  3   force =     0.00242642    0.00000000    0.00223312
     atom   25 type  3   force =    -0.00057618    0.00000000   -0.00015564
     atom   26 type  3   force =     0.00057782    0.00000000   -0.00011690
     atom   27 type  3   force =     0.00057618    0.00000000    0.00015564
     atom   28 type  3   force =    -0.00057782    0.00000000    0.00011690
     atom   29 type  3   force =     0.00184601    0.00000000    0.00536479
     atom   30 type  3   force =    -0.00185510    0.00000000    0.00538510
     atom   31 type  3   force =    -0.00184601    0.00000000   -0.00536479
     atom   32 type  3   force =     0.00185510    0.00000000   -0.00538510
     atom   33 type  3   force =     0.00058175    0.00000000   -0.00017323
     atom   34 type  3   force =    -0.00058152    0.00000000   -0.00017862
     atom   35 type  3   force =    -0.00058175    0.00000000    0.00017323
     atom   36 type  3   force =     0.00058152    0.00000000    0.00017862
     atom   37 type  2   force =    -0.00099055    0.00000000   -0.00740167
     atom   38 type  2   force =     0.00100811    0.00000000   -0.00739610
     atom   39 type  2   force =     0.00099055    0.00000000    0.00740167
     atom   40 type  2   force =    -0.00100811    0.00000000    0.00739610
     atom   41 type  2   force =     0.00073846    0.00000000    0.00600259
     atom   42 type  2   force =    -0.00101401    0.00000000    0.00627843
     atom   43 type  2   force =    -0.00073846    0.00000000   -0.00600259
     atom   44 type  2   force =     0.00101401    0.00000000   -0.00627843
     atom   45 type  4   force =    -0.00381125    0.00000000    0.00424089
     atom   46 type  4   force =     0.00382577    0.00000000    0.00426244
     atom   47 type  4   force =     0.00381125    0.00000000   -0.00424089
     atom   48 type  4   force =    -0.00382577    0.00000000   -0.00426244
     atom   49 type  4   force =    -0.00598144    0.00000000   -0.00251379
     atom   50 type  4   force =     0.00605014    0.00000000   -0.00265983
     atom   51 type  4   force =     0.00598144    0.00000000    0.00251379
     atom   52 type  4   force =    -0.00605014    0.00000000    0.00265983
     atom   53 type  4   force =    -0.00168911    0.00000000   -0.00103732
     atom   54 type  4   force =     0.00186308    0.00000000   -0.00106666
     atom   55 type  4   force =     0.00168911    0.00000000    0.00103732
     atom   56 type  4   force =    -0.00186308    0.00000000    0.00106666

     Total force =     0.033893     Total SCF correction =     0.000125


     Computing stress (Cartesian axis) and pressure

          total   stress  (Ry/bohr**3)                   (kbar)     P=   -1.35
   0.00002978   0.00000000  -0.00000006          4.38      0.00     -0.01
   0.00000000  -0.00000663   0.00000000          0.00     -0.98      0.00
  -0.00000006   0.00000000  -0.00005067         -0.01      0.00     -7.45


     Writing output data file scf.save
 
     init_run     :     15.38s CPU     15.90s WALL (       1 calls)
     electrons    :    482.10s CPU    500.45s WALL (       1 calls)
     forces       :      7.51s CPU      7.59s WALL (       1 calls)
     stress       :     25.49s CPU     25.66s WALL (       1 calls)

     Called by init_run:
     wfcinit      :     11.89s CPU     12.31s WALL (       1 calls)
     potinit      :      1.25s CPU      1.29s WALL (       1 calls)

     Called by electrons:
     c_bands      :    425.48s CPU    440.87s WALL (      16 calls)
     sum_band     :     49.53s CPU     51.81s WALL (      16 calls)
     v_of_rho     :      1.14s CPU      1.25s WALL (      17 calls)
     newd         :      1.99s CPU      2.40s WALL (      17 calls)
     PAW_pot      :      3.65s CPU      3.65s WALL (      17 calls)
     mix_rho      :      0.25s CPU      0.27s WALL (      16 calls)

     Called by c_bands:
     init_us_2    :      3.23s CPU      3.25s WALL (     280 calls)
     cegterg      :    413.09s CPU    428.43s WALL (     128 calls)

     Called by sum_band:
     sum_band:bec :      0.04s CPU      0.04s WALL (     128 calls)
     addusdens    :      2.03s CPU      2.42s WALL (      16 calls)

     Called by *egterg:
     h_psi        :    241.97s CPU    252.53s WALL (     623 calls)
     s_psi        :     44.98s CPU     44.99s WALL (     623 calls)
     g_psi        :      1.37s CPU      1.37s WALL (     487 calls)
     cdiaghg      :     26.19s CPU     26.19s WALL (     615 calls)

     Called by h_psi:
     h_psi:pot    :    240.38s CPU    250.90s WALL (     623 calls)
     h_psi:calbec :     44.89s CPU     45.00s WALL (     623 calls)
     vloc_psi     :    150.14s CPU    160.53s WALL (     623 calls)
     add_vuspsi   :     45.35s CPU     45.37s WALL (     623 calls)

     General routines
     calbec       :     68.05s CPU     68.22s WALL (     791 calls)
     fft          :      0.98s CPU      1.19s WALL (     245 calls)
     fftw         :    162.56s CPU    174.29s WALL (  101900 calls)
 
     Parallel routines
     fft_scatter  :     38.19s CPU     45.35s WALL (  102145 calls)
 
     PWSCF        :  8m55.57s CPU     9m15.91s WALL

 
   This run was terminated on:  12:33:20  13Nov2017            

=------------------------------------------------------------------------------=
   JOB DONE.
=------------------------------------------------------------------------------=
