
     Program PWSCF v.6.1 (svn rev. 13369) starts on  4Nov2017 at  4:43: 5 

     This program is part of the open-source Quantum ESPRESSO suite
     for quantum simulation of materials; please cite
         "P. Giannozzi et al., J. Phys.:Condens. Matter 21 395502 (2009);
          URL http://www.quantum-espresso.org", 
     in publications or presentations arising from this work. More details at
     http://www.quantum-espresso.org/quote

     Parallel version (MPI), running on     8 processors
     R & G space division:  proc/nbgrp/npool/nimage =       8
     Waiting for input...
     Reading input from standard input

     Current dimensions of program PWSCF are:
     Max number of different atomic species (ntypx) = 10
     Max number of k-points (npk) =  40000
     Max angular momentum in pseudopotentials (lmaxx) =  3
               file C.pbe-n-kjpaw_psl.0.1.UPF: wavefunction(s)  2P renormalized
               file N.pbe-n-kjpaw_psl.0.1.UPF: wavefunction(s)  2P renormalized
               file H.pbe-kjpaw_psl.0.1.UPF: wavefunction(s)  1S renormalized
               file O.pbe-n-kjpaw_psl.0.1.UPF: wavefunction(s)  2P renormalized

     -------------------------------------
     Parameters for Dispersion Correction:
     -------------------------------------
       atom      VdW radius       C_6     

        C          2.744         60.710
        N          2.640         42.670
        H          1.892          4.857
        O          2.536         24.284

     Subspace diagonalization in iterative solution of the eigenvalue problem:
     a serial algorithm will be used

 
     Parallelization info
     --------------------
     sticks:   dense  smooth     PW     G-vecs:    dense   smooth      PW
     Min         490     490    134                49895    49895    7081
     Max         491     491    135                49897    49897    7085
     Sum        3925    3925   1073               399165   399165   56671
 


     bravais-lattice index     =            0
     lattice parameter (alat)  =      17.7574  a.u.
     unit-cell volume          =    2955.5746 (a.u.)^3
     number of atoms/cell      =           52
     number of atomic types    =            4
     number of electrons       =       184.00
     number of Kohn-Sham states=          110
     kinetic-energy cutoff     =     100.0000  Ry
     charge density cutoff     =     400.0000  Ry
     convergence threshold     =      1.0E-08
     mixing beta               =       0.5000
     number of iterations used =            8  plain     mixing
     Exchange-correlation      =  SLA  PW   PBX  PBC ( 1  4  3  4 0 0)

     celldm(1)=  17.757379  celldm(2)=   0.000000  celldm(3)=   0.000000
     celldm(4)=   0.000000  celldm(5)=   0.000000  celldm(6)=   0.000000

     crystal axes: (cart. coord. in units of alat)
               a(1) = (   1.000000   0.000000   0.000000 )  
               a(2) = (   0.000000   0.390856   0.000000 )  
               a(3) = (  -0.132368   0.000000   1.350480 )  

     reciprocal axes: (cart. coord. in units 2 pi/alat)
               b(1) = (  1.000000  0.000000  0.098016 )  
               b(2) = (  0.000000  2.558484  0.000000 )  
               b(3) = (  0.000000  0.000000  0.740478 )  


     PseudoPot. # 1 for  C read from file:
     /scratch/ahofstet/pseudo/C.pbe-n-kjpaw_psl.0.1.UPF
     MD5 check sum: 430fe95172b1e11ef3f8ed03bac87931
     Pseudo is Projector augmented-wave + core cor, Zval =  4.0
     Generated using "atomic" code by A. Dal Corso  v.5.0.99 svn rev. 10869
     Shape of augmentation charge: BESSEL
     Using radial grid of 1073 points,  4 beta functions with: 
                l(1) =   0
                l(2) =   0
                l(3) =   1
                l(4) =   1
     Q(r) pseudized with 0 coefficients 


     PseudoPot. # 2 for  N read from file:
     /scratch/ahofstet/pseudo/N.pbe-n-kjpaw_psl.0.1.UPF
     MD5 check sum: f73187c8b701007e77325f868c9291d7
     Pseudo is Projector augmented-wave + core cor, Zval =  5.0
     Generated using "atomic" code by A. Dal Corso  v.5.0.99 svn rev. 10869
     Shape of augmentation charge: PSQ
     Using radial grid of 1085 points,  4 beta functions with: 
                l(1) =   0
                l(2) =   0
                l(3) =   1
                l(4) =   1
     Q(r) pseudized with 0 coefficients 


     PseudoPot. # 3 for  H read from file:
     /scratch/ahofstet/pseudo/H.pbe-kjpaw_psl.0.1.UPF
     MD5 check sum: 94e484f906d9e9773b2f6e52662335b2
     Pseudo is Projector augmented-wave, Zval =  1.0
     Generated using "atomic" code by A. Dal Corso  v.5.0.99 svn rev. 10869
     Shape of augmentation charge: PSQ
     Using radial grid of  929 points,  2 beta functions with: 
                l(1) =   0
                l(2) =   0
     Q(r) pseudized with 0 coefficients 


     PseudoPot. # 4 for  O read from file:
     /scratch/ahofstet/pseudo/O.pbe-n-kjpaw_psl.0.1.UPF
     MD5 check sum: 3f94a2996a3169367d6eb21d9b593f20
     Pseudo is Projector augmented-wave + core cor, Zval =  6.0
     Generated using "atomic" code by A. Dal Corso  v.5.0.99 svn rev. 10869
     Shape of augmentation charge: BESSEL
     Using radial grid of 1095 points,  4 beta functions with: 
                l(1) =   0
                l(2) =   0
                l(3) =   1
                l(4) =   1
     Q(r) pseudized with 0 coefficients 


     atomic species   valence    mass     pseudopotential
        C              4.00    12.01070      C( 1.00)
        N              5.00    14.00670      N( 1.00)
        H              1.00     1.00794      H( 1.00)
        O              6.00    15.99940      O( 1.00)

     No symmetry found



   Cartesian axes

     site n.     atom                  positions (alat units)
         1           C   tau(   1) = (   0.3240927   0.2486847   1.1076208  )
         2           C   tau(   2) = (   0.3899326   0.1424731   0.4326734  )
         3           C   tau(   3) = (   0.8079534   0.0430639   1.1127740  )
         4           C   tau(   4) = (   0.8749742   0.3474782   0.4368027  )
         5           C   tau(   5) = (   0.3614872   0.3596555   0.9945315  )
         6           C   tau(   6) = (   0.4270848   0.0313902   0.3196201  )
         7           C   tau(   7) = (   0.8373322   0.1578758   0.9998336  )
         8           C   tau(   8) = (   0.9044257   0.2329052   0.3237481  )
         9           N   tau(   9) = (   0.1734697   0.2585292   1.1565969  )
        10           N   tau(  10) = (   0.2395553   0.1325906   0.4821235  )
        11           N   tau(  11) = (   0.6663238   0.0537580   1.1787973  )
        12           N   tau(  12) = (   0.7330570   0.3368687   0.5024129  )
        13           H   tau(  13) = (   0.1639335   0.3638265   1.2065938  )
        14           H   tau(  14) = (   0.2303267   0.0273069   0.5322079  )
        15           H   tau(  15) = (   0.6631126   0.1591545   1.2290618  )
        16           H   tau(  16) = (   0.7295836   0.2315426   0.5527048  )
        17           N   tau(  17) = (   0.4643834   0.3427977   0.9009047  )
        18           N   tau(  18) = (   0.5297877   0.0481659   0.2257768  )
        19           N   tau(  19) = (  -0.0539984   0.1450945   0.9111249  )
        20           N   tau(  20) = (   0.0127266   0.2457174   0.2345774  )
        21           H   tau(  21) = (   0.4961653   0.2158465   0.8828438  )
        22           H   tau(  22) = (   0.5617098   0.1752443   0.2080496  )
        23           H   tau(  23) = (  -0.0175026   0.0185171   0.9005194  )
        24           H   tau(  24) = (   0.0492618   0.3721962   0.2239442  )
        25           N   tau(  25) = (   0.5331452   0.4645767   0.8578228  )
        26           N   tau(  26) = (   0.5991264  -0.0736505   0.1837131  )
        27           N   tau(  27) = (   0.0237959   0.2675223   0.8890121  )
        28           N   tau(  28) = (   0.0904883   0.1232852   0.2123614  )
        29           H   tau(  29) = (   0.6309783   0.0726851   0.9072293  )
        30           H   tau(  30) = (   0.6961467   0.3182491   0.2347500  )
        31           H   tau(  31) = (   0.0990147   0.2668917   0.9726599  )
        32           H   tau(  32) = (   0.1660103   0.1238537   0.2954747  )
        33           H   tau(  33) = (   0.5520199   0.4617204   0.7491613  )
        34           H   tau(  34) = (   0.6195353  -0.0706651   0.0753618  )
        35           H   tau(  35) = (   0.0712188   0.2635105   0.7900366  )
        36           H   tau(  36) = (   0.1374175   0.1270852   0.1131432  )
        37           O   tau(  37) = (   0.2933168   0.1491697  -0.0947132  )
        38           O   tau(  38) = (   0.2273921   0.2419278   0.5813907  )
        39           O   tau(  39) = (   0.7981307  -0.0555258  -0.0714098  )
        40           O   tau(  40) = (   0.7321585   0.4460821   0.6027226  )
        41           H   tau(  41) = (   0.3873074   0.1523132  -0.0453915  )
        42           H   tau(  42) = (   0.3214473   0.2386820   0.6305697  )
        43           H   tau(  43) = (   0.8947393  -0.0514627  -0.0282019  )
        44           H   tau(  44) = (   0.8287155   0.4420585   0.6460137  )
        45           O   tau(  45) = (   0.4145216   0.2316853   1.2000971  )
        46           O   tau(  46) = (   0.4808031   0.1594673   0.5247784  )
        47           O   tau(  47) = (  -0.0895567   0.0203648   1.1908800  )
        48           O   tau(  48) = (  -0.0227043   0.3698839   0.5151231  )
        49           O   tau(  49) = (   0.2938621   0.0810376   1.0256388  )
        50           O   tau(  50) = (   0.3594897   0.3100228   0.3508788  )
        51           O   tau(  51) = (   0.7666845   0.2684843   1.0289510  )
        52           O   tau(  52) = (   0.8339070   0.1223296   0.3531802  )

     number of k points=    12
                       cart. coord. in units 2pi/alat
        k(    1) = (   0.0000000   0.0000000   0.0000000), wk =   0.1000000
        k(    2) = (   0.0000000   0.0000000  -0.3702388), wk =   0.1000000
        k(    3) = (   0.0000000   0.5116968   0.0000000), wk =   0.2000000
        k(    4) = (   0.0000000   0.5116968  -0.3702388), wk =   0.2000000
        k(    5) = (   0.0000000   1.0233936   0.0000000), wk =   0.2000000
        k(    6) = (   0.0000000   1.0233936  -0.3702388), wk =   0.2000000
        k(    7) = (  -0.5000000   0.0000000  -0.0490078), wk =   0.1000000
        k(    8) = (  -0.5000000   0.0000000  -0.4192466), wk =   0.1000000
        k(    9) = (  -0.5000000   0.5116968  -0.0490078), wk =   0.2000000
        k(   10) = (  -0.5000000   0.5116968  -0.4192466), wk =   0.2000000
        k(   11) = (  -0.5000000   1.0233936  -0.0490078), wk =   0.2000000
        k(   12) = (  -0.5000000   1.0233936  -0.4192466), wk =   0.2000000

     Dense  grid:   399165 G-vectors     FFT dimensions: ( 120,  45, 160)

     Estimated max dynamical RAM per process >     284.14MB

     Estimated total allocated dynamical RAM >    2273.12MB

     Check: negative/imaginary core charge=   -0.000002    0.000000

     Initial potential from superposition of free atoms

     starting charge  183.99937, renormalised to  184.00000
     Starting wfc are  148 randomized atomic wfcs
     Checking if some PAW data can be deallocated... 

     total cpu time spent up to now is       15.8 secs

     per-process dynamical memory:   275.0 Mb

     Self-consistent Calculation

     iteration #  1     ecut=   100.00 Ry     beta=0.50
     Davidson diagonalization with overlap
     ethr =  1.00E-02,  avg # of iterations =  3.0

     total cpu time spent up to now is       48.7 secs

     total energy              =   -1007.71445500 Ry
     Harris-Foulkes estimate   =   -1010.27842696 Ry
     estimated scf accuracy    <       4.75464367 Ry

     iteration #  2     ecut=   100.00 Ry     beta=0.50
     Davidson diagonalization with overlap
     ethr =  2.58E-03,  avg # of iterations =  2.5

     total cpu time spent up to now is       72.3 secs

     total energy              =   -1008.51438917 Ry
     Harris-Foulkes estimate   =   -1008.97943708 Ry
     estimated scf accuracy    <       0.97266978 Ry

     iteration #  3     ecut=   100.00 Ry     beta=0.50
     Davidson diagonalization with overlap
     ethr =  5.29E-04,  avg # of iterations =  6.6

     total cpu time spent up to now is      100.1 secs

     total energy              =   -1008.74127808 Ry
     Harris-Foulkes estimate   =   -1008.82969785 Ry
     estimated scf accuracy    <       0.22742527 Ry

     iteration #  4     ecut=   100.00 Ry     beta=0.50
     Davidson diagonalization with overlap
     ethr =  1.24E-04,  avg # of iterations =  4.4

     total cpu time spent up to now is      123.4 secs

     total energy              =   -1008.77701408 Ry
     Harris-Foulkes estimate   =   -1008.78582328 Ry
     estimated scf accuracy    <       0.03239816 Ry

     iteration #  5     ecut=   100.00 Ry     beta=0.50
     Davidson diagonalization with overlap
     ethr =  1.76E-05,  avg # of iterations =  9.2

     total cpu time spent up to now is      153.9 secs

     total energy              =   -1008.78188641 Ry
     Harris-Foulkes estimate   =   -1008.78350651 Ry
     estimated scf accuracy    <       0.00435860 Ry

     iteration #  6     ecut=   100.00 Ry     beta=0.50
     Davidson diagonalization with overlap
     ethr =  2.37E-06,  avg # of iterations =  6.2

     total cpu time spent up to now is      184.1 secs

     total energy              =   -1008.78291435 Ry
     Harris-Foulkes estimate   =   -1008.78341038 Ry
     estimated scf accuracy    <       0.00126133 Ry

     iteration #  7     ecut=   100.00 Ry     beta=0.50
     Davidson diagonalization with overlap
     ethr =  6.86E-07,  avg # of iterations =  3.0

     total cpu time spent up to now is      205.7 secs

     total energy              =   -1008.78316828 Ry
     Harris-Foulkes estimate   =   -1008.78323494 Ry
     estimated scf accuracy    <       0.00019754 Ry

     iteration #  8     ecut=   100.00 Ry     beta=0.50
     Davidson diagonalization with overlap
     ethr =  1.07E-07,  avg # of iterations =  2.5

     total cpu time spent up to now is      228.1 secs

     total energy              =   -1008.78321523 Ry
     Harris-Foulkes estimate   =   -1008.78322384 Ry
     estimated scf accuracy    <       0.00003091 Ry

     iteration #  9     ecut=   100.00 Ry     beta=0.50
     Davidson diagonalization with overlap
     ethr =  1.68E-08,  avg # of iterations =  3.0

     total cpu time spent up to now is      252.4 secs

     total energy              =   -1008.78322354 Ry
     Harris-Foulkes estimate   =   -1008.78322537 Ry
     estimated scf accuracy    <       0.00000641 Ry

     iteration # 10     ecut=   100.00 Ry     beta=0.50
     Davidson diagonalization with overlap
     ethr =  3.48E-09,  avg # of iterations =  2.2

     total cpu time spent up to now is      274.1 secs

     total energy              =   -1008.78322493 Ry
     Harris-Foulkes estimate   =   -1008.78322499 Ry
     estimated scf accuracy    <       0.00000062 Ry

     iteration # 11     ecut=   100.00 Ry     beta=0.50
     Davidson diagonalization with overlap
     ethr =  3.37E-10,  avg # of iterations =  3.0

     total cpu time spent up to now is      300.9 secs

     total energy              =   -1008.78322510 Ry
     Harris-Foulkes estimate   =   -1008.78322511 Ry
     estimated scf accuracy    <       0.00000008 Ry

     iteration # 12     ecut=   100.00 Ry     beta=0.50
     Davidson diagonalization with overlap
     ethr =  4.24E-11,  avg # of iterations =  3.0

     total cpu time spent up to now is      324.8 secs

     total energy              =   -1008.78322511 Ry
     Harris-Foulkes estimate   =   -1008.78322512 Ry
     estimated scf accuracy    <       0.00000003 Ry

     iteration # 13     ecut=   100.00 Ry     beta=0.50
     Davidson diagonalization with overlap
     ethr =  1.47E-11,  avg # of iterations =  3.0

     total cpu time spent up to now is      346.6 secs

     End of self-consistent calculation

          k = 0.0000 0.0000 0.0000 ( 49871 PWs)   bands (ev):

   -20.3281 -20.3145 -20.1273 -20.1159 -19.3297 -19.3142 -19.1846 -19.1640
   -18.1168 -18.0872 -17.8453 -17.8291 -17.6503 -17.6182 -17.4586 -17.4473
   -12.8307 -12.8239 -12.5580 -12.5423 -12.0001 -11.9802 -11.8523 -11.8423
    -8.1497  -8.1275  -7.8959  -7.8469  -7.2804  -7.2606  -6.9659  -6.9419
    -6.6708  -6.6476  -6.4906  -6.4650  -6.1273  -6.0335  -5.9346  -5.9068
    -5.5079  -5.4597  -5.2870  -5.2658  -4.9145  -4.8291  -4.5677  -4.4903
    -4.1817  -4.1705  -3.9536  -3.9370  -3.4395  -3.3891  -3.0229  -2.9401
    -2.6694  -2.5063  -2.4948  -2.4688  -2.2434  -2.2131  -2.1805  -2.1253
    -2.0185  -1.9897  -1.8576  -1.7946  -0.8382  -0.7950  -0.7064  -0.6852
    -0.5064  -0.3967  -0.2434  -0.1314   0.1494   0.1726   0.3363   0.3567
     0.7085   0.8445   1.0201   1.0947   1.3928   1.4072   1.4895   1.5047
     1.8811   1.8994   2.4342   2.4841   5.4115   5.4914   5.8308   5.8550
     7.0128   7.1534   7.7385   7.8059   8.6313   8.8294   9.1415   9.1502
     9.2414   9.4664   9.5148   9.6019   9.8023  10.0508

          k = 0.0000 0.0000-0.3702 ( 49838 PWs)   bands (ev):

   -20.3240 -20.3186 -20.1255 -20.1178 -19.3241 -19.3183 -19.1796 -19.1704
   -18.1046 -18.0993 -17.8457 -17.8301 -17.6347 -17.6323 -17.4583 -17.4476
   -12.8301 -12.8234 -12.5567 -12.5452 -11.9928 -11.9864 -11.8492 -11.8460
    -8.1369  -8.1327  -7.8831  -7.8699  -7.2709  -7.2694  -6.9593  -6.9491
    -6.6593  -6.6531  -6.4862  -6.4762  -6.0827  -6.0803  -5.9234  -5.9128
    -5.4862  -5.4791  -5.2842  -5.2726  -4.8760  -4.8700  -4.5355  -4.5328
    -4.1634  -4.1510  -3.9611  -3.9517  -3.4181  -3.4161  -2.9910  -2.9850
    -2.5917  -2.5882  -2.4596  -2.4558  -2.2138  -2.2134  -2.1893  -2.1853
    -2.0114  -2.0062  -1.8169  -1.8159  -0.8203  -0.8149  -0.6964  -0.6925
    -0.4557  -0.4536  -0.1923  -0.1880   0.1772   0.1831   0.3283   0.3357
     0.7717   0.7815   1.0551   1.0587   1.4006   1.4055   1.4963   1.4968
     1.8869   1.8946   2.4563   2.4620   5.4519   5.4523   5.8411   5.8441
     7.0768   7.0833   7.7628   7.7711   8.7312   8.7359   9.1661   9.1703
     9.3197   9.3229   9.4874   9.4935  10.0341  10.0390

          k = 0.0000 0.5117 0.0000 ( 49904 PWs)   bands (ev):

   -20.1873 -20.1749 -19.9894 -19.9789 -19.2837 -19.2715 -19.1423 -19.1247
   -18.0724 -18.0432 -17.8252 -17.8091 -17.6780 -17.6489 -17.4775 -17.4638
   -13.0873 -13.0687 -12.8205 -12.8072 -12.2586 -12.2370 -12.0978 -12.0886
    -8.6610  -8.6372  -8.3689  -8.3283  -7.3452  -7.3339  -7.1260  -7.1071
    -6.3837  -6.3360  -6.2658  -6.1824  -6.0651  -5.9452  -5.9163  -5.8657
    -5.7389  -5.6689  -5.4636  -5.4334  -5.1225  -5.0695  -4.8298  -4.7979
    -4.2589  -4.2225  -3.9917  -3.8627  -3.1605  -3.0942  -2.9174  -2.9012
    -2.6880  -2.5275  -2.4641  -2.4224  -2.1202  -2.0911  -1.9711  -1.9241
    -1.0530  -1.0169  -0.9771  -0.9041  -0.7851  -0.7037  -0.4708  -0.4021
    -0.2787  -0.1957   0.0040   0.0311   0.3521   0.4113   0.5703   0.5843
     0.9471   1.0268   1.2426   1.2771   1.5383   1.5501   1.6334   1.6836
     1.9338   1.9873   2.4338   2.4576   5.3307   5.4689   5.6010   5.7593
     7.0272   7.5390   7.7874   8.0347   8.4038   8.6000   8.7308   8.9314
     9.2169   9.3205   9.4575   9.7258   9.8324  10.1226

          k = 0.0000 0.5117-0.3702 ( 49918 PWs)   bands (ev):

   -20.1844 -20.1779 -19.9880 -19.9805 -19.2794 -19.2746 -19.1390 -19.1292
   -18.0608 -18.0550 -17.8247 -17.8107 -17.6640 -17.6615 -17.4771 -17.4642
   -13.0806 -13.0748 -12.8204 -12.8087 -12.2499 -12.2428 -12.0965 -12.0922
    -8.6489  -8.6449  -8.3578  -8.3446  -7.3410  -7.3370  -7.1236  -7.1117
    -6.3620  -6.3572  -6.2303  -6.2266  -5.9991  -5.9958  -5.9084  -5.9003
    -5.6871  -5.6830  -5.4720  -5.4624  -5.0933  -5.0821  -4.8148  -4.8047
    -4.2402  -4.2390  -3.9331  -3.9315  -3.1324  -3.1305  -2.9138  -2.9072
    -2.5980  -2.5971  -2.4530  -2.4484  -2.1041  -2.0941  -1.9514  -1.9485
    -1.0301  -1.0282  -0.9565  -0.9493  -0.7416  -0.7382  -0.4415  -0.4394
    -0.2289  -0.2245   0.0034   0.0142   0.3906   0.3979   0.5648   0.5703
     0.9854   0.9931   1.2571   1.2613   1.5396   1.5404   1.6604   1.6631
     1.9597   1.9613   2.4436   2.4501   5.3985   5.3998   5.6706   5.6747
     7.2707   7.2750   7.8676   7.8732   8.5370   8.5392   8.8413   8.8468
     9.2509   9.2587   9.6297   9.6348  10.0212  10.0260

          k = 0.0000 1.0234 0.0000 ( 49950 PWs)   bands (ev):

   -19.8971 -19.8861 -19.7027 -19.6952 -19.2376 -19.2354 -19.1120 -19.0992
   -18.0875 -18.0744 -17.9066 -17.8930 -17.6377 -17.6222 -17.4040 -17.3865
   -13.5111 -13.4818 -13.2533 -13.2383 -12.6334 -12.6083 -12.4602 -12.4450
    -9.3000  -9.2770  -9.0090  -8.9887  -7.2913  -7.2734  -7.0873  -7.0640
    -6.4775  -6.4574  -6.2476  -6.2336  -5.9894  -5.9644  -5.9278  -5.8753
    -5.7511  -5.6587  -5.5384  -5.4988  -5.1851  -5.1600  -4.9044  -4.8661
    -4.1133  -4.0668  -3.8636  -3.8234  -3.3041  -3.1614  -3.0347  -2.8996
    -2.7286  -2.6483  -2.5815  -2.5547  -2.0968  -2.0176  -1.8421  -1.7907
    -0.9734  -0.8966  -0.6861  -0.6537   0.1085   0.1345   0.2852   0.3110
     0.3997   0.5327   0.5751   0.7114   1.0839   1.1432   1.2528   1.2844
     1.4594   1.5128   1.7810   1.8315   1.9040   1.9373   2.1504   2.1679
     2.3071   2.3447   2.5849   2.6049   5.5385   5.6386   5.7168   5.8082
     7.1657   7.2593   7.3656   7.5408   8.1099   8.2910   8.5143   8.7440
     9.2442   9.3479   9.5108   9.6548   9.6996   9.9643

          k = 0.0000 1.0234-0.3702 ( 49922 PWs)   bands (ev):

   -19.8968 -19.8865 -19.7022 -19.6958 -19.2369 -19.2358 -19.1117 -19.0999
   -18.0842 -18.0777 -17.9058 -17.8941 -17.6314 -17.6282 -17.4033 -17.3872
   -13.4986 -13.4940 -13.2528 -13.2403 -12.6225 -12.6145 -12.4570 -12.4520
    -9.2893  -9.2837  -9.0075  -8.9944  -7.2842  -7.2785  -7.0830  -7.0706
    -6.4693  -6.4641  -6.2510  -6.2420  -5.9667  -5.9619  -5.9091  -5.9070
    -5.7064  -5.7007  -5.5313  -5.5198  -5.1701  -5.1645  -4.8917  -4.8773
    -4.0923  -4.0904  -3.8437  -3.8428  -3.2413  -3.2384  -2.9689  -2.9665
    -2.6874  -2.6868  -2.5732  -2.5664  -2.0433  -2.0321  -1.8316  -1.8262
    -0.9352  -0.9299  -0.6759  -0.6650   0.1150   0.1246   0.2865   0.2940
     0.4776   0.4835   0.6193   0.6281   1.1417   1.1450   1.2482   1.2559
     1.4798   1.4957   1.8020   1.8060   1.9204   1.9214   2.1547   2.1588
     2.3268   2.3314   2.5907   2.5997   5.5898   5.5917   5.7546   5.7604
     7.2165   7.2180   7.4519   7.4626   8.1756   8.1785   8.6122   8.6170
     9.3225   9.3283   9.5869   9.5924   9.8211   9.8226

          k =-0.5000 0.0000-0.0490 ( 49842 PWs)   bands (ev):

   -20.3182 -20.3065 -20.1414 -20.1265 -19.3279 -19.3109 -19.1843 -19.1617
   -18.1115 -18.0899 -17.8533 -17.8370 -17.6212 -17.5978 -17.4786 -17.4647
   -12.8324 -12.8250 -12.5572 -12.5400 -11.9974 -11.9714 -11.8569 -11.8516
    -8.1488  -8.1039  -7.8995  -7.8744  -7.2666  -7.2499  -6.9631  -6.9378
    -6.6624  -6.6514  -6.5001  -6.4520  -6.0962  -6.0225  -5.9714  -5.9128
    -5.5063  -5.4709  -5.3011  -5.2896  -4.8057  -4.7807  -4.6385  -4.5961
    -4.2144  -4.1745  -4.0042  -3.9844  -3.3230  -3.2478  -3.0598  -3.0437
    -2.5548  -2.4985  -2.4638  -2.4317  -2.2853  -2.2723  -2.2024  -2.1950
    -1.9474  -1.9384  -1.8619  -1.8447  -0.8208  -0.7809  -0.7476  -0.7237
    -0.4306  -0.4110  -0.2526  -0.2358   0.1601   0.2050   0.3100   0.3476
     0.7178   0.8174   1.0933   1.1960   1.3523   1.3615   1.5456   1.5649
     2.0040   2.0089   2.2619   2.2879   5.5035   5.5503   5.7511   5.8310
     7.1799   7.2501   7.4475   7.5808   8.8916   8.9928   9.0154   9.0860
     9.3048   9.3956   9.4408   9.5781  10.1541  10.1667

          k =-0.5000 0.0000-0.4192 ( 49852 PWs)   bands (ev):

   -20.3155 -20.3093 -20.1382 -20.1297 -19.3227 -19.3169 -19.1770 -19.1677
   -18.1047 -18.0989 -17.8519 -17.8362 -17.6118 -17.6078 -17.4778 -17.4653
   -12.8326 -12.8257 -12.5540 -12.5422 -11.9878 -11.9810 -11.8561 -11.8525
    -8.1324  -8.1269  -7.8902  -7.8762  -7.2584  -7.2569  -6.9552  -6.9447
    -6.6661  -6.6584  -6.4783  -6.4682  -6.0723  -6.0686  -5.9355  -5.9226
    -5.4903  -5.4833  -5.3033  -5.2925  -4.8143  -4.8030  -4.6018  -4.5930
    -4.2104  -4.1993  -3.9912  -3.9816  -3.2950  -3.2927  -3.0539  -3.0444
    -2.5186  -2.5167  -2.4502  -2.4478  -2.2740  -2.2685  -2.2188  -2.2120
    -1.9376  -1.9322  -1.8546  -1.8539  -0.8036  -0.7976  -0.7377  -0.7327
    -0.4486  -0.4422  -0.2202  -0.2136   0.1652   0.1707   0.3367   0.3438
     0.7529   0.7652   1.1393   1.1538   1.3564   1.3621   1.5533   1.5592
     2.0056   2.0086   2.2705   2.2818   5.5243   5.5279   5.7885   5.7942
     7.2069   7.2085   7.5118   7.5281   8.8500   8.8558   9.1279   9.1317
     9.3421   9.3468   9.5332   9.5395  10.1074  10.1139

          k =-0.5000 0.5117-0.0490 ( 49916 PWs)   bands (ev):

   -20.1797 -20.1687 -20.0006 -19.9871 -19.2824 -19.2691 -19.1422 -19.1230
   -18.0696 -18.0449 -17.8312 -17.8132 -17.6575 -17.6365 -17.4905 -17.4751
   -13.0922 -13.0746 -12.8105 -12.7977 -12.2812 -12.2517 -12.0863 -12.0703
    -8.6620  -8.6215  -8.3728  -8.3501  -7.3439  -7.3315  -7.1163  -7.1014
    -6.3855  -6.3504  -6.2607  -6.2015  -6.0161  -5.9818  -5.9227  -5.8238
    -5.7283  -5.6395  -5.5017  -5.4369  -5.1191  -5.0772  -4.7953  -4.7775
    -4.3343  -4.2756  -3.9868  -3.9591  -3.0904  -3.0260  -2.8698  -2.8612
    -2.6702  -2.5538  -2.5152  -2.4237  -2.1197  -2.0860  -1.9748  -1.9319
    -1.0676  -1.0037  -0.9781  -0.9194  -0.6949  -0.6342  -0.5580  -0.4981
    -0.2568  -0.2087  -0.0179   0.0211   0.3818   0.4136   0.5422   0.5813
     0.9805   1.0147   1.2397   1.2804   1.5573   1.5850   1.6849   1.7143
     1.9761   2.0016   2.3352   2.3586   5.3435   5.4612   5.6526   5.7484
     7.2447   7.4791   7.6213   7.7754   8.5628   8.6880   8.7547   8.8028
     9.3438   9.3788   9.5844   9.6546   9.9472  10.1277

          k =-0.5000 0.5117-0.4192 ( 49920 PWs)   bands (ev):

   -20.1778 -20.1707 -19.9979 -19.9898 -19.2786 -19.2737 -19.1370 -19.1272
   -18.0614 -18.0552 -17.8281 -17.8140 -17.6490 -17.6455 -17.4897 -17.4757
   -13.0863 -13.0809 -12.8097 -12.7981 -12.2707 -12.2644 -12.0790 -12.0755
    -8.6458  -8.6412  -8.3664  -8.3528  -7.3402  -7.3367  -7.1126  -7.1014
    -6.3835  -6.3791  -6.2184  -6.2140  -6.0010  -5.9995  -5.8840  -5.8748
    -5.6920  -5.6856  -5.4684  -5.4573  -5.1005  -5.0901  -4.7887  -4.7785
    -4.3117  -4.3102  -3.9706  -3.9680  -3.0720  -3.0697  -2.8578  -2.8540
    -2.6086  -2.6072  -2.4729  -2.4677  -2.1119  -2.1007  -1.9521  -1.9484
    -1.0368  -1.0349  -0.9517  -0.9439  -0.6806  -0.6738  -0.5188  -0.5130
    -0.2399  -0.2353   0.0036   0.0150   0.3821   0.3891   0.5666   0.5718
     0.9943   1.0034   1.2552   1.2621   1.5695   1.5704   1.7012   1.7033
     1.9878   1.9901   2.3434   2.3517   5.4048   5.4059   5.6907   5.6950
     7.3472   7.3486   7.7207   7.7327   8.5073   8.5135   8.8770   8.8867
     9.4080   9.4102   9.5883   9.5926   9.9882   9.9982

          k =-0.5000 1.0234-0.0490 ( 49964 PWs)   bands (ev):

   -19.8959 -19.8850 -19.7047 -19.6965 -19.2375 -19.2351 -19.1117 -19.0989
   -18.0906 -18.0773 -17.9047 -17.8902 -17.6347 -17.6214 -17.4051 -17.3876
   -13.5217 -13.4936 -13.2328 -13.2200 -12.6780 -12.6421 -12.4314 -12.4073
    -9.3038  -9.2723  -9.0146  -8.9999  -7.2901  -7.2795  -7.0791  -7.0578
    -6.4684  -6.4577  -6.2509  -6.2091  -6.0057  -5.9253  -5.9126  -5.8738
    -5.7505  -5.7049  -5.5775  -5.5068  -5.1941  -5.1513  -4.9140  -4.8697
    -4.0802  -4.0165  -3.8846  -3.8533  -3.2327  -3.1945  -2.9783  -2.9485
    -2.7758  -2.7600  -2.5188  -2.4950  -2.0715  -2.0256  -1.8286  -1.8087
    -0.9319  -0.8882  -0.6946  -0.6357   0.0902   0.1211   0.2648   0.3136
     0.4465   0.5141   0.5340   0.6403   1.1075   1.1643   1.2172   1.2680
     1.4611   1.5154   1.7957   1.8316   1.9308   1.9586   2.1289   2.1562
     2.2844   2.2999   2.6217   2.6440   5.4745   5.5447   5.8480   5.8860
     7.1590   7.2718   7.3857   7.5078   8.1547   8.2842   8.5267   8.5655
     9.2714   9.4405   9.5019   9.5160   9.8605   9.9291

          k =-0.5000 1.0234-0.4192 ( 49970 PWs)   bands (ev):

   -19.8956 -19.8853 -19.7038 -19.6973 -19.2370 -19.2359 -19.1111 -19.0993
   -18.0873 -18.0811 -17.9029 -17.8915 -17.6297 -17.6264 -17.4044 -17.3882
   -13.5097 -13.5058 -13.2323 -13.2203 -12.6646 -12.6583 -12.4195 -12.4162
    -9.2921  -9.2866  -9.0124  -8.9994  -7.2887  -7.2837  -7.0730  -7.0614
    -6.4656  -6.4615  -6.2283  -6.2202  -5.9732  -5.9682  -5.9004  -5.8981
    -5.7294  -5.7253  -5.5439  -5.5348  -5.1754  -5.1697  -4.8977  -4.8828
    -4.0468  -4.0446  -3.8713  -3.8704  -3.2112  -3.2098  -2.9727  -2.9694
    -2.7607  -2.7600  -2.5037  -2.4988  -2.0793  -2.0688  -1.8039  -1.7978
    -0.9145  -0.9082  -0.6686  -0.6583   0.1030   0.1099   0.2805   0.2869
     0.4373   0.4418   0.6393   0.6402   1.1125   1.1157   1.2507   1.2590
     1.4814   1.4958   1.8153   1.8176   1.9412   1.9448   2.1350   2.1428
     2.2934   2.2974   2.6307   2.6372   5.5094   5.5147   5.8606   5.8636
     7.2139   7.2161   7.4457   7.4568   8.2013   8.2027   8.5364   8.5451
     9.3253   9.3322   9.5829   9.5885   9.9017   9.9082

     highest occupied, lowest unoccupied level (ev):     2.6440    5.3307

!    total energy              =   -1008.78322512 Ry
     Harris-Foulkes estimate   =   -1008.78322512 Ry
     estimated scf accuracy    <          4.0E-09 Ry

     total all-electron energy =     -3752.644272 Ry

     The total energy is the sum of the following terms:

     one-electron contribution =    -522.43078352 Ry
     hartree contribution      =     344.70251913 Ry
     xc contribution           =    -201.82150995 Ry
     ewald contribution        =    -362.24246184 Ry
     Dispersion Correction     =      -0.26293510 Ry
     one-center paw contrib.   =    -266.72805383 Ry

     convergence has been achieved in  13 iterations

     Forces acting on atoms (cartesian axes, Ry/au):

     atom    1 type  1   force =    -0.01235937    0.03732671    0.01541749
     atom    2 type  1   force =    -0.01264229   -0.03708769    0.01537487
     atom    3 type  1   force =    -0.01240088    0.04158111    0.01998008
     atom    4 type  1   force =    -0.01252513   -0.04147987    0.01978222
     atom    5 type  1   force =    -0.01161781    0.00037436    0.02914138
     atom    6 type  1   force =    -0.01204786   -0.00017491    0.02876914
     atom    7 type  1   force =    -0.00828611   -0.00550547    0.02434169
     atom    8 type  1   force =    -0.00876490    0.00534603    0.02426936
     atom    9 type  2   force =     0.01549381    0.06226864   -0.04768821
     atom   10 type  2   force =     0.01546397   -0.06217177   -0.04776359
     atom   11 type  2   force =     0.00937782    0.06211256   -0.04784993
     atom   12 type  2   force =     0.00949505   -0.06205812   -0.04795539
     atom   13 type  3   force =    -0.00629522   -0.06110935   -0.03023528
     atom   14 type  3   force =    -0.00663320    0.06107079   -0.03040473
     atom   15 type  3   force =    -0.00834726   -0.06077920   -0.02962271
     atom   16 type  3   force =    -0.00811584    0.06043160   -0.02969691
     atom   17 type  2   force =    -0.04497439   -0.07947434    0.02971288
     atom   18 type  2   force =    -0.04487542    0.07935308    0.02970576
     atom   19 type  2   force =    -0.04521467   -0.07494554    0.01867449
     atom   20 type  2   force =    -0.04489640    0.07519215    0.01909229
     atom   21 type  3   force =    -0.00776232    0.03396106    0.00338248
     atom   22 type  3   force =    -0.00751406   -0.03361219    0.00292871
     atom   23 type  3   force =    -0.00923018    0.03283795   -0.00237882
     atom   24 type  3   force =    -0.00954151   -0.03329018   -0.00218840
     atom   25 type  2   force =     0.04944750    0.03601838   -0.04381206
     atom   26 type  2   force =     0.04977776   -0.03600727   -0.04327471
     atom   27 type  2   force =     0.05503914    0.03365044   -0.02984583
     atom   28 type  2   force =     0.05516088   -0.03366909   -0.02986560
     atom   29 type  3   force =     0.00027823   -0.00195911   -0.00104902
     atom   30 type  3   force =    -0.00006264    0.00168038   -0.00103040
     atom   31 type  3   force =     0.00005433    0.00167584    0.00164927
     atom   32 type  3   force =    -0.00001708   -0.00150933    0.00158985
     atom   33 type  3   force =     0.00341518   -0.00457345    0.00279417
     atom   34 type  3   force =     0.00369281    0.00447904    0.00244763
     atom   35 type  3   force =     0.00330456   -0.00519102    0.00368942
     atom   36 type  3   force =     0.00349767    0.00531221    0.00363252
     atom   37 type  4   force =    -0.00315521   -0.00057251    0.07197443
     atom   38 type  4   force =    -0.00294490    0.00057682    0.07226547
     atom   39 type  4   force =     0.00428898   -0.00073943    0.07357749
     atom   40 type  4   force =     0.00450849    0.00099712    0.07326461
     atom   41 type  3   force =    -0.00217820   -0.00184811   -0.00100078
     atom   42 type  3   force =    -0.00236615    0.00186751   -0.00109840
     atom   43 type  3   force =    -0.00123853   -0.00154253   -0.00148840
     atom   44 type  3   force =    -0.00110882    0.00161021   -0.00123719
     atom   45 type  4   force =     0.02949322   -0.01591001    0.02972977
     atom   46 type  4   force =     0.02984806    0.01591012    0.02982756
     atom   47 type  4   force =     0.03474559   -0.01817883    0.02446925
     atom   48 type  4   force =     0.03425966    0.01827024    0.02474256
     atom   49 type  4   force =    -0.01170296   -0.00631452   -0.05929069
     atom   50 type  4   force =    -0.01176374    0.00604232   -0.05894083
     atom   51 type  4   force =    -0.02018887   -0.00524944   -0.05414213
     atom   52 type  4   force =    -0.01987078    0.00500663   -0.05436686

     Total force =     0.399839     Total SCF correction =     0.000124


     Computing stress (Cartesian axis) and pressure

          total   stress  (Ry/bohr**3)                   (kbar)     P=   40.42
   0.00041843   0.00000003   0.00006182         61.55      0.00      9.09
   0.00000003   0.00029702   0.00000056          0.00     43.69      0.08
   0.00006182   0.00000056   0.00010896          9.09      0.08     16.03


     Writing output data file scf.save
 
     init_run     :     14.49s CPU     15.12s WALL (       1 calls)
     electrons    :    313.53s CPU    330.97s WALL (       1 calls)
     forces       :      7.68s CPU      7.73s WALL (       1 calls)
     stress       :     29.64s CPU     29.68s WALL (       1 calls)

     Called by init_run:
     wfcinit      :      8.79s CPU      9.33s WALL (       1 calls)
     potinit      :      2.00s CPU      2.06s WALL (       1 calls)

     Called by electrons:
     c_bands      :    272.81s CPU    288.10s WALL (      13 calls)
     sum_band     :     35.13s CPU     36.99s WALL (      13 calls)
     v_of_rho     :      0.73s CPU      0.82s WALL (      14 calls)
     newd         :      1.65s CPU      1.69s WALL (      14 calls)
     PAW_pot      :      2.88s CPU      2.88s WALL (      14 calls)
     mix_rho      :      0.16s CPU      0.17s WALL (      13 calls)

     Called by c_bands:
     init_us_2    :      2.81s CPU      2.82s WALL (     348 calls)
     cegterg      :    262.50s CPU    277.74s WALL (     156 calls)

     Called by sum_band:
     sum_band:bec :      0.03s CPU      0.03s WALL (     156 calls)
     addusdens    :      1.71s CPU      1.74s WALL (      13 calls)

     Called by *egterg:
     h_psi        :    164.43s CPU    175.43s WALL (     788 calls)
     s_psi        :     20.36s CPU     20.36s WALL (     788 calls)
     g_psi        :      1.21s CPU      1.21s WALL (     620 calls)
     cdiaghg      :     18.82s CPU     18.85s WALL (     776 calls)

     Called by h_psi:
     h_psi:pot    :    162.81s CPU    173.79s WALL (     788 calls)
     h_psi:calbec :     21.59s CPU     21.70s WALL (     788 calls)
     vloc_psi     :    120.95s CPU    131.80s WALL (     788 calls)
     add_vuspsi   :     20.27s CPU     20.28s WALL (     788 calls)

     General routines
     calbec       :     34.50s CPU     34.66s WALL (    1004 calls)
     fft          :      1.73s CPU      1.90s WALL (     206 calls)
     fftw         :    131.55s CPU    143.78s WALL (  111070 calls)
 
     Parallel routines
     fft_scatter  :     52.54s CPU     59.75s WALL (  111276 calls)
 
     PWSCF        :  6m10.05s CPU     6m29.30s WALL

 
   This run was terminated on:   4:49:34   4Nov2017            

=------------------------------------------------------------------------------=
   JOB DONE.
=------------------------------------------------------------------------------=
