
     Program PWSCF v.6.1 (svn rev. 13369) starts on  4Nov2017 at  6: 0:33 

     This program is part of the open-source Quantum ESPRESSO suite
     for quantum simulation of materials; please cite
         "P. Giannozzi et al., J. Phys.:Condens. Matter 21 395502 (2009);
          URL http://www.quantum-espresso.org", 
     in publications or presentations arising from this work. More details at
     http://www.quantum-espresso.org/quote

     Parallel version (MPI), running on     8 processors
     R & G space division:  proc/nbgrp/npool/nimage =       8
     Waiting for input...
     Reading input from standard input

     Current dimensions of program PWSCF are:
     Max number of different atomic species (ntypx) = 10
     Max number of k-points (npk) =  40000
     Max angular momentum in pseudopotentials (lmaxx) =  3
               file C.pbe-n-kjpaw_psl.0.1.UPF: wavefunction(s)  2P renormalized
               file N.pbe-n-kjpaw_psl.0.1.UPF: wavefunction(s)  2P renormalized
               file H.pbe-kjpaw_psl.0.1.UPF: wavefunction(s)  1S renormalized
               file O.pbe-n-kjpaw_psl.0.1.UPF: wavefunction(s)  2P renormalized

     -------------------------------------
     Parameters for Dispersion Correction:
     -------------------------------------
       atom      VdW radius       C_6     

        C          2.744         60.710
        N          2.640         42.670
        H          1.892          4.857
        O          2.536         24.284

     Subspace diagonalization in iterative solution of the eigenvalue problem:
     a serial algorithm will be used

 
     Parallelization info
     --------------------
     sticks:   dense  smooth     PW     G-vecs:    dense   smooth      PW
     Min        1070    1070    279               167734   167734   22395
     Max        1072    1072    280               167737   167737   22400
     Sum        8569    8569   2239              1341887  1341887  179183
 


     bravais-lattice index     =            0
     lattice parameter (alat)  =      12.3851  a.u.
     unit-cell volume          =    9932.8199 (a.u.)^3
     number of atoms/cell      =          168
     number of atomic types    =            4
     number of electrons       =       440.00
     number of Kohn-Sham states=          264
     kinetic-energy cutoff     =     100.0000  Ry
     charge density cutoff     =     400.0000  Ry
     convergence threshold     =      1.0E-08
     mixing beta               =       0.5000
     number of iterations used =            8  plain     mixing
     Exchange-correlation      =  SLA  PW   PBX  PBC ( 1  4  3  4 0 0)

     celldm(1)=  12.385076  celldm(2)=   0.000000  celldm(3)=   0.000000
     celldm(4)=   0.000000  celldm(5)=   0.000000  celldm(6)=   0.000000

     crystal axes: (cart. coord. in units of alat)
               a(1) = (   1.000000   0.000000   0.000000 )  
               a(2) = (   0.000000   1.755123   0.000000 )  
               a(3) = (   0.000000   0.000000   2.978990 )  

     reciprocal axes: (cart. coord. in units 2 pi/alat)
               b(1) = (  1.000000  0.000000  0.000000 )  
               b(2) = (  0.000000  0.569761  0.000000 )  
               b(3) = (  0.000000  0.000000  0.335684 )  


     PseudoPot. # 1 for  C read from file:
     /scratch/ahofstet/pseudo/C.pbe-n-kjpaw_psl.0.1.UPF
     MD5 check sum: 430fe95172b1e11ef3f8ed03bac87931
     Pseudo is Projector augmented-wave + core cor, Zval =  4.0
     Generated using "atomic" code by A. Dal Corso  v.5.0.99 svn rev. 10869
     Shape of augmentation charge: BESSEL
     Using radial grid of 1073 points,  4 beta functions with: 
                l(1) =   0
                l(2) =   0
                l(3) =   1
                l(4) =   1
     Q(r) pseudized with 0 coefficients 


     PseudoPot. # 2 for  N read from file:
     /scratch/ahofstet/pseudo/N.pbe-n-kjpaw_psl.0.1.UPF
     MD5 check sum: f73187c8b701007e77325f868c9291d7
     Pseudo is Projector augmented-wave + core cor, Zval =  5.0
     Generated using "atomic" code by A. Dal Corso  v.5.0.99 svn rev. 10869
     Shape of augmentation charge: PSQ
     Using radial grid of 1085 points,  4 beta functions with: 
                l(1) =   0
                l(2) =   0
                l(3) =   1
                l(4) =   1
     Q(r) pseudized with 0 coefficients 


     PseudoPot. # 3 for  H read from file:
     /scratch/ahofstet/pseudo/H.pbe-kjpaw_psl.0.1.UPF
     MD5 check sum: 94e484f906d9e9773b2f6e52662335b2
     Pseudo is Projector augmented-wave, Zval =  1.0
     Generated using "atomic" code by A. Dal Corso  v.5.0.99 svn rev. 10869
     Shape of augmentation charge: PSQ
     Using radial grid of  929 points,  2 beta functions with: 
                l(1) =   0
                l(2) =   0
     Q(r) pseudized with 0 coefficients 


     PseudoPot. # 4 for  O read from file:
     /scratch/ahofstet/pseudo/O.pbe-n-kjpaw_psl.0.1.UPF
     MD5 check sum: 3f94a2996a3169367d6eb21d9b593f20
     Pseudo is Projector augmented-wave + core cor, Zval =  6.0
     Generated using "atomic" code by A. Dal Corso  v.5.0.99 svn rev. 10869
     Shape of augmentation charge: BESSEL
     Using radial grid of 1095 points,  4 beta functions with: 
                l(1) =   0
                l(2) =   0
                l(3) =   1
                l(4) =   1
     Q(r) pseudized with 0 coefficients 


     atomic species   valence    mass     pseudopotential
        C              4.00    12.01070      C( 1.00)
        N              5.00    14.00670      N( 1.00)
        H              1.00     1.00794      H( 1.00)
        O              6.00    15.99940      O( 1.00)

      4 Sym. Ops. (no inversion) found ( 3 have fractional translation)



   Cartesian axes

     site n.     atom                  positions (alat units)
         1           N   tau(   1) = (   0.1944807   0.4900479   1.7906119  )
         2           N   tau(   2) = (   0.3055193   1.2650750   0.3011171  )
         3           N   tau(   3) = (   0.8055193   1.3676093   2.6778725  )
         4           N   tau(   4) = (   0.6944807   0.3875136   1.1883777  )
         5           N   tau(   5) = (   0.3883420   0.7754997   1.7566817  )
         6           N   tau(   6) = (   0.1116580   0.9796232   0.2671869  )
         7           N   tau(   7) = (   0.6116580   1.6530611   2.7118027  )
         8           N   tau(   8) = (   0.8883420   0.1020618   1.2223079  )
         9           O   tau(   9) = (   0.4024757   0.5933425   2.0625133  )
        10           O   tau(  10) = (   0.0975243   1.1617804   0.5730185  )
        11           O   tau(  11) = (   0.5975243   1.4709039   2.4059711  )
        12           O   tau(  12) = (   0.9024757   0.2842190   0.9164763  )
        13           O   tau(  13) = (   0.0501922   0.4857095   1.4649609  )
        14           O   tau(  14) = (   0.4498078   1.2694134  -0.0245339  )
        15           O   tau(  15) = (   0.9498078   1.3632710   3.0035235  )
        16           O   tau(  16) = (   0.5501922   0.3918519   1.5140287  )
        17           O   tau(  17) = (   0.2992602   0.8633626   1.4225508  )
        18           O   tau(  18) = (   0.2007398   0.8917603   2.9120456  )
        19           O   tau(  19) = (   0.7007398   1.7409240   0.0669440  )
        20           O   tau(  20) = (   0.7992602   0.0141989   1.5564388  )
        21           C   tau(  21) = (   0.3360260   0.6155639   1.8908883  )
        22           C   tau(  22) = (   0.1639740   1.1395590   0.4013935  )
        23           C   tau(  23) = (   0.6639740   1.4931254   2.5775961  )
        24           C   tau(  24) = (   0.8360260   0.2619975   1.0881013  )
        25           C   tau(  25) = (   0.1592889   0.5600596   1.5957308  )
        26           C   tau(  26) = (   0.3407111   1.1950633   0.1062360  )
        27           C   tau(  27) = (   0.8407111   1.4376210   2.8727536  )
        28           C   tau(  28) = (   0.6592889   0.3175019   1.3832588  )
        29           C   tau(  29) = (   0.2890628   0.7547716   1.5731350  )
        30           C   tau(  30) = (   0.2109372   1.0003513   0.0836402  )
        31           C   tau(  31) = (   0.7109372   1.6323330   2.8953494  )
        32           C   tau(  32) = (   0.7890628   0.1227899   1.4058546  )
        33           C   tau(  33) = (   0.1077778   0.2997179   1.8720637  )
        34           C   tau(  34) = (   0.3922222   1.4554050   0.3825689  )
        35           C   tau(  35) = (   0.8922222   1.1772793   2.5964207  )
        36           C   tau(  36) = (   0.6077778   0.5778436   1.1069259  )
        37           H   tau(  37) = (   0.0275094   0.2325306   1.7409898  )
        38           H   tau(  38) = (   0.4724906   1.5225923   0.2514950  )
        39           H   tau(  39) = (   0.9724906   1.1100921   2.7274946  )
        40           H   tau(  40) = (   0.5275094   0.6450308   1.2379998  )
        41           C   tau(  41) = (   0.9502587   0.3389252   2.0404171  )
        42           C   tau(  42) = (   0.5497413   1.4161977   0.5509223  )
        43           C   tau(  43) = (   0.0497413   1.2164866   2.4280673  )
        44           C   tau(  44) = (   0.4502587   0.5386363   0.9385725  )
        45           H   tau(  45) = (   0.8378511   0.4525267   1.9892530  )
        46           H   tau(  46) = (   0.6621489   1.3025962   0.4997582  )
        47           H   tau(  47) = (   0.1621489   1.3300881   2.4792314  )
        48           H   tau(  48) = (   0.3378511   0.4250348   0.9897366  )
        49           H   tau(  49) = (   1.0286716   0.4010741   2.1755723  )
        50           H   tau(  50) = (   0.4713284   1.3540488   0.6860775  )
        51           H   tau(  51) = (  -0.0286716   1.2786356   2.2929121  )
        52           H   tau(  52) = (   0.5286716   0.4764873   0.8034173  )
        53           C   tau(  53) = (   0.8450930   0.1371778   2.0942610  )
        54           C   tau(  54) = (   0.6549070   1.6179451   0.6047662  )
        55           C   tau(  55) = (   0.1549070   1.0147393   2.3742234  )
        56           C   tau(  56) = (   0.3450930   0.7403836   0.8847286  )
        57           H   tau(  57) = (   0.7304107   0.1624191   2.2140354  )
        58           H   tau(  58) = (   0.7695893   1.5927038   0.7245406  )
        59           H   tau(  59) = (   0.2695893   1.0399805   2.2544490  )
        60           H   tau(  60) = (   0.2304107   0.7151424   0.7649542  )
        61           H   tau(  61) = (   0.7635100   0.0813788   1.9583276  )
        62           H   tau(  62) = (   0.7364900   1.6737441   0.4688328  )
        63           H   tau(  63) = (   0.2364900   0.9589403   2.5101568  )
        64           H   tau(  64) = (   0.2635100   0.7961826   1.0206620  )
        65           C   tau(  65) = (   1.0003951   1.7310769   2.1612065  )
        66           C   tau(  66) = (   0.4996049   0.0240460   0.6717117  )
        67           C   tau(  67) = (  -0.0003951   0.8535154   2.3072779  )
        68           C   tau(  68) = (   0.5003951   0.9016075   0.8177831  )
        69           H   tau(  69) = (   0.9215972   1.5860033   2.1899935  )
        70           H   tau(  70) = (   0.5784028   0.1691196   0.7004987  )
        71           H   tau(  71) = (   0.0784028   0.7084418   2.2784909  )
        72           H   tau(  72) = (   0.4215972   1.0466811   0.7889961  )
        73           H   tau(  73) = (   0.0708227   1.7776365   2.3069850  )
        74           H   tau(  74) = (   0.4291773  -0.0225136   0.8174902  )
        75           H   tau(  75) = (   0.9291773   0.9000750   2.1614994  )
        76           H   tau(  76) = (   0.5708227   0.8550479   0.6720046  )
        77           C   tau(  77) = (   0.1684934   1.7014016   2.0012657  )
        78           C   tau(  78) = (   0.3315066   0.0537213   0.5117709  )
        79           C   tau(  79) = (   0.8315066   0.8238402   2.4672187  )
        80           C   tau(  80) = (   0.6684934   0.9312827   0.9777239  )
        81           H   tau(  81) = (   0.1006014   1.6349754   1.8624032  )
        82           H   tau(  82) = (   0.3993986   0.1201475   0.3729084  )
        83           H   tau(  83) = (   0.8993986   0.7574139   2.6060812  )
        84           H   tau(  84) = (   0.6006014   0.9977090   1.1165864  )
        85           H   tau(  85) = (   0.2834003   1.5928316   2.0576422  )
        86           H   tau(  86) = (   0.2165997   0.1622913   0.5681474  )
        87           H   tau(  87) = (   0.7165997   0.7152702   2.4108422  )
        88           H   tau(  88) = (   0.7834003   1.0398527   0.9213474  )
        89           C   tau(  89) = (   0.2715646   0.1483981   1.9433150  )
        90           C   tau(  90) = (   0.2284354   1.6067248   0.4538202  )
        91           C   tau(  91) = (   0.7284354   1.0259595   2.5251695  )
        92           C   tau(  92) = (   0.7715646   0.7291634   1.0356746  )
        93           H   tau(  93) = (   0.3516109   0.2130121   2.0758337  )
        94           H   tau(  94) = (   0.1483891   1.5421109   0.5863389  )
        95           H   tau(  95) = (   0.6483891   1.0905735   2.3926507  )
        96           H   tau(  96) = (   0.8516109   0.6645494   0.9031559  )
        97           H   tau(  97) = (   0.3850396   0.1251803   1.8219366  )
        98           H   tau(  98) = (   0.1149604   1.6299426   0.3324418  )
        99           H   tau(  99) = (   0.6149604   1.0027417   2.6465479  )
       100           H   tau( 100) = (   0.8850396   0.7523812   1.1570531  )
       101           C   tau( 101) = (   0.5415668   0.9305112   1.8077888  )
       102           C   tau( 102) = (   0.9584332   0.8246118   0.3182940  )
       103           C   tau( 103) = (   0.4584332   0.0529497   2.6606956  )
       104           C   tau( 104) = (   0.0415668   1.7021732   1.1712008  )
       105           H   tau( 105) = (   0.5948112   0.8895175   1.9618196  )
       106           H   tau( 106) = (   0.9051888   0.8656054   0.4723248  )
       107           H   tau( 107) = (   0.4051888   0.0119560   2.5066648  )
       108           H   tau( 108) = (   0.0948112   1.7431669   1.0171700  )
       109           C   tau( 109) = (   0.4472099   1.1440465   1.8160753  )
       110           C   tau( 110) = (   0.0527901   0.6110764   0.3265805  )
       111           C   tau( 111) = (   0.5527901   0.2664851   2.6524091  )
       112           C   tau( 112) = (   0.9472099   1.4886378   1.1629143  )
       113           H   tau( 113) = (   0.3189981   1.1437850   1.9241592  )
       114           H   tau( 114) = (   0.1810019   0.6113379   0.4346644  )
       115           H   tau( 115) = (   0.6810019   0.2662236   2.5443252  )
       116           H   tau( 116) = (   0.8189981   1.4888993   1.0548304  )
       117           H   tau( 117) = (   0.3864412   1.1815724   1.6641810  )
       118           H   tau( 118) = (   0.1135588   0.5735505   0.1746862  )
       119           H   tau( 119) = (   0.6135588   0.3040110   2.8043034  )
       120           H   tau( 120) = (   0.8864412   1.4511120   1.3148086  )
       121           C   tau( 121) = (   0.6104096   1.2995083   1.8772753  )
       122           C   tau( 122) = (   0.8895904   0.4556146   0.3877805  )
       123           C   tau( 123) = (   0.3895904   0.4219469   2.5912091  )
       124           C   tau( 124) = (   0.1104096   1.3331760   1.1017143  )
       125           H   tau( 125) = (   0.5449583   1.4538906   1.8809616  )
       126           H   tau( 126) = (   0.9550417   0.3012323   0.3914668  )
       127           H   tau( 127) = (   0.4550417   0.5763292   2.5875228  )
       128           H   tau( 128) = (   0.0449583   1.1787937   1.0980280  )
       129           H   tau( 129) = (   0.6628298   1.2660688   2.0337750  )
       130           H   tau( 130) = (   0.8371702   0.4890541   0.5442802  )
       131           H   tau( 131) = (   0.3371702   0.3885074   2.4347094  )
       132           H   tau( 132) = (   0.1628298   1.3666155   0.9452146  )
       133           C   tau( 133) = (   0.7915069   1.2918218   1.7298997  )
       134           C   tau( 134) = (   0.7084931   0.4633011   0.2404049  )
       135           C   tau( 135) = (   0.2084931   0.4142604   2.7385847  )
       136           C   tau( 136) = (   0.2915069   1.3408625   1.2490899  )
       137           H   tau( 137) = (   0.7389731   1.3369832   1.5765331  )
       138           H   tau( 138) = (   0.7610269   0.4181397   0.0870383  )
       139           H   tau( 139) = (   0.2610269   0.4594218   2.8919513  )
       140           H   tau( 140) = (   0.2389731   1.2957011   1.4024565  )
       141           H   tau( 141) = (   0.9069253   1.4044672   1.7746492  )
       142           H   tau( 142) = (   0.5930747   0.3506557   0.2851544  )
       143           H   tau( 143) = (   0.0930747   0.5269058   2.6938352  )
       144           H   tau( 144) = (   0.4069253   1.2282171   1.2043404  )
       145           C   tau( 145) = (   0.8836615   1.0775309   1.7201273  )
       146           C   tau( 146) = (   0.6163385   0.6775920   0.2306325  )
       147           C   tau( 147) = (   0.1163385   0.1999694   2.7483571  )
       148           C   tau( 148) = (   0.3836615   1.5551535   1.2588623  )
       149           H   tau( 149) = (   0.9456153   1.0373994   1.8713572  )
       150           H   tau( 150) = (   0.5543847   0.7177235   0.3818624  )
       151           H   tau( 151) = (   0.0543847   0.1598379   2.5971272  )
       152           H   tau( 152) = (   0.4456153   1.5952850   1.1076324  )
       153           H   tau( 153) = (   1.0112912   1.0726249   1.6114952  )
       154           H   tau( 154) = (   0.4887088   0.6824980   0.1220004  )
       155           H   tau( 155) = (  -0.0112912   0.1950635   2.8569893  )
       156           H   tau( 156) = (   0.5112912   1.5600594   1.3674945  )
       157           C   tau( 157) = (   0.7222553   0.9199260   1.6594226  )
       158           C   tau( 158) = (   0.7777447   0.8351969   0.1699278  )
       159           C   tau( 159) = (   0.2777447   0.0423645   2.8090618  )
       160           C   tau( 160) = (   0.2222553   1.7127584   1.3195670  )
       161           H   tau( 161) = (   0.7838789   0.7638350   1.6587071  )
       162           H   tau( 162) = (   0.7161211   0.9912879   0.1692123  )
       163           H   tau( 163) = (   0.2161211   1.6413965   2.8097773  )
       164           H   tau( 164) = (   0.2838789   0.1137264   1.3202825  )
       165           H   tau( 165) = (   0.6667476   0.9522464   1.5041000  )
       166           H   tau( 166) = (   0.8332524   0.8028765   0.0146052  )
       167           H   tau( 167) = (   0.3332524   0.0746849   2.9643844  )
       168           H   tau( 168) = (   0.1667476   1.6804380   1.4748896  )

     number of k points=     4
                       cart. coord. in units 2pi/alat
        k(    1) = (   0.0000000   0.0000000   0.0000000), wk =   0.3333333
        k(    2) = (   0.0000000  -0.2848803   0.0000000), wk =   0.3333333
        k(    3) = (   0.3333333   0.0000000   0.0000000), wk =   0.6666667
        k(    4) = (   0.3333333  -0.2848803   0.0000000), wk =   0.6666667

     Dense  grid:  1341887 G-vectors     FFT dimensions: (  80, 144, 240)

     Estimated max dynamical RAM per process >    1494.92MB

     Estimated total allocated dynamical RAM >   11959.32MB

     Check: negative/imaginary core charge=   -0.000002    0.000000

     Initial potential from superposition of free atoms

     starting charge  439.99659, renormalised to  440.00000
     Starting wfc are  408 randomized atomic wfcs
     Checking if some PAW data can be deallocated... 

     total cpu time spent up to now is       68.6 secs

     per-process dynamical memory:   843.0 Mb

     Self-consistent Calculation

     iteration #  1     ecut=   100.00 Ry     beta=0.50
     Davidson diagonalization with overlap
     ethr =  1.00E-02,  avg # of iterations =  4.0

     total cpu time spent up to now is      280.7 secs

     total energy              =   -1933.75606310 Ry
     Harris-Foulkes estimate   =   -1943.54506368 Ry
     estimated scf accuracy    <      18.41988702 Ry

     iteration #  2     ecut=   100.00 Ry     beta=0.50
     Davidson diagonalization with overlap
     ethr =  4.19E-03,  avg # of iterations =  2.5

     total cpu time spent up to now is      381.0 secs

     total energy              =   -1934.82601577 Ry
     Harris-Foulkes estimate   =   -1936.10598951 Ry
     estimated scf accuracy    <       2.54801777 Ry

     iteration #  3     ecut=   100.00 Ry     beta=0.50
     Davidson diagonalization with overlap
     ethr =  5.79E-04,  avg # of iterations =  5.0

     total cpu time spent up to now is      622.5 secs

     total energy              =   -1937.09769503 Ry
     Harris-Foulkes estimate   =   -1938.35651313 Ry
     estimated scf accuracy    <       3.55864121 Ry

     iteration #  4     ecut=   100.00 Ry     beta=0.50
     Davidson diagonalization with overlap
     ethr =  5.79E-04,  avg # of iterations =  2.8

     total cpu time spent up to now is      721.0 secs

     total energy              =   -1936.39773681 Ry
     Harris-Foulkes estimate   =   -1937.27505489 Ry
     estimated scf accuracy    <       1.21495706 Ry

     iteration #  5     ecut=   100.00 Ry     beta=0.50
     Davidson diagonalization with overlap
     ethr =  2.76E-04,  avg # of iterations =  4.8

     total cpu time spent up to now is      946.0 secs

     total energy              =   -1937.16061383 Ry
     Harris-Foulkes estimate   =   -1938.24634482 Ry
     estimated scf accuracy    <       2.97024171 Ry

     iteration #  6     ecut=   100.00 Ry     beta=0.50
     Davidson diagonalization with overlap
     ethr =  2.76E-04,  avg # of iterations =  1.5

     total cpu time spent up to now is     1041.5 secs

     total energy              =   -1936.73715761 Ry
     Harris-Foulkes estimate   =   -1937.26092842 Ry
     estimated scf accuracy    <       1.06797662 Ry

     iteration #  7     ecut=   100.00 Ry     beta=0.50
     Davidson diagonalization with overlap
     ethr =  2.43E-04,  avg # of iterations =  6.0

     total cpu time spent up to now is     1222.1 secs

     total energy              =   -1937.33675592 Ry
     Harris-Foulkes estimate   =   -1937.36882451 Ry
     estimated scf accuracy    <       0.19405724 Ry

     iteration #  8     ecut=   100.00 Ry     beta=0.50
     Davidson diagonalization with overlap
     ethr =  4.41E-05,  avg # of iterations =  2.0

     total cpu time spent up to now is     1320.1 secs

     total energy              =   -1937.26780935 Ry
     Harris-Foulkes estimate   =   -1937.34007442 Ry
     estimated scf accuracy    <       0.13297331 Ry

     iteration #  9     ecut=   100.00 Ry     beta=0.50
     Davidson diagonalization with overlap
     ethr =  3.02E-05,  avg # of iterations = 10.0

     total cpu time spent up to now is     1492.0 secs

     total energy              =   -1937.31219431 Ry
     Harris-Foulkes estimate   =   -1937.31602884 Ry
     estimated scf accuracy    <       0.00982441 Ry

     iteration # 10     ecut=   100.00 Ry     beta=0.50
     Davidson diagonalization with overlap
     ethr =  2.23E-06,  avg # of iterations = 12.8

     total cpu time spent up to now is     1625.5 secs

     total energy              =   -1937.31190354 Ry
     Harris-Foulkes estimate   =   -1937.31310416 Ry
     estimated scf accuracy    <       0.00267042 Ry

     iteration # 11     ecut=   100.00 Ry     beta=0.50
     Davidson diagonalization with overlap
     ethr =  6.07E-07,  avg # of iterations =  4.8

     total cpu time spent up to now is     1803.6 secs

     total energy              =   -1937.31353067 Ry
     Harris-Foulkes estimate   =   -1937.31355725 Ry
     estimated scf accuracy    <       0.00035547 Ry

     iteration # 12     ecut=   100.00 Ry     beta=0.50
     Davidson diagonalization with overlap
     ethr =  8.08E-08,  avg # of iterations =  1.0

     total cpu time spent up to now is     1898.2 secs

     total energy              =   -1937.31342897 Ry
     Harris-Foulkes estimate   =   -1937.31354495 Ry
     estimated scf accuracy    <       0.00030179 Ry

     iteration # 13     ecut=   100.00 Ry     beta=0.50
     Davidson diagonalization with overlap
     ethr =  6.86E-08,  avg # of iterations =  3.0

     total cpu time spent up to now is     2001.0 secs

     total energy              =   -1937.31342708 Ry
     Harris-Foulkes estimate   =   -1937.31345518 Ry
     estimated scf accuracy    <       0.00005755 Ry

     iteration # 14     ecut=   100.00 Ry     beta=0.50
     Davidson diagonalization with overlap
     ethr =  1.31E-08,  avg # of iterations =  4.0

     total cpu time spent up to now is     2188.3 secs

     total energy              =   -1937.31346915 Ry
     Harris-Foulkes estimate   =   -1937.31347100 Ry
     estimated scf accuracy    <       0.00001468 Ry

     iteration # 15     ecut=   100.00 Ry     beta=0.50
     Davidson diagonalization with overlap
     ethr =  3.34E-09,  avg # of iterations =  1.0

     total cpu time spent up to now is     2282.8 secs

     total energy              =   -1937.31346488 Ry
     Harris-Foulkes estimate   =   -1937.31346936 Ry
     estimated scf accuracy    <       0.00001110 Ry

     iteration # 16     ecut=   100.00 Ry     beta=0.50
     Davidson diagonalization with overlap
     ethr =  2.52E-09,  avg # of iterations =  3.0

     total cpu time spent up to now is     2391.2 secs

     total energy              =   -1937.31346575 Ry
     Harris-Foulkes estimate   =   -1937.31346619 Ry
     estimated scf accuracy    <       0.00000128 Ry

     iteration # 17     ecut=   100.00 Ry     beta=0.50
     Davidson diagonalization with overlap
     ethr =  2.91E-10,  avg # of iterations =  4.0

     total cpu time spent up to now is     2580.4 secs

     total energy              =   -1937.31346672 Ry
     Harris-Foulkes estimate   =   -1937.31346679 Ry
     estimated scf accuracy    <       0.00000015 Ry

     iteration # 18     ecut=   100.00 Ry     beta=0.50
     Davidson diagonalization with overlap
     ethr =  3.30E-11,  avg # of iterations =  1.5

     total cpu time spent up to now is     2675.5 secs

     total energy              =   -1937.31346671 Ry
     Harris-Foulkes estimate   =   -1937.31346673 Ry
     estimated scf accuracy    <       0.00000003 Ry

     iteration # 19     ecut=   100.00 Ry     beta=0.50
     Davidson diagonalization with overlap
     ethr =  6.08E-12,  avg # of iterations =  4.0

     total cpu time spent up to now is     2887.9 secs

     total energy              =   -1937.31346674 Ry
     Harris-Foulkes estimate   =   -1937.31346675 Ry
     estimated scf accuracy    <       0.00000004 Ry

     iteration # 20     ecut=   100.00 Ry     beta=0.50
     Davidson diagonalization with overlap
     ethr =  6.08E-12,  avg # of iterations =  1.0

     total cpu time spent up to now is     2982.2 secs

     total energy              =   -1937.31346674 Ry
     Harris-Foulkes estimate   =   -1937.31346675 Ry
     estimated scf accuracy    <       0.00000002 Ry

     iteration # 21     ecut=   100.00 Ry     beta=0.50
     Davidson diagonalization with overlap
     ethr =  3.42E-12,  avg # of iterations =  3.2

     total cpu time spent up to now is     3140.3 secs

     End of self-consistent calculation

          k = 0.0000 0.0000 0.0000 (167667 PWs)   bands (ev):

   -21.5837 -21.5836 -21.5266 -21.5265 -20.7465 -20.7465 -20.7067 -20.7066
   -20.3818 -20.3818 -20.3749 -20.3749 -18.8649 -18.8647 -18.8195 -18.8193
   -17.4748 -17.4741 -17.4724 -17.4717 -14.9175 -14.8964 -14.8910 -14.8688
   -14.4258 -14.4241 -14.4102 -14.4073 -13.0120 -13.0098 -13.0008 -12.9997
   -12.3420 -12.3355 -12.3225 -12.3192 -12.1709 -12.1653 -12.1568 -12.1554
   -12.0778 -12.0705 -12.0648 -12.0586 -11.1839 -11.1764 -11.1191 -11.1123
   -10.2712 -10.2593 -10.2376 -10.2272  -9.6149  -9.5988  -9.5898  -9.5710
    -9.1277  -9.1273  -9.1088  -9.1068  -8.9047  -8.8941  -8.8792  -8.8705
    -8.7809  -8.7732  -8.7395  -8.7359  -8.2340  -8.2237  -8.1882  -8.1569
    -7.6810  -7.6337  -7.5318  -7.4820  -7.3340  -7.2956  -7.2942  -7.2842
    -6.7399  -6.7337  -6.7291  -6.7238  -6.4816  -6.4629  -6.3767  -6.3669
    -6.2034  -6.1930  -6.1743  -6.1489  -5.6677  -5.5744  -5.5252  -5.5137
    -5.3451  -5.3444  -5.2199  -5.2130  -5.1695  -5.1343  -5.1187  -5.0816
    -5.0657  -5.0468  -5.0308  -4.9985  -4.8894  -4.8746  -4.8462  -4.8136
    -4.7622  -4.7489  -4.6915  -4.6754  -4.6678  -4.6569  -4.6160  -4.5989
    -4.5520  -4.5500  -4.5391  -4.5221  -4.4844  -4.4468  -4.4321  -4.3727
    -4.3431  -4.2850  -4.2729  -4.2077  -4.1530  -4.1429  -3.9394  -3.9120
    -3.7791  -3.7635  -3.7298  -3.7191  -3.5443  -3.5295  -3.4954  -3.4931
    -3.2701  -3.2590  -3.2417  -3.1810  -3.1731  -3.1670  -3.1397  -3.1333
    -3.1090  -3.0575  -3.0231  -3.0061  -2.9435  -2.9236  -2.9225  -2.9107
    -2.6796  -2.6733  -2.5294  -2.5008  -2.3950  -2.3874  -2.3055  -2.2788
    -2.2137  -2.1725  -2.1556  -2.1466  -2.1046  -2.0942  -2.0765  -2.0517
    -1.9645  -1.8442  -1.7810  -1.7146  -1.6656  -1.6003  -1.5831  -1.5683
    -1.5391  -1.5310  -1.5300  -1.5173  -1.4996  -1.4970  -1.4577  -1.4500
    -1.4339  -1.4083  -1.3924  -1.3789  -1.3412  -1.2761  -1.2460  -1.2420
    -1.1888  -1.1040  -1.0585  -1.0330  -0.8564  -0.8523  -0.8437  -0.8168
    -0.7331  -0.7298  -0.6969  -0.6927  -0.4474  -0.4141  -0.3540  -0.3264
    -0.1843  -0.1796  -0.0669  -0.0580   2.7814   2.7902   2.9873   2.9923
     5.5830   5.7474   5.7671   5.7806   5.7860   5.8136   5.8547   6.2150
     6.2208   6.2565   6.4280   6.4942   6.5364   6.5628   6.5934   6.6775
     6.8133   6.8178   6.9645   7.1842   7.2033   7.2064   7.2465   7.4840
     7.4911   7.4974   7.5393   7.6360   7.7801   7.7835   7.7914   7.8619
     7.8805   7.9756   8.1171   8.2283   8.2485   8.2565   8.3599   8.3741

          k = 0.0000-0.2849 0.0000 (167730 PWs)   bands (ev):

   -21.5836 -21.5836 -21.5266 -21.5266 -20.7465 -20.7465 -20.7067 -20.7067
   -20.3818 -20.3818 -20.3749 -20.3749 -18.8647 -18.8647 -18.8194 -18.8194
   -17.4743 -17.4743 -17.4724 -17.4724 -14.8855 -14.8855 -14.8770 -14.8770
   -14.4528 -14.4528 -14.4274 -14.4274 -12.9768 -12.9768 -12.9619 -12.9619
   -12.3350 -12.3350 -12.3196 -12.3196 -12.1727 -12.1727 -12.1719 -12.1719
   -12.0969 -12.0969 -12.0961 -12.0961 -11.1863 -11.1863 -11.1031 -11.1031
   -10.2421 -10.2421 -10.2241 -10.2241  -9.6092  -9.6092  -9.5866  -9.5866
    -9.1257  -9.1257  -9.1089  -9.1089  -8.8989  -8.8989  -8.8928  -8.8928
    -8.7843  -8.7843  -8.7486  -8.7486  -8.1889  -8.1889  -8.1753  -8.1753
    -7.6460  -7.6460  -7.5117  -7.5117  -7.3516  -7.3516  -7.2673  -7.2673
    -6.7000  -6.7000  -6.6924  -6.6924  -6.4776  -6.4776  -6.3418  -6.3418
    -6.2594  -6.2594  -6.2417  -6.2417  -5.5608  -5.5608  -5.5148  -5.5148
    -5.3583  -5.3583  -5.2714  -5.2714  -5.1517  -5.1517  -5.1171  -5.1171
    -5.0532  -5.0532  -4.9910  -4.9910  -4.8365  -4.8365  -4.8110  -4.8110
    -4.7642  -4.7642  -4.7335  -4.7335  -4.6738  -4.6738  -4.6053  -4.6053
    -4.5593  -4.5593  -4.5345  -4.5345  -4.4847  -4.4847  -4.3629  -4.3629
    -4.2868  -4.2868  -4.2737  -4.2737  -4.1311  -4.1311  -3.9311  -3.9311
    -3.6634  -3.6634  -3.6374  -3.6374  -3.6110  -3.6110  -3.5746  -3.5746
    -3.2297  -3.2297  -3.2087  -3.2087  -3.1704  -3.1704  -3.1408  -3.1408
    -3.1119  -3.1119  -3.0431  -3.0431  -2.9447  -2.9447  -2.9310  -2.9310
    -2.6684  -2.6684  -2.4777  -2.4777  -2.4096  -2.4096  -2.2617  -2.2617
    -2.2113  -2.2113  -2.1520  -2.1520  -2.0945  -2.0945  -2.0347  -2.0347
    -1.8906  -1.8906  -1.7595  -1.7595  -1.6780  -1.6780  -1.6350  -1.6350
    -1.5290  -1.5290  -1.5035  -1.5035  -1.4359  -1.4359  -1.4227  -1.4227
    -1.3998  -1.3998  -1.3532  -1.3532  -1.2990  -1.2990  -1.2917  -1.2917
    -1.1599  -1.1599  -1.0703  -1.0703  -0.9134  -0.9134  -0.8731  -0.8731
    -0.7232  -0.7232  -0.6778  -0.6778  -0.4068  -0.4068  -0.3253  -0.3253
    -0.1689  -0.1689  -0.0701  -0.0701   2.7890   2.7890   2.9862   2.9862
     5.7573   5.7573   5.8088   5.8088   5.8492   5.8492   5.9182   5.9182
     6.0603   6.0603   6.3467   6.3467   6.5901   6.5901   6.7423   6.7423
     6.8929   6.8929   7.1499   7.1499   7.2297   7.2297   7.3998   7.3998
     7.5175   7.5175   7.6499   7.6499   7.6782   7.6782   7.8267   7.8267
     7.9673   7.9673   8.0423   8.0423   8.1988   8.1988   8.2697   8.2700

          k = 0.3333 0.0000 0.0000 (167744 PWs)   bands (ev):

   -21.5684 -21.5684 -21.5399 -21.5398 -20.7371 -20.7371 -20.7172 -20.7171
   -20.3807 -20.3807 -20.3774 -20.3774 -18.8533 -18.8532 -18.8306 -18.8305
   -17.4741 -17.4736 -17.4729 -17.4725 -14.8947 -14.8829 -14.8801 -14.8684
   -14.4307 -14.4307 -14.4060 -14.4056 -12.9920 -12.9862 -12.9782 -12.9734
   -12.3784 -12.3735 -12.3705 -12.3658 -12.2088 -12.2076 -12.1927 -12.1910
   -12.1079 -12.0987 -12.0927 -12.0885 -11.1617 -11.1569 -11.1296 -11.1251
   -10.2540 -10.2481 -10.2252 -10.2200  -9.6072  -9.5963  -9.5938  -9.5856
    -9.0020  -8.9932  -8.9924  -8.9893  -8.8665  -8.8633  -8.8432  -8.8383
    -8.7736  -8.7665  -8.7476  -8.7440  -8.2200  -8.1990  -8.1980  -8.1785
    -7.6741  -7.6482  -7.6005  -7.5772  -7.3955  -7.3773  -7.3416  -7.3219
    -6.7813  -6.7726  -6.6553  -6.6410  -6.4457  -6.4445  -6.3396  -6.2943
    -6.1531  -6.1424  -6.1294  -6.1212  -5.5446  -5.5424  -5.5248  -5.4972
    -5.3340  -5.3235  -5.2804  -5.2624  -5.1631  -5.1465  -5.1412  -5.0691
    -5.0418  -5.0279  -5.0081  -4.9971  -4.8803  -4.8579  -4.8524  -4.8386
    -4.8124  -4.7408  -4.7339  -4.7171  -4.6872  -4.6624  -4.5983  -4.5712
    -4.5363  -4.5251  -4.4992  -4.4954  -4.4875  -4.4420  -4.4051  -4.3940
    -4.2755  -4.2562  -4.2359  -4.2072  -4.1882  -4.1680  -4.0808  -4.0712
    -3.7293  -3.7067  -3.6766  -3.6650  -3.6411  -3.5976  -3.5206  -3.5073
    -3.3512  -3.3195  -3.2800  -3.2545  -3.2048  -3.1946  -3.1882  -3.1734
    -3.1170  -3.0815  -3.0808  -3.0607  -2.9988  -2.9924  -2.9763  -2.9496
    -2.6625  -2.6475  -2.5751  -2.5032  -2.4270  -2.3622  -2.3288  -2.3064
    -2.2353  -2.1859  -2.1597  -2.1520  -2.1145  -2.0888  -2.0857  -2.0748
    -1.9079  -1.8611  -1.8185  -1.7422  -1.6762  -1.6680  -1.5413  -1.5342
    -1.5014  -1.5014  -1.4765  -1.4716  -1.4339  -1.4201  -1.4198  -1.4065
    -1.4016  -1.3973  -1.3887  -1.3608  -1.3347  -1.3347  -1.2876  -1.2649
    -1.1920  -1.1722  -1.1102  -1.1069  -0.8457  -0.8295  -0.8052  -0.7833
    -0.7179  -0.7156  -0.6962  -0.6805  -0.4449  -0.4086  -0.3783  -0.3497
    -0.1471  -0.1383  -0.0822  -0.0650   2.8438   2.8496   2.9494   2.9501
     5.7612   5.7865   5.8426   5.8602   5.9125   6.0496   6.0516   6.3330
     6.4203   6.4861   6.5321   6.5433   6.6198   6.6872   6.7293   6.7674
     6.7889   6.8126   6.8488   6.9622   7.0702   7.1630   7.2449   7.2902
     7.3471   7.3679   7.4513   7.4780   7.4848   7.6372   7.8016   7.8417
     7.8804   7.9410   7.9814   8.0208   8.1317   8.1890   8.2005   8.2361

          k = 0.3333-0.2849 0.0000 (167704 PWs)   bands (ev):

   -21.5684 -21.5684 -21.5398 -21.5398 -20.7371 -20.7371 -20.7172 -20.7172
   -20.3807 -20.3807 -20.3774 -20.3774 -18.8532 -18.8532 -18.8306 -18.8306
   -17.4738 -17.4738 -17.4728 -17.4728 -14.8821 -14.8821 -14.8783 -14.8783
   -14.4261 -14.4261 -14.4126 -14.4126 -12.9949 -12.9949 -12.9865 -12.9865
   -12.3756 -12.3756 -12.3651 -12.3651 -12.1962 -12.1962 -12.1948 -12.1948
   -12.0886 -12.0886 -12.0865 -12.0865 -11.1669 -11.1669 -11.1242 -11.1242
   -10.2519 -10.2519 -10.2423 -10.2423  -9.6044  -9.6044  -9.5941  -9.5941
    -9.0001  -9.0001  -8.9945  -8.9945  -8.8572  -8.8572  -8.8441  -8.8441
    -8.7773  -8.7773  -8.7514  -8.7514  -8.1755  -8.1755  -8.1721  -8.1721
    -7.6601  -7.6601  -7.5709  -7.5709  -7.4027  -7.4027  -7.3372  -7.3372
    -6.7646  -6.7646  -6.6239  -6.6239  -6.4252  -6.4252  -6.2994  -6.2994
    -6.2037  -6.2037  -6.1989  -6.1989  -5.5456  -5.5456  -5.5165  -5.5165
    -5.3121  -5.3121  -5.2667  -5.2667  -5.1783  -5.1783  -5.1262  -5.1262
    -5.0186  -5.0186  -4.9926  -4.9926  -4.8759  -4.8759  -4.8346  -4.8346
    -4.7616  -4.7616  -4.7015  -4.7015  -4.6390  -4.6390  -4.6032  -4.6032
    -4.5377  -4.5377  -4.4875  -4.4875  -4.4539  -4.4539  -4.4013  -4.4013
    -4.2618  -4.2618  -4.2288  -4.2288  -4.1870  -4.1870  -4.0953  -4.0953
    -3.7090  -3.7090  -3.6899  -3.6899  -3.5800  -3.5800  -3.5624  -3.5624
    -3.3032  -3.3032  -3.2861  -3.2861  -3.1747  -3.1747  -3.1568  -3.1568
    -3.1506  -3.1506  -3.0739  -3.0739  -2.9698  -2.9698  -2.9522  -2.9522
    -2.6530  -2.6530  -2.5513  -2.5513  -2.4027  -2.4027  -2.3309  -2.3309
    -2.2117  -2.2117  -2.1491  -2.1491  -2.1144  -2.1144  -2.0739  -2.0739
    -1.8721  -1.8721  -1.8025  -1.8025  -1.6053  -1.6053  -1.5729  -1.5729
    -1.5177  -1.5177  -1.4802  -1.4802  -1.4412  -1.4412  -1.4211  -1.4211
    -1.3735  -1.3735  -1.3488  -1.3488  -1.3181  -1.3181  -1.2808  -1.2808
    -1.1360  -1.1360  -1.1095  -1.1095  -0.8961  -0.8961  -0.8561  -0.8561
    -0.7294  -0.7294  -0.6935  -0.6935  -0.3939  -0.3939  -0.3474  -0.3474
    -0.1313  -0.1313  -0.0743  -0.0743   2.8479   2.8479   2.9482   2.9482
     5.8133   5.8133   5.8321   5.8321   6.0651   6.0651   6.1533   6.1533
     6.2834   6.2834   6.5464   6.5464   6.6594   6.6594   6.7487   6.7487
     6.8874   6.8874   6.9877   6.9877   7.0598   7.0598   7.2174   7.2174
     7.4198   7.4198   7.4914   7.4914   7.6515   7.6515   7.7164   7.7164
     7.8446   7.8446   8.0306   8.0306   8.0911   8.0911   8.1388   8.1388

     highest occupied, lowest unoccupied level (ev):    -0.0580    2.7814

!    total energy              =   -1937.31346675 Ry
     Harris-Foulkes estimate   =   -1937.31346675 Ry
     estimated scf accuracy    <          1.4E-09 Ry

     total all-electron energy =     -7359.712289 Ry

     The total energy is the sum of the following terms:

     one-electron contribution =   -1268.40461123 Ry
     hartree contribution      =     794.19682387 Ry
     xc contribution           =    -445.28661792 Ry
     ewald contribution        =    -437.62853755 Ry
     Dispersion Correction     =      -0.74924749 Ry
     one-center paw contrib.   =    -579.44127644 Ry

     convergence has been achieved in  21 iterations

     Forces acting on atoms (cartesian axes, Ry/au):

     atom    1 type  2   force =    -0.00011397    0.00089364    0.00045313
     atom    2 type  2   force =     0.00011397   -0.00089364    0.00045313
     atom    3 type  2   force =     0.00011397    0.00089364   -0.00045313
     atom    4 type  2   force =    -0.00011397   -0.00089364   -0.00045313
     atom    5 type  2   force =    -0.00164045   -0.00035082    0.00001630
     atom    6 type  2   force =     0.00164045    0.00035082    0.00001630
     atom    7 type  2   force =     0.00164045   -0.00035082   -0.00001630
     atom    8 type  2   force =    -0.00164045    0.00035082   -0.00001630
     atom    9 type  4   force =    -0.00091899   -0.00076040   -0.00070427
     atom   10 type  4   force =     0.00091899    0.00076040   -0.00070427
     atom   11 type  4   force =     0.00091899   -0.00076040    0.00070427
     atom   12 type  4   force =    -0.00091899    0.00076040    0.00070427
     atom   13 type  4   force =    -0.00055450   -0.00068071    0.00020807
     atom   14 type  4   force =     0.00055450    0.00068071    0.00020807
     atom   15 type  4   force =     0.00055450   -0.00068071   -0.00020807
     atom   16 type  4   force =    -0.00055450    0.00068071   -0.00020807
     atom   17 type  4   force =    -0.00124590    0.00091466    0.00201297
     atom   18 type  4   force =     0.00124590   -0.00091466    0.00201297
     atom   19 type  4   force =     0.00124590    0.00091466   -0.00201297
     atom   20 type  4   force =    -0.00124590   -0.00091466   -0.00201297
     atom   21 type  1   force =    -0.00021031   -0.00074718   -0.00014729
     atom   22 type  1   force =     0.00021031    0.00074718   -0.00014729
     atom   23 type  1   force =     0.00021031   -0.00074718    0.00014729
     atom   24 type  1   force =    -0.00021031    0.00074718    0.00014729
     atom   25 type  1   force =     0.00164603   -0.00025162    0.00048579
     atom   26 type  1   force =    -0.00164603    0.00025162    0.00048579
     atom   27 type  1   force =    -0.00164603   -0.00025162   -0.00048579
     atom   28 type  1   force =     0.00164603    0.00025162   -0.00048579
     atom   29 type  1   force =     0.00084390   -0.00179213    0.00066144
     atom   30 type  1   force =    -0.00084390    0.00179213    0.00066144
     atom   31 type  1   force =    -0.00084390   -0.00179213   -0.00066144
     atom   32 type  1   force =     0.00084390    0.00179213   -0.00066144
     atom   33 type  1   force =     0.00054361   -0.00051455    0.00063847
     atom   34 type  1   force =    -0.00054361    0.00051455    0.00063847
     atom   35 type  1   force =    -0.00054361   -0.00051455   -0.00063847
     atom   36 type  1   force =     0.00054361    0.00051455   -0.00063847
     atom   37 type  3   force =    -0.00011757    0.00063004    0.00005619
     atom   38 type  3   force =     0.00011757   -0.00063004    0.00005619
     atom   39 type  3   force =     0.00011757    0.00063004   -0.00005619
     atom   40 type  3   force =    -0.00011757   -0.00063004   -0.00005619
     atom   41 type  1   force =     0.00032905   -0.00018998   -0.00053024
     atom   42 type  1   force =    -0.00032905    0.00018998   -0.00053024
     atom   43 type  1   force =    -0.00032905   -0.00018998    0.00053024
     atom   44 type  1   force =     0.00032905    0.00018998    0.00053024
     atom   45 type  3   force =    -0.00069429    0.00021079   -0.00012431
     atom   46 type  3   force =     0.00069429   -0.00021079   -0.00012431
     atom   47 type  3   force =     0.00069429    0.00021079    0.00012431
     atom   48 type  3   force =    -0.00069429   -0.00021079    0.00012431
     atom   49 type  3   force =    -0.00000736    0.00049951   -0.00056806
     atom   50 type  3   force =     0.00000736   -0.00049951   -0.00056806
     atom   51 type  3   force =     0.00000736    0.00049951    0.00056806
     atom   52 type  3   force =    -0.00000736   -0.00049951    0.00056806
     atom   53 type  1   force =     0.00150097    0.00002494   -0.00060491
     atom   54 type  1   force =    -0.00150097   -0.00002494   -0.00060491
     atom   55 type  1   force =    -0.00150097    0.00002494    0.00060491
     atom   56 type  1   force =     0.00150097   -0.00002494    0.00060491
     atom   57 type  3   force =    -0.00088661   -0.00022806    0.00086274
     atom   58 type  3   force =     0.00088661    0.00022806    0.00086274
     atom   59 type  3   force =     0.00088661   -0.00022806   -0.00086274
     atom   60 type  3   force =    -0.00088661    0.00022806   -0.00086274
     atom   61 type  3   force =    -0.00120524    0.00017825   -0.00002663
     atom   62 type  3   force =     0.00120524   -0.00017825   -0.00002663
     atom   63 type  3   force =     0.00120524    0.00017825    0.00002663
     atom   64 type  3   force =    -0.00120524   -0.00017825    0.00002663
     atom   65 type  1   force =    -0.00049363   -0.00074893   -0.00053224
     atom   66 type  1   force =     0.00049363    0.00074893   -0.00053224
     atom   67 type  1   force =     0.00049363   -0.00074893    0.00053224
     atom   68 type  1   force =    -0.00049363    0.00074893    0.00053224
     atom   69 type  3   force =    -0.00025690   -0.00049869    0.00031324
     atom   70 type  3   force =     0.00025690    0.00049869    0.00031324
     atom   71 type  3   force =     0.00025690   -0.00049869   -0.00031324
     atom   72 type  3   force =    -0.00025690    0.00049869   -0.00031324
     atom   73 type  3   force =     0.00076252    0.00083785   -0.00059843
     atom   74 type  3   force =    -0.00076252   -0.00083785   -0.00059843
     atom   75 type  3   force =    -0.00076252    0.00083785    0.00059843
     atom   76 type  3   force =     0.00076252   -0.00083785    0.00059843
     atom   77 type  1   force =     0.00036740    0.00069442   -0.00006431
     atom   78 type  1   force =    -0.00036740   -0.00069442   -0.00006431
     atom   79 type  1   force =    -0.00036740    0.00069442    0.00006431
     atom   80 type  1   force =     0.00036740   -0.00069442    0.00006431
     atom   81 type  3   force =     0.00002305   -0.00015809    0.00002847
     atom   82 type  3   force =    -0.00002305    0.00015809    0.00002847
     atom   83 type  3   force =    -0.00002305   -0.00015809   -0.00002847
     atom   84 type  3   force =     0.00002305    0.00015809   -0.00002847
     atom   85 type  3   force =     0.00063217    0.00014788   -0.00020504
     atom   86 type  3   force =    -0.00063217   -0.00014788   -0.00020504
     atom   87 type  3   force =    -0.00063217    0.00014788    0.00020504
     atom   88 type  3   force =     0.00063217   -0.00014788    0.00020504
     atom   89 type  1   force =    -0.00138872    0.00023546    0.00015353
     atom   90 type  1   force =     0.00138872   -0.00023546    0.00015353
     atom   91 type  1   force =     0.00138872    0.00023546   -0.00015353
     atom   92 type  1   force =    -0.00138872   -0.00023546   -0.00015353
     atom   93 type  3   force =     0.00086840   -0.00024874    0.00058077
     atom   94 type  3   force =    -0.00086840    0.00024874    0.00058077
     atom   95 type  3   force =    -0.00086840   -0.00024874   -0.00058077
     atom   96 type  3   force =     0.00086840    0.00024874   -0.00058077
     atom   97 type  3   force =     0.00043902    0.00068395   -0.00066590
     atom   98 type  3   force =    -0.00043902   -0.00068395   -0.00066590
     atom   99 type  3   force =    -0.00043902    0.00068395    0.00066590
     atom  100 type  3   force =     0.00043902   -0.00068395    0.00066590
     atom  101 type  1   force =    -0.00022312   -0.00196837    0.00047402
     atom  102 type  1   force =     0.00022312    0.00196837    0.00047402
     atom  103 type  1   force =     0.00022312   -0.00196837   -0.00047402
     atom  104 type  1   force =    -0.00022312    0.00196837   -0.00047402
     atom  105 type  3   force =     0.00028046   -0.00043440   -0.00012892
     atom  106 type  3   force =    -0.00028046    0.00043440   -0.00012892
     atom  107 type  3   force =    -0.00028046   -0.00043440    0.00012892
     atom  108 type  3   force =     0.00028046    0.00043440    0.00012892
     atom  109 type  1   force =     0.00155914   -0.00049584   -0.00054887
     atom  110 type  1   force =    -0.00155914    0.00049584   -0.00054887
     atom  111 type  1   force =    -0.00155914   -0.00049584    0.00054887
     atom  112 type  1   force =     0.00155914    0.00049584    0.00054887
     atom  113 type  3   force =    -0.00111148    0.00153795    0.00134455
     atom  114 type  3   force =     0.00111148   -0.00153795    0.00134455
     atom  115 type  3   force =     0.00111148    0.00153795   -0.00134455
     atom  116 type  3   force =    -0.00111148   -0.00153795   -0.00134455
     atom  117 type  3   force =    -0.00072759    0.00040651   -0.00004480
     atom  118 type  3   force =     0.00072759   -0.00040651   -0.00004480
     atom  119 type  3   force =     0.00072759    0.00040651    0.00004480
     atom  120 type  3   force =    -0.00072759   -0.00040651    0.00004480
     atom  121 type  1   force =     0.00037699    0.00123344   -0.00017425
     atom  122 type  1   force =    -0.00037699   -0.00123344   -0.00017425
     atom  123 type  1   force =    -0.00037699    0.00123344    0.00017425
     atom  124 type  1   force =     0.00037699   -0.00123344    0.00017425
     atom  125 type  3   force =    -0.00046266   -0.00004968   -0.00021599
     atom  126 type  3   force =     0.00046266    0.00004968   -0.00021599
     atom  127 type  3   force =     0.00046266   -0.00004968    0.00021599
     atom  128 type  3   force =    -0.00046266    0.00004968    0.00021599
     atom  129 type  3   force =     0.00033233    0.00086602   -0.00013726
     atom  130 type  3   force =    -0.00033233   -0.00086602   -0.00013726
     atom  131 type  3   force =    -0.00033233    0.00086602    0.00013726
     atom  132 type  3   force =     0.00033233   -0.00086602    0.00013726
     atom  133 type  1   force =    -0.00073962    0.00011011    0.00061563
     atom  134 type  1   force =     0.00073962   -0.00011011    0.00061563
     atom  135 type  1   force =     0.00073962    0.00011011   -0.00061563
     atom  136 type  1   force =    -0.00073962   -0.00011011   -0.00061563
     atom  137 type  3   force =    -0.00058250   -0.00062389    0.00060126
     atom  138 type  3   force =     0.00058250    0.00062389    0.00060126
     atom  139 type  3   force =     0.00058250   -0.00062389   -0.00060126
     atom  140 type  3   force =    -0.00058250    0.00062389   -0.00060126
     atom  141 type  3   force =     0.00155205    0.00010419    0.00034863
     atom  142 type  3   force =    -0.00155205   -0.00010419    0.00034863
     atom  143 type  3   force =    -0.00155205    0.00010419   -0.00034863
     atom  144 type  3   force =     0.00155205   -0.00010419   -0.00034863
     atom  145 type  1   force =    -0.00062789   -0.00036691   -0.00205766
     atom  146 type  1   force =     0.00062789    0.00036691   -0.00205766
     atom  147 type  1   force =     0.00062789   -0.00036691    0.00205766
     atom  148 type  1   force =    -0.00062789    0.00036691    0.00205766
     atom  149 type  3   force =     0.00157714    0.00035030    0.00035780
     atom  150 type  3   force =    -0.00157714   -0.00035030    0.00035780
     atom  151 type  3   force =    -0.00157714    0.00035030   -0.00035780
     atom  152 type  3   force =     0.00157714   -0.00035030   -0.00035780
     atom  153 type  3   force =     0.00044222    0.00061930   -0.00044769
     atom  154 type  3   force =    -0.00044222   -0.00061930   -0.00044769
     atom  155 type  3   force =    -0.00044222    0.00061930    0.00044769
     atom  156 type  3   force =     0.00044222   -0.00061930    0.00044769
     atom  157 type  1   force =    -0.00103511    0.00011232    0.00021054
     atom  158 type  1   force =     0.00103511   -0.00011232    0.00021054
     atom  159 type  1   force =     0.00103511    0.00011232   -0.00021054
     atom  160 type  1   force =    -0.00103511   -0.00011232   -0.00021054
     atom  161 type  3   force =     0.00108971    0.00030535    0.00003237
     atom  162 type  3   force =    -0.00108971   -0.00030535    0.00003237
     atom  163 type  3   force =    -0.00108971    0.00030535   -0.00003237
     atom  164 type  3   force =     0.00108971   -0.00030535   -0.00003237
     atom  165 type  3   force =     0.00055493    0.00004267    0.00088879
     atom  166 type  3   force =    -0.00055493   -0.00004267    0.00088879
     atom  167 type  3   force =    -0.00055493    0.00004267   -0.00088879
     atom  168 type  3   force =     0.00055493   -0.00004267   -0.00088879

     Total force =     0.016833     Total SCF correction =     0.000078


     Computing stress (Cartesian axis) and pressure

          total   stress  (Ry/bohr**3)                   (kbar)     P=   -3.14
  -0.00001452   0.00000000   0.00000000         -2.14      0.00      0.00
   0.00000000  -0.00001063   0.00000000          0.00     -1.56      0.00
   0.00000000   0.00000000  -0.00003890          0.00      0.00     -5.72


     Writing output data file scf.save
 
     init_run     :     65.49s CPU     67.83s WALL (       1 calls)
     electrons    :   2975.00s CPU   3072.01s WALL (       1 calls)
     forces       :     34.77s CPU     35.21s WALL (       1 calls)
     stress       :    159.25s CPU    159.71s WALL (       1 calls)

     Called by init_run:
     wfcinit      :     56.50s CPU     58.50s WALL (       1 calls)
     potinit      :      3.24s CPU      3.29s WALL (       1 calls)

     Called by electrons:
     c_bands      :   2701.41s CPU   2781.17s WALL (      21 calls)
     sum_band     :    243.28s CPU    257.04s WALL (      21 calls)
     v_of_rho     :      3.85s CPU      4.26s WALL (      22 calls)
     newd         :     11.30s CPU     14.33s WALL (      22 calls)
     PAW_pot      :     14.08s CPU     14.09s WALL (      22 calls)
     mix_rho      :      0.96s CPU      1.01s WALL (      21 calls)

     Called by c_bands:
     init_us_2    :     11.14s CPU     11.19s WALL (     180 calls)
     cegterg      :   2657.92s CPU   2737.63s WALL (      84 calls)

     Called by sum_band:
     sum_band:bec :      0.11s CPU      0.11s WALL (      84 calls)
     addusdens    :     11.00s CPU     13.87s WALL (      21 calls)

     Called by *egterg:
     h_psi        :   1292.91s CPU   1355.77s WALL (     415 calls)
     s_psi        :    381.89s CPU    381.92s WALL (     415 calls)
     g_psi        :      5.54s CPU      5.54s WALL (     327 calls)
     cdiaghg      :    132.03s CPU    132.15s WALL (     411 calls)

     Called by h_psi:
     h_psi:pot    :   1285.25s CPU   1348.01s WALL (     415 calls)
     h_psi:calbec :    369.01s CPU    369.39s WALL (     415 calls)
     vloc_psi     :    534.34s CPU    596.69s WALL (     415 calls)
     add_vuspsi   :    381.90s CPU    381.93s WALL (     415 calls)

     General routines
     calbec       :    524.79s CPU    525.34s WALL (     519 calls)
     fft          :      2.25s CPU      3.04s WALL (     310 calls)
     fftw         :    562.47s CPU    635.27s WALL (  150470 calls)
 
     Parallel routines
     fft_scatter  :    112.67s CPU    184.48s WALL (  150780 calls)
 
     PWSCF        : 54m 6.66s CPU    56m14.55s WALL

 
   This run was terminated on:   6:56:48   4Nov2017            

=------------------------------------------------------------------------------=
   JOB DONE.
=------------------------------------------------------------------------------=
