
     Program PWSCF v.6.1 (svn rev. 13369) starts on 13Nov2017 at 12:24: 2 

     This program is part of the open-source Quantum ESPRESSO suite
     for quantum simulation of materials; please cite
         "P. Giannozzi et al., J. Phys.:Condens. Matter 21 395502 (2009);
          URL http://www.quantum-espresso.org", 
     in publications or presentations arising from this work. More details at
     http://www.quantum-espresso.org/quote

     Parallel version (MPI), running on     8 processors
     R & G space division:  proc/nbgrp/npool/nimage =       8
     Waiting for input...
     Reading input from standard input

     Current dimensions of program PWSCF are:
     Max number of different atomic species (ntypx) = 10
     Max number of k-points (npk) =  40000
     Max angular momentum in pseudopotentials (lmaxx) =  3
               file C.pbe-n-kjpaw_psl.0.1.UPF: wavefunction(s)  2P renormalized
               file N.pbe-n-kjpaw_psl.0.1.UPF: wavefunction(s)  2P renormalized
               file H.pbe-kjpaw_psl.0.1.UPF: wavefunction(s)  1S renormalized
               file O.pbe-n-kjpaw_psl.0.1.UPF: wavefunction(s)  2P renormalized

     -------------------------------------
     Parameters for Dispersion Correction:
     -------------------------------------
       atom      VdW radius       C_6     

        C          2.744         60.710
        N          2.640         42.670
        H          1.892          4.857
        O          2.536         24.284

     Subspace diagonalization in iterative solution of the eigenvalue problem:
     a serial algorithm will be used

 
     Parallelization info
     --------------------
     sticks:   dense  smooth     PW     G-vecs:    dense   smooth      PW
     Min        1595    1595    420               136711   136711   18426
     Max        1596    1596    421               136712   136712   18427
     Sum       12765   12765   3365              1093691  1093691  147413
 


     bravais-lattice index     =            0
     lattice parameter (alat)  =      28.0964  a.u.
     unit-cell volume          =    8095.2183 (a.u.)^3
     number of atoms/cell      =          140
     number of atomic types    =            4
     number of electrons       =       368.00
     number of Kohn-Sham states=          220
     kinetic-energy cutoff     =     100.0000  Ry
     charge density cutoff     =     400.0000  Ry
     convergence threshold     =      1.0E-08
     mixing beta               =       0.5000
     number of iterations used =            8  plain     mixing
     Exchange-correlation      =  SLA  PW   PBX  PBC ( 1  4  3  4 0 0)

     celldm(1)=  28.096448  celldm(2)=   0.000000  celldm(3)=   0.000000
     celldm(4)=   0.000000  celldm(5)=   0.000000  celldm(6)=   0.000000

     crystal axes: (cart. coord. in units of alat)
               a(1) = (   1.000000   0.000000   0.000000 )  
               a(2) = (   0.000000   0.507667   0.000000 )  
               a(3) = (  -0.114513   0.000000   0.718944 )  

     reciprocal axes: (cart. coord. in units 2 pi/alat)
               b(1) = (  1.000000  0.000000  0.159279 )  
               b(2) = (  0.000000  1.969793  0.000000 )  
               b(3) = (  0.000000  0.000000  1.390929 )  


     PseudoPot. # 1 for  C read from file:
     /scratch/ahofstet/pseudo/C.pbe-n-kjpaw_psl.0.1.UPF
     MD5 check sum: 430fe95172b1e11ef3f8ed03bac87931
     Pseudo is Projector augmented-wave + core cor, Zval =  4.0
     Generated using "atomic" code by A. Dal Corso  v.5.0.99 svn rev. 10869
     Shape of augmentation charge: BESSEL
     Using radial grid of 1073 points,  4 beta functions with: 
                l(1) =   0
                l(2) =   0
                l(3) =   1
                l(4) =   1
     Q(r) pseudized with 0 coefficients 


     PseudoPot. # 2 for  N read from file:
     /scratch/ahofstet/pseudo/N.pbe-n-kjpaw_psl.0.1.UPF
     MD5 check sum: f73187c8b701007e77325f868c9291d7
     Pseudo is Projector augmented-wave + core cor, Zval =  5.0
     Generated using "atomic" code by A. Dal Corso  v.5.0.99 svn rev. 10869
     Shape of augmentation charge: PSQ
     Using radial grid of 1085 points,  4 beta functions with: 
                l(1) =   0
                l(2) =   0
                l(3) =   1
                l(4) =   1
     Q(r) pseudized with 0 coefficients 


     PseudoPot. # 3 for  H read from file:
     /scratch/ahofstet/pseudo/H.pbe-kjpaw_psl.0.1.UPF
     MD5 check sum: 94e484f906d9e9773b2f6e52662335b2
     Pseudo is Projector augmented-wave, Zval =  1.0
     Generated using "atomic" code by A. Dal Corso  v.5.0.99 svn rev. 10869
     Shape of augmentation charge: PSQ
     Using radial grid of  929 points,  2 beta functions with: 
                l(1) =   0
                l(2) =   0
     Q(r) pseudized with 0 coefficients 


     PseudoPot. # 4 for  O read from file:
     /scratch/ahofstet/pseudo/O.pbe-n-kjpaw_psl.0.1.UPF
     MD5 check sum: 3f94a2996a3169367d6eb21d9b593f20
     Pseudo is Projector augmented-wave + core cor, Zval =  6.0
     Generated using "atomic" code by A. Dal Corso  v.5.0.99 svn rev. 10869
     Shape of augmentation charge: BESSEL
     Using radial grid of 1095 points,  4 beta functions with: 
                l(1) =   0
                l(2) =   0
                l(3) =   1
                l(4) =   1
     Q(r) pseudized with 0 coefficients 


     atomic species   valence    mass     pseudopotential
        C              4.00    12.01070      C( 1.00)
        N              5.00    14.00670      N( 1.00)
        H              1.00     1.00794      H( 1.00)
        O              6.00    15.99940      O( 1.00)

      2 Sym. Ops., with inversion, found
          (note:  2 additional sym.ops. were found but ignored
           their fractional translations are incommensurate with FFT grid)


   Cartesian axes

     site n.     atom                  positions (alat units)
         1           O   tau(   1) = (  -0.0097433   0.1001360   0.2964235  )
         2           O   tau(   2) = (   0.9524869   0.3539697   0.0630484  )
         3           O   tau(   3) = (   0.8952306   0.4075315   0.4225203  )
         4           O   tau(   4) = (  -0.0669997   0.1536978   0.6558954  )
         5           O   tau(   5) = (   0.0896331   0.5004302   0.3379570  )
         6           O   tau(   6) = (   0.8531105   0.2465965   0.0215149  )
         7           O   tau(   7) = (   0.7958541   0.0072373   0.3809868  )
         8           O   tau(   8) = (   0.0323768   0.2610710   0.6974290  )
         9           O   tau(   9) = (   0.9236443   0.2241827   0.2400564  )
        10           O   tau(  10) = (   0.0190993   0.4780165   0.1194155  )
        11           O   tau(  11) = (  -0.0381570   0.2834847   0.4788874  )
        12           O   tau(  12) = (   0.8663879   0.0296510   0.5995284  )
        13           C   tau(  13) = (   0.2275417   0.1351792   0.2749462  )
        14           C   tau(  14) = (   0.7152019   0.3890129   0.0845257  )
        15           C   tau(  15) = (   0.6579455   0.3724883   0.4439976  )
        16           C   tau(  16) = (   0.1702853   0.1186546   0.6344181  )
        17           C   tau(  17) = (   0.3048303   0.0684989   0.2808558  )
        18           C   tau(  18) = (   0.6379133   0.3223327   0.0786161  )
        19           C   tau(  19) = (   0.5806570   0.4391685   0.4380880  )
        20           C   tau(  20) = (   0.2475739   0.1853348   0.6403277  )
        21           C   tau(  21) = (   0.3924756   0.1227841   0.2930087  )
        22           C   tau(  22) = (   0.5502680   0.3766178   0.0664632  )
        23           C   tau(  23) = (   0.4930117   0.3848834   0.4259351  )
        24           C   tau(  24) = (   0.3352192   0.1310497   0.6524806  )
        25           C   tau(  25) = (   0.4089983   0.1979947   0.2226076  )
        26           C   tau(  26) = (   0.5337453   0.4518284   0.1368643  )
        27           C   tau(  27) = (   0.4764889   0.3096728   0.4963362  )
        28           C   tau(  28) = (   0.3517420   0.0558390   0.5820795  )
        29           C   tau(  29) = (   0.3558268   0.2878607   0.2334908  )
        30           C   tau(  30) = (   0.5869168   0.0340270   0.1259811  )
        31           C   tau(  31) = (   0.5296605   0.2198067   0.4854530  )
        32           C   tau(  32) = (   0.2985704   0.4736405   0.5929628  )
        33           C   tau(  33) = (   0.2790873   0.3059280   0.1641662  )
        34           C   tau(  34) = (   0.6636564   0.0520943   0.1953057  )
        35           C   tau(  35) = (   0.6064000   0.2017395   0.5547776  )
        36           C   tau(  36) = (   0.2218309   0.4555732   0.5236381  )
        37           C   tau(  37) = (   0.1883624   0.3418098   0.2000978  )
        38           C   tau(  38) = (   0.7543813   0.0879761   0.1593741  )
        39           C   tau(  39) = (   0.6971249   0.1658576   0.5188460  )
        40           C   tau(  40) = (   0.1311060   0.4196914   0.5595697  )
        41           C   tau(  41) = (   0.1223927   0.2854581   0.2591426  )
        42           C   tau(  42) = (   0.8203509   0.0316243   0.1003293  )
        43           C   tau(  43) = (   0.7630945   0.2222094   0.4598012  )
        44           C   tau(  44) = (   0.0651363   0.4760432   0.6186145  )
        45           C   tau(  45) = (   0.0843120   0.1983856   0.2110196  )
        46           C   tau(  46) = (   0.8584317   0.4522193   0.1484523  )
        47           C   tau(  47) = (   0.8011753   0.3092819   0.5079242  )
        48           C   tau(  48) = (   0.0270556   0.0554482   0.5704915  )
        49           C   tau(  49) = (   0.1364758   0.1108753   0.2316797  )
        50           C   tau(  50) = (   0.8062678   0.3647091   0.1277922  )
        51           C   tau(  51) = (   0.7490115   0.3967922   0.4872641  )
        52           C   tau(  52) = (   0.0792194   0.1429584   0.5911517  )
        53           C   tau(  53) = (   0.2086028   0.1873744   0.3595806  )
        54           C   tau(  54) = (   0.7341409   0.4412081  -0.0001086  )
        55           C   tau(  55) = (   0.6768845   0.3202931   0.3593633  )
        56           C   tau(  56) = (   0.1513464   0.0664594   0.7190525  )
        57           C   tau(  57) = (   0.1570256   0.2606926   0.3514169  )
        58           C   tau(  58) = (   0.7857181   0.0068589   0.0080550  )
        59           C   tau(  59) = (   0.7284617   0.2469749   0.3675269  )
        60           C   tau(  60) = (   0.0997692   0.5008086   0.7108888  )
        61           C   tau(  61) = (   0.0748692   0.0585824   0.2932470  )
        62           C   tau(  62) = (   0.8678744   0.3124162   0.0662249  )
        63           C   tau(  63) = (   0.8106181   0.4490850   0.4256968  )
        64           C   tau(  64) = (   0.0176128   0.1952513   0.6527189  )
        65           C   tau(  65) = (  -0.0089433   0.1795673   0.2470010  )
        66           C   tau(  66) = (   0.9516869   0.4334011   0.1124709  )
        67           C   tau(  67) = (   0.8944306   0.3281001   0.4719428  )
        68           C   tau(  68) = (  -0.0661997   0.0742664   0.6064729  )
        69           H   tau(  69) = (   0.2516563   0.1833698   0.2255095  )
        70           H   tau(  70) = (   0.6910873   0.4372035   0.1339624  )
        71           H   tau(  71) = (   0.6338309   0.3242977   0.4934344  )
        72           H   tau(  72) = (   0.1943999   0.0704639   0.5849814  )
        73           H   tau(  73) = (   0.3084877   0.0294837   0.2179148  )
        74           H   tau(  74) = (   0.6342559   0.2833174   0.1415571  )
        75           H   tau(  75) = (   0.5769995   0.4781838   0.5010290  )
        76           H   tau(  76) = (   0.2512314   0.2243501   0.5773867  )
        77           H   tau(  77) = (   0.2961931   0.0198768   0.3361587  )
        78           H   tau(  78) = (   0.6465505   0.2737106   0.0233132  )
        79           H   tau(  79) = (   0.5892942   0.4877906   0.3827851  )
        80           H   tau(  80) = (   0.2389367   0.2339569   0.6956307  )
        81           H   tau(  81) = (   0.3928427   0.1537236   0.3604070  )
        82           H   tau(  82) = (   0.5499009   0.4075573  -0.0009351  )
        83           H   tau(  83) = (   0.4926445   0.3539439   0.3585368  )
        84           H   tau(  84) = (   0.3355864   0.1001102   0.7198789  )
        85           H   tau(  85) = (   0.4500247   0.0761978   0.2915952  )
        86           H   tau(  86) = (   0.4927189   0.3300316   0.0678767  )
        87           H   tau(  87) = (   0.4354625   0.4314696   0.4273486  )
        88           H   tau(  88) = (   0.3927684   0.1776359   0.6510672  )
        89           H   tau(  89) = (   0.3969604   0.1705039   0.1546266  )
        90           H   tau(  90) = (   0.5457833   0.4243376   0.2048453  )
        91           H   tau(  91) = (   0.4885269   0.3371636   0.5643172  )
        92           H   tau(  92) = (   0.3397040   0.0833298   0.5140985  )
        93           H   tau(  93) = (   0.4813776   0.2135421   0.2251640  )
        94           H   tau(  94) = (   0.4613661   0.4673758   0.1343079  )
        95           H   tau(  95) = (   0.4041097   0.2941254   0.4937798  )
        96           H   tau(  96) = (   0.4241212   0.0402917   0.5846359  )
        97           H   tau(  97) = (   0.3285662   0.2915145   0.3020183  )
        98           H   tau(  98) = (   0.6141775   0.0376807   0.0574536  )
        99           H   tau(  99) = (   0.5569211   0.2161530   0.4169255  )
       100           H   tau( 100) = (   0.2713098   0.4699868   0.6614902  )
       101           H   tau( 101) = (   0.4038954   0.3437865   0.2282426  )
       102           H   tau( 102) = (   0.5388482   0.0899528   0.1312293  )
       103           H   tau( 103) = (   0.4815918   0.1638810   0.4907012  )
       104           H   tau( 104) = (   0.3466390   0.4177147   0.5877145  )
       105           H   tau( 105) = (   0.2672633   0.2465386   0.1212328  )
       106           H   tau( 106) = (   0.6754803   0.5003724   0.2382391  )
       107           H   tau( 107) = (   0.6182239   0.2611288   0.5977110  )
       108           H   tau( 108) = (   0.2100070   0.0072951   0.4807047  )
       109           H   tau( 109) = (   0.3028504   0.3575485   0.1164599  )
       110           H   tau( 110) = (   0.6398933   0.1037148   0.2430121  )
       111           H   tau( 111) = (   0.5826369   0.1501189   0.6024840  )
       112           H   tau( 112) = (   0.2455940   0.4039527   0.4759318  )
       113           H   tau( 113) = (   0.1484861   0.3616334   0.1410183  )
       114           H   tau( 114) = (   0.7942576   0.1077997   0.2184536  )
       115           H   tau( 115) = (   0.7370012   0.1460341   0.5779256  )
       116           H   tau( 116) = (   0.0912297   0.3998678   0.5004902  )
       117           H   tau( 117) = (   0.2009731   0.4040009   0.2385125  )
       118           H   tau( 118) = (   0.7417706   0.1501671   0.1209594  )
       119           H   tau( 119) = (   0.6845142   0.1036666   0.4804314  )
       120           H   tau( 120) = (   0.1437167   0.3575004   0.5979844  )
       121           H   tau( 121) = (   0.0646437   0.3308621   0.2679461  )
       122           H   tau( 122) = (   0.8781000   0.0770283   0.0915258  )
       123           H   tau( 123) = (   0.8208436   0.1768054   0.4509978  )
       124           H   tau( 124) = (   0.0073873   0.4306391   0.6274180  )
       125           H   tau( 125) = (   0.0791287   0.2124520   0.1385974  )
       126           H   tau( 126) = (   0.8636149   0.4662858   0.2208745  )
       127           H   tau( 127) = (   0.8063586   0.2952155   0.5803464  )
       128           H   tau( 128) = (   0.0218723   0.0413817   0.4980693  )
       129           H   tau( 129) = (   0.1462902   0.0705517   0.1703959  )
       130           H   tau( 130) = (   0.7964534   0.3243854   0.1890760  )
       131           H   tau( 131) = (   0.7391971   0.4371158   0.5485479  )
       132           H   tau( 132) = (   0.0890338   0.1832820   0.5298678  )
       133           H   tau( 133) = (   0.2352730   0.1641696   0.4240018  )
       134           H   tau( 134) = (   0.5929578   0.4180033   0.6544139  )
       135           H   tau( 135) = (   0.6502142   0.3434979   0.2949420  )
       136           H   tau( 136) = (   0.2925294   0.0896642   0.0645299  )
       137           H   tau( 137) = (   0.1366536   0.3018673   0.4085633  )
       138           H   tau( 138) = (   0.6915773   0.0480336   0.6698524  )
       139           H   tau( 139) = (   0.7488337   0.2058001   0.3103805  )
       140           H   tau( 140) = (   0.1939100   0.4596339   0.0490914  )

     number of k points=     8
                       cart. coord. in units 2pi/alat
        k(    1) = (   0.0000000   0.0000000   0.0000000), wk =   0.1666667
        k(    2) = (   0.0000000   0.0000000  -0.6954646), wk =   0.1666667
        k(    3) = (   0.0000000   0.6565978   0.0000000), wk =   0.3333333
        k(    4) = (   0.0000000   0.6565978  -0.6954646), wk =   0.3333333
        k(    5) = (  -0.5000000   0.0000000  -0.0796396), wk =   0.1666667
        k(    6) = (  -0.5000000   0.0000000  -0.7751042), wk =   0.1666667
        k(    7) = (  -0.5000000   0.6565978  -0.0796396), wk =   0.3333333
        k(    8) = (  -0.5000000   0.6565978  -0.7751042), wk =   0.3333333

     Dense  grid:  1093691 G-vectors     FFT dimensions: ( 180,  96, 135)

     Estimated max dynamical RAM per process >    1261.63MB

     Estimated total allocated dynamical RAM >   10093.03MB

     Check: negative/imaginary core charge=   -0.000002    0.000000

     Initial potential from superposition of free atoms

     starting charge  367.99697, renormalised to  368.00000
     Starting wfc are  344 randomized atomic wfcs
     Checking if some PAW data can be deallocated... 

     total cpu time spent up to now is       75.9 secs

     per-process dynamical memory:   860.8 Mb

     Self-consistent Calculation

     iteration #  1     ecut=   100.00 Ry     beta=0.50
     Davidson diagonalization with overlap
     ethr =  1.00E-02,  avg # of iterations =  4.1

     total cpu time spent up to now is      281.9 secs

     total energy              =   -1615.38754406 Ry
     Harris-Foulkes estimate   =   -1623.12277719 Ry
     estimated scf accuracy    <      14.74689169 Ry

     iteration #  2     ecut=   100.00 Ry     beta=0.50
     Davidson diagonalization with overlap
     ethr =  4.01E-03,  avg # of iterations =  2.0

     total cpu time spent up to now is      383.0 secs

     total energy              =   -1615.82314109 Ry
     Harris-Foulkes estimate   =   -1616.91780797 Ry
     estimated scf accuracy    <       2.12893260 Ry

     iteration #  3     ecut=   100.00 Ry     beta=0.50
     Davidson diagonalization with overlap
     ethr =  5.79E-04,  avg # of iterations =  5.0

     total cpu time spent up to now is      615.9 secs

     total energy              =   -1617.85102935 Ry
     Harris-Foulkes estimate   =   -1619.07307778 Ry
     estimated scf accuracy    <       3.60038958 Ry

     iteration #  4     ecut=   100.00 Ry     beta=0.50
     Davidson diagonalization with overlap
     ethr =  5.79E-04,  avg # of iterations =  1.0

     total cpu time spent up to now is      712.8 secs

     total energy              =   -1616.99542715 Ry
     Harris-Foulkes estimate   =   -1617.99975254 Ry
     estimated scf accuracy    <       1.33796236 Ry

     iteration #  5     ecut=   100.00 Ry     beta=0.50
     Davidson diagonalization with overlap
     ethr =  3.64E-04,  avg # of iterations =  4.9

     total cpu time spent up to now is      937.4 secs

     total energy              =   -1617.64639817 Ry
     Harris-Foulkes estimate   =   -1619.12595587 Ry
     estimated scf accuracy    <       3.48722079 Ry

     iteration #  6     ecut=   100.00 Ry     beta=0.50
     Davidson diagonalization with overlap
     ethr =  3.64E-04,  avg # of iterations =  2.6

     total cpu time spent up to now is     1039.5 secs

     total energy              =   -1617.28545652 Ry
     Harris-Foulkes estimate   =   -1617.80173271 Ry
     estimated scf accuracy    <       0.97082656 Ry

     iteration #  7     ecut=   100.00 Ry     beta=0.50
     Davidson diagonalization with overlap
     ethr =  2.64E-04,  avg # of iterations =  6.4

     total cpu time spent up to now is     1252.4 secs

     total energy              =   -1617.97054421 Ry
     Harris-Foulkes estimate   =   -1618.16712649 Ry
     estimated scf accuracy    <       0.49020513 Ry

     iteration #  8     ecut=   100.00 Ry     beta=0.50
     Davidson diagonalization with overlap
     ethr =  1.33E-04,  avg # of iterations =  1.0

     total cpu time spent up to now is     1349.2 secs

     total energy              =   -1617.95303790 Ry
     Harris-Foulkes estimate   =   -1617.99154588 Ry
     estimated scf accuracy    <       0.14656855 Ry

     iteration #  9     ecut=   100.00 Ry     beta=0.50
     Davidson diagonalization with overlap
     ethr =  3.98E-05,  avg # of iterations =  5.2

     total cpu time spent up to now is     1523.2 secs

     total energy              =   -1618.02310198 Ry
     Harris-Foulkes estimate   =   -1618.02266817 Ry
     estimated scf accuracy    <       0.00184729 Ry

     iteration # 10     ecut=   100.00 Ry     beta=0.50
     Davidson diagonalization with overlap
     ethr =  5.02E-07,  avg # of iterations =  9.9

     total cpu time spent up to now is     1752.6 secs

     total energy              =   -1618.02186928 Ry
     Harris-Foulkes estimate   =   -1618.02406995 Ry
     estimated scf accuracy    <       0.00492442 Ry

     iteration # 11     ecut=   100.00 Ry     beta=0.50
     Davidson diagonalization with overlap
     ethr =  5.02E-07,  avg # of iterations =  5.1

     total cpu time spent up to now is     1905.1 secs

     total energy              =   -1618.02253522 Ry
     Harris-Foulkes estimate   =   -1618.02257025 Ry
     estimated scf accuracy    <       0.00011746 Ry

     iteration # 12     ecut=   100.00 Ry     beta=0.50
     Davidson diagonalization with overlap
     ethr =  3.19E-08,  avg # of iterations =  4.4

     total cpu time spent up to now is     2048.2 secs

     total energy              =   -1618.02257559 Ry
     Harris-Foulkes estimate   =   -1618.02257305 Ry
     estimated scf accuracy    <       0.00002481 Ry

     iteration # 13     ecut=   100.00 Ry     beta=0.50
     Davidson diagonalization with overlap
     ethr =  6.74E-09,  avg # of iterations =  3.0

     total cpu time spent up to now is     2153.1 secs

     total energy              =   -1618.02256721 Ry
     Harris-Foulkes estimate   =   -1618.02257771 Ry
     estimated scf accuracy    <       0.00002668 Ry

     iteration # 14     ecut=   100.00 Ry     beta=0.50
     Davidson diagonalization with overlap
     ethr =  6.74E-09,  avg # of iterations =  4.2

     total cpu time spent up to now is     2276.1 secs

     total energy              =   -1618.02257172 Ry
     Harris-Foulkes estimate   =   -1618.02257233 Ry
     estimated scf accuracy    <       0.00000249 Ry

     iteration # 15     ecut=   100.00 Ry     beta=0.50
     Davidson diagonalization with overlap
     ethr =  6.77E-10,  avg # of iterations =  4.2

     total cpu time spent up to now is     2466.5 secs

     total energy              =   -1618.02257435 Ry
     Harris-Foulkes estimate   =   -1618.02257438 Ry
     estimated scf accuracy    <       0.00000017 Ry

     iteration # 16     ecut=   100.00 Ry     beta=0.50
     Davidson diagonalization with overlap
     ethr =  4.58E-11,  avg # of iterations =  4.2

     total cpu time spent up to now is     2592.7 secs

     total energy              =   -1618.02257433 Ry
     Harris-Foulkes estimate   =   -1618.02257440 Ry
     estimated scf accuracy    <       0.00000016 Ry

     iteration # 17     ecut=   100.00 Ry     beta=0.50
     Davidson diagonalization with overlap
     ethr =  4.43E-11,  avg # of iterations =  2.2

     total cpu time spent up to now is     2694.8 secs

     total energy              =   -1618.02257431 Ry
     Harris-Foulkes estimate   =   -1618.02257434 Ry
     estimated scf accuracy    <       0.00000005 Ry

     iteration # 18     ecut=   100.00 Ry     beta=0.50
     Davidson diagonalization with overlap
     ethr =  1.45E-11,  avg # of iterations =  4.0

     total cpu time spent up to now is     2872.8 secs

     total energy              =   -1618.02257434 Ry
     Harris-Foulkes estimate   =   -1618.02257435 Ry
     estimated scf accuracy    <       0.00000001 Ry

     iteration # 19     ecut=   100.00 Ry     beta=0.50
     Davidson diagonalization with overlap
     ethr =  3.57E-12,  avg # of iterations =  1.0

     total cpu time spent up to now is     2969.4 secs

     End of self-consistent calculation

          k = 0.0000 0.0000 0.0000 (136773 PWs)   bands (ev):

   -22.0381 -22.0238 -22.0056 -21.9947 -20.4006 -20.3932 -20.3651 -20.3607
   -19.3478 -19.3437 -19.3423 -19.3386 -15.3505 -15.3450 -15.3269 -15.3185
   -13.8173 -13.7535 -13.7528 -13.7412 -13.3527 -13.3389 -13.3382 -13.3290
   -12.8239 -12.8142 -12.7617 -12.7443 -11.9356 -11.9354 -11.9322 -11.9113
   -11.5590 -11.5506 -11.5183 -11.4843 -10.4876 -10.4724 -10.4301 -10.4153
    -9.4653  -9.4599  -9.4536  -9.4381  -9.3688  -9.3232  -9.3072  -9.3032
    -8.8323  -8.8290  -8.7877  -8.7558  -8.1455  -8.1265  -8.0112  -7.9659
    -7.7684  -7.6450  -7.5999  -7.5586  -7.3468  -7.2388  -7.2354  -7.1640
    -6.5127  -6.5103  -6.4880  -6.4395  -6.2161  -6.1729  -6.1672  -6.1499
    -5.7694  -5.7290  -5.6468  -5.6116  -5.5084  -5.5060  -5.4425  -5.4166
    -5.3821  -5.2715  -5.2677  -5.2435  -4.9986  -4.8767  -4.8627  -4.6831
    -4.6578  -4.6412  -4.6106  -4.5367  -4.4447  -4.3515  -4.3480  -4.3370
    -4.2855  -4.2820  -4.2355  -4.1978  -4.1176  -4.0948  -4.0532  -4.0059
    -3.9601  -3.9489  -3.9082  -3.9012  -3.8657  -3.8147  -3.7827  -3.7798
    -3.7060  -3.7051  -3.6644  -3.6500  -3.5086  -3.4101  -3.3809  -3.3505
    -3.0630  -3.0338  -3.0191  -2.9865  -2.8921  -2.8895  -2.8822  -2.8353
    -2.7885  -2.7709  -2.7420  -2.7301  -2.3792  -2.3396  -2.3316  -2.2958
    -2.1758  -2.1756  -2.1744  -2.1361  -2.0601  -1.9887  -1.9694  -1.8891
    -1.8858  -1.8354  -1.7225  -1.7189  -1.6880  -1.6831  -1.6333  -1.6231
    -1.5868  -1.5591  -1.4990  -1.4892  -1.4771  -1.4348  -1.3988  -1.3827
    -1.2178  -1.2072  -1.2065  -1.1408  -1.0963  -1.0910  -1.0106  -0.9445
    -0.9315  -0.8120  -0.7672  -0.6854  -0.5809  -0.5226  -0.4865  -0.4794
    -0.0588  -0.0126   0.0021   0.0163   0.3918   0.4139   0.4282   0.4342
     4.4233   4.4370   4.6148   4.7687   5.0552   5.0598   5.1369   5.1684
     5.2322   5.3130   5.3307   5.3366   6.0179   6.0932   6.3573   6.4361
     6.6301   6.7401   7.0346   7.2288   7.2521   7.2531   7.3665   7.4000
     7.4081   7.4940   7.6107   7.7350   7.7649   7.9376   7.9436   8.0644
     8.1657   8.2111   8.2385   8.2739

          k = 0.0000 0.0000-0.6955 (136680 PWs)   bands (ev):

   -22.0322 -22.0322 -21.9989 -21.9989 -20.3971 -20.3971 -20.3626 -20.3626
   -19.3464 -19.3464 -19.3398 -19.3398 -15.3390 -15.3390 -15.3317 -15.3317
   -13.7942 -13.7942 -13.7388 -13.7388 -13.3453 -13.3453 -13.3340 -13.3340
   -12.7925 -12.7925 -12.7783 -12.7783 -11.9362 -11.9362 -11.9213 -11.9213
   -11.5412 -11.5412 -11.5168 -11.5168 -10.4801 -10.4801 -10.4232 -10.4232
    -9.4568  -9.4567  -9.4479  -9.4479  -9.3510  -9.3510  -9.2989  -9.2989
    -8.8274  -8.8274  -8.7780  -8.7780  -8.0763  -8.0763  -8.0507  -8.0507
    -7.7200  -7.7200  -7.5668  -7.5667  -7.2953  -7.2953  -7.1996  -7.1996
    -6.5200  -6.5200  -6.4674  -6.4674  -6.1901  -6.1901  -6.1524  -6.1524
    -5.7184  -5.7184  -5.6728  -5.6728  -5.4898  -5.4898  -5.4427  -5.4427
    -5.3069  -5.3069  -5.2552  -5.2552  -4.9713  -4.9713  -4.7822  -4.7822
    -4.6287  -4.6287  -4.5381  -4.5381  -4.4625  -4.4625  -4.3113  -4.3113
    -4.2213  -4.2213  -4.2161  -4.2161  -4.1369  -4.1369  -3.9774  -3.9774
    -3.9621  -3.9621  -3.9134  -3.9134  -3.8412  -3.8412  -3.7998  -3.7998
    -3.7162  -3.7162  -3.6691  -3.6691  -3.4590  -3.4590  -3.3722  -3.3722
    -3.0982  -3.0982  -2.9811  -2.9811  -2.8730  -2.8730  -2.8542  -2.8542
    -2.7893  -2.7893  -2.7289  -2.7289  -2.3575  -2.3575  -2.3103  -2.3103
    -2.1965  -2.1965  -2.1644  -2.1644  -1.9827  -1.9827  -1.8946  -1.8946
    -1.8586  -1.8586  -1.8009  -1.8009  -1.6525  -1.6525  -1.6038  -1.6038
    -1.5858  -1.5858  -1.5266  -1.5266  -1.4337  -1.4337  -1.3947  -1.3947
    -1.2079  -1.2079  -1.1924  -1.1924  -1.0622  -1.0622  -0.9899  -0.9899
    -0.9062  -0.9062  -0.7230  -0.7230  -0.5312  -0.5312  -0.4899  -0.4899
    -0.0320  -0.0320   0.0077   0.0077   0.4065   0.4065   0.4342   0.4342
     4.4198   4.4198   4.7001   4.7001   5.0708   5.0708   5.1394   5.1394
     5.2711   5.2711   5.3227   5.3227   6.0296   6.0296   6.5845   6.5845
     6.7407   6.7407   6.9461   6.9461   7.1091   7.1091   7.3599   7.3599
     7.4134   7.4134   7.7513   7.7513   7.9403   7.9403   7.9632   7.9632
     8.2554   8.2554   8.3375   8.3375

          k = 0.0000 0.6566 0.0000 (136718 PWs)   bands (ev):

   -22.0276 -22.0188 -22.0105 -22.0051 -20.3925 -20.3852 -20.3749 -20.3687
   -19.3469 -19.3441 -19.3413 -19.3388 -15.3440 -15.3407 -15.3258 -15.3221
   -13.7979 -13.7636 -13.7490 -13.7442 -13.3698 -13.3658 -13.3453 -13.3391
   -12.8122 -12.8073 -12.7643 -12.7553 -11.9434 -11.9398 -11.9224 -11.9090
   -11.5279 -11.5216 -11.5037 -11.4847 -10.4923 -10.4821 -10.4651 -10.4504
    -9.4957  -9.4739  -9.4113  -9.4069  -9.3423  -9.3124  -9.3006  -9.2862
    -8.8517  -8.8217  -8.7795  -8.7521  -8.1006  -8.0981  -7.9979  -7.9723
    -7.7528  -7.6982  -7.6044  -7.5705  -7.3147  -7.2590  -7.2105  -7.1744
    -6.5482  -6.5327  -6.5000  -6.4706  -6.2006  -6.1836  -6.1702  -6.1376
    -5.8055  -5.7948  -5.6803  -5.6433  -5.4248  -5.4080  -5.3864  -5.3537
    -5.3487  -5.2796  -5.2147  -5.1631  -4.9869  -4.8904  -4.8527  -4.7668
    -4.6557  -4.6313  -4.6014  -4.5530  -4.5094  -4.4450  -4.3991  -4.3685
    -4.3489  -4.3446  -4.2724  -4.2331  -4.1209  -4.0836  -4.0749  -4.0213
    -4.0008  -3.9919  -3.9268  -3.9253  -3.8003  -3.7815  -3.7715  -3.7508
    -3.7010  -3.6842  -3.6792  -3.6626  -3.5301  -3.4803  -3.4557  -3.4314
    -3.0942  -3.0457  -2.9987  -2.9905  -2.8309  -2.8098  -2.7956  -2.7854
    -2.7050  -2.7004  -2.6945  -2.6866  -2.4266  -2.4081  -2.3669  -2.3497
    -2.1661  -2.1529  -2.1134  -2.0807  -2.0050  -1.9929  -1.9256  -1.9155
    -1.8996  -1.8888  -1.8280  -1.7401  -1.6966  -1.6740  -1.6505  -1.6250
    -1.5805  -1.5507  -1.5443  -1.4935  -1.4782  -1.4418  -1.4035  -1.3911
    -1.2046  -1.1677  -1.1367  -1.1075  -1.0182  -0.9858  -0.9466  -0.9391
    -0.8701  -0.8097  -0.8067  -0.7739  -0.5896  -0.5386  -0.4600  -0.4568
    -0.0824  -0.0623  -0.0043   0.0026   0.3172   0.3221   0.4876   0.4963
     4.4592   4.5142   4.5677   4.6861   5.0130   5.0289   5.1560   5.1877
     5.2711   5.2873   5.3505   5.3594   6.0676   6.2828   6.3508   6.5934
     6.6436   6.6746   7.1114   7.2703   7.2738   7.3044   7.4071   7.4807
     7.4990   7.5651   7.6161   7.7538   7.7597   7.9163   7.9776   7.9905
     8.1272   8.2026   8.3024   8.3608

          k = 0.0000 0.6566-0.6955 (136690 PWs)   bands (ev):

   -22.0240 -22.0240 -22.0070 -22.0070 -20.3894 -20.3894 -20.3712 -20.3712
   -19.3458 -19.3458 -19.3398 -19.3398 -15.3353 -15.3353 -15.3311 -15.3311
   -13.7806 -13.7806 -13.7478 -13.7478 -13.3581 -13.3581 -13.3515 -13.3515
   -12.7890 -12.7890 -12.7795 -12.7795 -11.9410 -11.9410 -11.9162 -11.9162
   -11.5169 -11.5169 -11.5022 -11.5022 -10.4880 -10.4880 -10.4577 -10.4577
    -9.4673  -9.4672  -9.4271  -9.4271  -9.3291  -9.3291  -9.2916  -9.2916
    -8.8180  -8.8180  -8.7885  -8.7885  -8.0538  -8.0538  -8.0437  -8.0437
    -7.7066  -7.7066  -7.5874  -7.5874  -7.2656  -7.2656  -7.2132  -7.2132
    -6.5337  -6.5337  -6.5021  -6.5021  -6.2004  -6.2004  -6.1532  -6.1531
    -5.7358  -5.7358  -5.7019  -5.7019  -5.4212  -5.4212  -5.3809  -5.3809
    -5.2841  -5.2841  -5.1895  -5.1895  -4.9726  -4.9726  -4.8245  -4.8245
    -4.6186  -4.6186  -4.5781  -4.5781  -4.4662  -4.4662  -4.3963  -4.3963
    -4.3293  -4.3293  -4.2570  -4.2570  -4.1039  -4.1039  -4.0489  -4.0489
    -3.9840  -3.9840  -3.9479  -3.9479  -3.7969  -3.7969  -3.7518  -3.7518
    -3.7088  -3.7088  -3.6656  -3.6656  -3.4928  -3.4928  -3.4554  -3.4554
    -3.0666  -3.0666  -3.0138  -3.0138  -2.8127  -2.8127  -2.7830  -2.7830
    -2.7018  -2.7018  -2.6820  -2.6820  -2.4027  -2.4027  -2.3718  -2.3718
    -2.1589  -2.1589  -2.1148  -2.1148  -1.9727  -1.9727  -1.9144  -1.9144
    -1.8601  -1.8601  -1.7924  -1.7924  -1.6692  -1.6692  -1.6496  -1.6496
    -1.5771  -1.5771  -1.5349  -1.5349  -1.4669  -1.4669  -1.4066  -1.4066
    -1.1826  -1.1826  -1.1388  -1.1388  -1.0107  -1.0107  -0.9304  -0.9304
    -0.8708  -0.8708  -0.7684  -0.7684  -0.5424  -0.5424  -0.4698  -0.4698
    -0.0498  -0.0498  -0.0263  -0.0263   0.4013   0.4013   0.4143   0.4143
     4.4723   4.4723   4.6361   4.6361   5.0830   5.0830   5.1172   5.1172
     5.2938   5.2938   5.3225   5.3225   6.1014   6.1014   6.4382   6.4382
     7.0019   7.0020   7.0221   7.0221   7.2361   7.2361   7.4326   7.4326
     7.5795   7.5795   7.6564   7.6564   7.7656   7.7656   8.0714   8.0714
     8.1660   8.1660   8.2601   8.2601

          k =-0.5000 0.0000-0.0796 (136720 PWs)   bands (ev):

   -22.0381 -22.0238 -22.0056 -21.9947 -20.4006 -20.3932 -20.3651 -20.3607
   -19.3478 -19.3437 -19.3423 -19.3386 -15.3550 -15.3404 -15.3266 -15.3189
   -13.8254 -13.7584 -13.7476 -13.7317 -13.3498 -13.3433 -13.3367 -13.3306
   -12.8348 -12.8034 -12.7656 -12.7407 -11.9542 -11.9434 -11.9129 -11.9023
   -11.5553 -11.5543 -11.5147 -11.4878 -10.5077 -10.4809 -10.4106 -10.4075
    -9.4649  -9.4587  -9.4581  -9.4385  -9.3748  -9.3094  -9.3088  -9.3080
    -8.8233  -8.8107  -8.8064  -8.7592  -8.1623  -8.1145  -7.9965  -7.9807
    -7.7711  -7.6463  -7.5982  -7.5535  -7.3565  -7.2278  -7.2254  -7.1758
    -6.5408  -6.4933  -6.4640  -6.4598  -6.1963  -6.1855  -6.1648  -6.1361
    -5.8414  -5.6762  -5.6601  -5.6157  -5.5295  -5.4877  -5.4261  -5.4260
    -5.3282  -5.3145  -5.3088  -5.1656  -4.9341  -4.8888  -4.8598  -4.8044
    -4.6409  -4.6393  -4.6327  -4.5744  -4.4003  -4.3553  -4.3451  -4.3231
    -4.2958  -4.2767  -4.2084  -4.1926  -4.1683  -4.0806  -4.0625  -3.9953
    -3.9789  -3.9452  -3.9244  -3.8961  -3.8085  -3.7981  -3.7870  -3.7793
    -3.7438  -3.7065  -3.6797  -3.5746  -3.5719  -3.3773  -3.3698  -3.3034
    -3.0981  -3.0325  -3.0081  -2.9761  -2.9633  -2.8886  -2.8420  -2.8313
    -2.7854  -2.7643  -2.7523  -2.7514  -2.4112  -2.3404  -2.3212  -2.2835
    -2.1891  -2.1850  -2.1630  -2.1128  -2.1079  -1.9884  -1.9679  -1.9172
    -1.8711  -1.8344  -1.7178  -1.7056  -1.6883  -1.6583  -1.6434  -1.6315
    -1.5776  -1.5466  -1.5188  -1.4781  -1.4603  -1.4388  -1.4223  -1.3860
    -1.2350  -1.2156  -1.1838  -1.1076  -1.1043  -1.0873  -0.9486  -0.9162
    -0.8998  -0.8634  -0.8099  -0.6935  -0.6022  -0.5199  -0.4892  -0.4855
    -0.0555  -0.0118   0.0014   0.0197   0.4004   0.4172   0.4221   0.4292
     4.4271   4.4365   4.6141   4.7695   5.0535   5.0611   5.1213   5.1563
     5.2404   5.2980   5.3304   5.3671   6.0462   6.0931   6.3003   6.3555
     6.6344   7.0216   7.0461   7.1383   7.1672   7.2681   7.3021   7.3748
     7.4243   7.6105   7.6659   7.7273   7.7533   7.8874   7.9913   8.0345
     8.0645   8.1374   8.3188   8.3981

          k =-0.5000 0.0000-0.7751 (136756 PWs)   bands (ev):

   -22.0322 -22.0322 -21.9989 -21.9989 -20.3971 -20.3971 -20.3626 -20.3626
   -19.3464 -19.3464 -19.3398 -19.3398 -15.3412 -15.3412 -15.3295 -15.3295
   -13.7999 -13.7999 -13.7324 -13.7324 -13.3432 -13.3432 -13.3369 -13.3369
   -12.7986 -12.7986 -12.7723 -12.7723 -11.9481 -11.9481 -11.9086 -11.9086
   -11.5383 -11.5383 -11.5196 -11.5196 -10.4954 -10.4954 -10.4084 -10.4084
    -9.4575  -9.4575  -9.4528  -9.4528  -9.3417  -9.3417  -9.3031  -9.3031
    -8.8225  -8.8225  -8.7808  -8.7808  -8.0863  -8.0863  -8.0404  -8.0404
    -7.7297  -7.7297  -7.5583  -7.5583  -7.3004  -7.3004  -7.1946  -7.1946
    -6.5144  -6.5144  -6.4764  -6.4764  -6.1851  -6.1851  -6.1484  -6.1484
    -5.7679  -5.7679  -5.6384  -5.6384  -5.4807  -5.4807  -5.4471  -5.4471
    -5.3238  -5.3238  -5.2161  -5.2161  -4.9285  -4.9285  -4.8446  -4.8446
    -4.6381  -4.6381  -4.5718  -4.5718  -4.4211  -4.4211  -4.3024  -4.3024
    -4.2425  -4.2425  -4.2231  -4.2231  -4.1205  -4.1205  -4.0090  -4.0090
    -3.9443  -3.9443  -3.9230  -3.9230  -3.8171  -3.8171  -3.7920  -3.7920
    -3.7518  -3.7518  -3.6445  -3.6445  -3.4491  -3.4491  -3.3408  -3.3408
    -3.0910  -3.0910  -2.9951  -2.9951  -2.9034  -2.9034  -2.8307  -2.8307
    -2.7807  -2.7807  -2.7553  -2.7553  -2.3798  -2.3798  -2.2986  -2.2986
    -2.2032  -2.2032  -2.1508  -2.1508  -2.0061  -2.0061  -1.9045  -1.9045
    -1.8223  -1.8223  -1.8086  -1.8086  -1.6681  -1.6681  -1.5877  -1.5877
    -1.5653  -1.5653  -1.5425  -1.5425  -1.4438  -1.4438  -1.3990  -1.3990
    -1.2309  -1.2309  -1.1897  -1.1897  -1.0103  -1.0103  -0.9610  -0.9610
    -0.8438  -0.8438  -0.8304  -0.8304  -0.5378  -0.5378  -0.4854  -0.4854
    -0.0309  -0.0309   0.0084   0.0084   0.4120   0.4120   0.4302   0.4302
     4.4210   4.4210   4.6999   4.6999   5.0595   5.0595   5.1396   5.1396
     5.2888   5.2888   5.3139   5.3139   6.0243   6.0243   6.5396   6.5396
     6.8368   6.8368   6.9293   6.9293   7.1136   7.1136   7.3625   7.3625
     7.3991   7.3991   7.7101   7.7101   8.0198   8.0198   8.0259   8.0259
     8.1798   8.1798   8.2739   8.2739

          k =-0.5000 0.6566-0.0796 (136688 PWs)   bands (ev):

   -22.0276 -22.0188 -22.0105 -22.0051 -20.3925 -20.3852 -20.3749 -20.3687
   -19.3469 -19.3441 -19.3413 -19.3388 -15.3466 -15.3384 -15.3252 -15.3224
   -13.8024 -13.7618 -13.7502 -13.7386 -13.3711 -13.3670 -13.3438 -13.3408
   -12.8173 -12.8010 -12.7656 -12.7537 -11.9438 -11.9339 -11.9288 -11.9057
   -11.5259 -11.5254 -11.5035 -11.4861 -10.5029 -10.4855 -10.4529 -10.4480
    -9.4898  -9.4794  -9.4119  -9.4095  -9.3402  -9.3033  -9.3020  -9.2952
    -8.8425  -8.8300  -8.7670  -8.7618  -8.1132  -8.0877  -7.9906  -7.9795
    -7.7583  -7.7050  -7.5996  -7.5642  -7.3162  -7.2513  -7.2071  -7.1816
    -6.5502  -6.5171  -6.4946  -6.4903  -6.2019  -6.1667  -6.1657  -6.1392
    -5.8693  -5.8073  -5.6602  -5.6287  -5.4237  -5.3939  -5.3782  -5.3406
    -5.3366  -5.2684  -5.2531  -5.1461  -4.9597  -4.9225  -4.8565  -4.7625
    -4.6822  -4.6119  -4.5822  -4.5764  -4.4847  -4.4507  -4.4069  -4.3983
    -4.3228  -4.3091  -4.2354  -4.2338  -4.1719  -4.1293  -4.1172  -4.0359
    -3.9911  -3.9878  -3.9656  -3.9362  -3.7996  -3.7859  -3.7462  -3.7428
    -3.7148  -3.6563  -3.6562  -3.6341  -3.5323  -3.4325  -3.4293  -3.4162
    -3.1047  -3.0637  -3.0144  -2.9769  -2.8727  -2.8254  -2.8097  -2.7582
    -2.7111  -2.7079  -2.6986  -2.6802  -2.4479  -2.3831  -2.3794  -2.3329
    -2.1736  -2.1417  -2.1126  -2.1039  -2.0173  -1.9614  -1.9592  -1.9336
    -1.8970  -1.8915  -1.8193  -1.7178  -1.6817  -1.6576  -1.6475  -1.6219
    -1.5730  -1.5598  -1.5090  -1.5027  -1.4887  -1.4505  -1.4004  -1.3908
    -1.2236  -1.1847  -1.1251  -1.1111  -0.9966  -0.9483  -0.9453  -0.9195
    -0.8816  -0.8574  -0.8253  -0.7744  -0.6127  -0.5399  -0.4454  -0.4396
    -0.0826  -0.0615  -0.0067   0.0034   0.3147   0.3225   0.4914   0.4941
     4.4605   4.5148   4.5666   4.6855   5.0116   5.0306   5.1475   5.1849
     5.2693   5.2932   5.3356   5.3779   6.0738   6.2824   6.3008   6.5164
     6.6402   6.8688   7.1005   7.2198   7.3171   7.3401   7.3551   7.4284
     7.5438   7.5820   7.6676   7.7722   7.8002   7.8944   7.9113   7.9406
     8.1556   8.1622   8.3188   8.3862

          k =-0.5000 0.6566-0.7751 (136626 PWs)   bands (ev):

   -22.0240 -22.0240 -22.0070 -22.0070 -20.3894 -20.3894 -20.3712 -20.3712
   -19.3458 -19.3458 -19.3398 -19.3398 -15.3370 -15.3370 -15.3295 -15.3295
   -13.7840 -13.7840 -13.7435 -13.7435 -13.3578 -13.3578 -13.3533 -13.3533
   -12.7906 -12.7906 -12.7772 -12.7772 -11.9405 -11.9405 -11.9154 -11.9154
   -11.5168 -11.5168 -11.5039 -11.5039 -10.4950 -10.4950 -10.4502 -10.4502
    -9.4651  -9.4651  -9.4312  -9.4312  -9.3242  -9.3242  -9.2954  -9.2954
    -8.8125  -8.8125  -8.7921  -8.7921  -8.0602  -8.0602  -8.0391  -8.0391
    -7.7114  -7.7114  -7.5819  -7.5819  -7.2660  -7.2660  -7.2119  -7.2119
    -6.5260  -6.5260  -6.5110  -6.5110  -6.1948  -6.1948  -6.1521  -6.1521
    -5.7855  -5.7855  -5.6717  -5.6717  -5.4159  -5.4159  -5.3653  -5.3653
    -5.2815  -5.2815  -5.1933  -5.1933  -4.9613  -4.9613  -4.8416  -4.8416
    -4.6239  -4.6239  -4.5794  -4.5794  -4.4474  -4.4474  -4.4029  -4.4029
    -4.2949  -4.2949  -4.2649  -4.2649  -4.1660  -4.1660  -4.0492  -4.0492
    -3.9789  -3.9789  -3.9615  -3.9614  -3.7902  -3.7902  -3.7587  -3.7587
    -3.7012  -3.7012  -3.6413  -3.6413  -3.5057  -3.5057  -3.4070  -3.4070
    -3.0755  -3.0755  -3.0113  -3.0113  -2.8424  -2.8424  -2.7819  -2.7819
    -2.7115  -2.7115  -2.6748  -2.6748  -2.4168  -2.4168  -2.3538  -2.3538
    -2.1509  -2.1509  -2.1270  -2.1270  -1.9770  -1.9770  -1.8967  -1.8967
    -1.8585  -1.8585  -1.7969  -1.7969  -1.6851  -1.6851  -1.6380  -1.6380
    -1.5813  -1.5813  -1.5553  -1.5553  -1.4427  -1.4427  -1.4015  -1.4015
    -1.1676  -1.1676  -1.1507  -1.1507  -0.9806  -0.9806  -0.9444  -0.9444
    -0.8728  -0.8728  -0.7958  -0.7958  -0.5524  -0.5524  -0.4516  -0.4516
    -0.0510  -0.0510  -0.0253  -0.0253   0.4034   0.4034   0.4122   0.4122
     4.4721   4.4721   4.6365   4.6365   5.0741   5.0741   5.1218   5.1218
     5.2877   5.2877   5.3316   5.3316   6.0949   6.0949   6.4497   6.4497
     6.8934   6.8934   7.1650   7.1650   7.2358   7.2358   7.4097   7.4097
     7.5949   7.5949   7.6863   7.6863   7.8394   7.8394   7.9143   7.9143
     8.1516   8.1516   8.2355   8.2355

     highest occupied, lowest unoccupied level (ev):     0.4963    4.4198

!    total energy              =   -1618.02257434 Ry
     Harris-Foulkes estimate   =   -1618.02257434 Ry
     estimated scf accuracy    <          6.0E-09 Ry

     total all-electron energy =     -6158.974651 Ry

     The total energy is the sum of the following terms:

     one-electron contribution =   -1052.06571942 Ry
     hartree contribution      =     664.05424308 Ry
     xc contribution           =    -372.67670375 Ry
     ewald contribution        =    -369.94840225 Ry
     Dispersion Correction     =      -0.67674062 Ry
     one-center paw contrib.   =    -486.70925137 Ry

     convergence has been achieved in  19 iterations

     Forces acting on atoms (cartesian axes, Ry/au):

     atom    1 type  4   force =     0.00037400   -0.00086503   -0.00029757
     atom    2 type  4   force =    -0.00037301   -0.00086546    0.00029390
     atom    3 type  4   force =    -0.00037400    0.00086503    0.00029757
     atom    4 type  4   force =     0.00037301    0.00086546   -0.00029390
     atom    5 type  4   force =     0.00122547    0.00041270   -0.00157632
     atom    6 type  4   force =    -0.00122398    0.00041650    0.00157864
     atom    7 type  4   force =    -0.00122547   -0.00041270    0.00157632
     atom    8 type  4   force =     0.00122398   -0.00041650   -0.00157864
     atom    9 type  4   force =     0.00047855   -0.00051951    0.00021857
     atom   10 type  4   force =    -0.00047947   -0.00052113   -0.00021722
     atom   11 type  4   force =    -0.00047855    0.00051951   -0.00021857
     atom   12 type  4   force =     0.00047947    0.00052113    0.00021722
     atom   13 type  1   force =    -0.00019481   -0.00046878    0.00073576
     atom   14 type  1   force =     0.00019488   -0.00046940   -0.00073918
     atom   15 type  1   force =     0.00019481    0.00046878   -0.00073576
     atom   16 type  1   force =    -0.00019488    0.00046940    0.00073918
     atom   17 type  1   force =    -0.00062528    0.00079790    0.00109124
     atom   18 type  1   force =     0.00062543    0.00079845   -0.00109758
     atom   19 type  1   force =     0.00062528   -0.00079790   -0.00109124
     atom   20 type  1   force =    -0.00062543   -0.00079845    0.00109758
     atom   21 type  1   force =     0.00006811   -0.00017738   -0.00020220
     atom   22 type  1   force =    -0.00006778   -0.00017697    0.00020334
     atom   23 type  1   force =    -0.00006811    0.00017738    0.00020220
     atom   24 type  1   force =     0.00006778    0.00017697   -0.00020334
     atom   25 type  1   force =     0.00116572   -0.00012699   -0.00027245
     atom   26 type  1   force =    -0.00116552   -0.00012715    0.00026748
     atom   27 type  1   force =    -0.00116572    0.00012699    0.00027245
     atom   28 type  1   force =     0.00116552    0.00012715   -0.00026748
     atom   29 type  1   force =    -0.00005911    0.00031779   -0.00080114
     atom   30 type  1   force =     0.00005972    0.00031776    0.00079546
     atom   31 type  1   force =     0.00005911   -0.00031779    0.00080114
     atom   32 type  1   force =    -0.00005972   -0.00031776   -0.00079546
     atom   33 type  1   force =    -0.00007845    0.00042466    0.00038811
     atom   34 type  1   force =     0.00007828    0.00042534   -0.00038969
     atom   35 type  1   force =     0.00007845   -0.00042466   -0.00038811
     atom   36 type  1   force =    -0.00007828   -0.00042534    0.00038969
     atom   37 type  1   force =     0.00079610    0.00050436    0.00013794
     atom   38 type  1   force =    -0.00079722    0.00050426   -0.00013938
     atom   39 type  1   force =    -0.00079610   -0.00050436   -0.00013794
     atom   40 type  1   force =     0.00079722   -0.00050426    0.00013938
     atom   41 type  1   force =    -0.00171834   -0.00268711   -0.00103876
     atom   42 type  1   force =     0.00171823   -0.00268790    0.00103296
     atom   43 type  1   force =     0.00171834    0.00268711    0.00103876
     atom   44 type  1   force =    -0.00171823    0.00268790   -0.00103296
     atom   45 type  1   force =     0.00080054    0.00115617    0.00117593
     atom   46 type  1   force =    -0.00080139    0.00115574   -0.00118452
     atom   47 type  1   force =    -0.00080054   -0.00115617   -0.00117593
     atom   48 type  1   force =     0.00080139   -0.00115574    0.00118452
     atom   49 type  1   force =     0.00099112   -0.00093353   -0.00092964
     atom   50 type  1   force =    -0.00099012   -0.00093237    0.00092801
     atom   51 type  1   force =    -0.00099112    0.00093353    0.00092964
     atom   52 type  1   force =     0.00099012    0.00093237   -0.00092801
     atom   53 type  1   force =    -0.00008186    0.00036320    0.00038319
     atom   54 type  1   force =     0.00008189    0.00036370   -0.00038381
     atom   55 type  1   force =     0.00008186   -0.00036320   -0.00038319
     atom   56 type  1   force =    -0.00008189   -0.00036370    0.00038381
     atom   57 type  1   force =     0.00005353    0.00073627   -0.00034679
     atom   58 type  1   force =    -0.00005381    0.00073569    0.00034668
     atom   59 type  1   force =    -0.00005353   -0.00073627    0.00034679
     atom   60 type  1   force =     0.00005381   -0.00073569   -0.00034668
     atom   61 type  1   force =    -0.00115681    0.00105453    0.00186301
     atom   62 type  1   force =     0.00115740    0.00105529   -0.00186238
     atom   63 type  1   force =     0.00115681   -0.00105453   -0.00186301
     atom   64 type  1   force =    -0.00115740   -0.00105529    0.00186238
     atom   65 type  1   force =     0.00042295    0.00161385    0.00005498
     atom   66 type  1   force =    -0.00042281    0.00161349   -0.00006363
     atom   67 type  1   force =    -0.00042295   -0.00161385   -0.00005498
     atom   68 type  1   force =     0.00042281   -0.00161349    0.00006363
     atom   69 type  3   force =    -0.00020765   -0.00017222    0.00040635
     atom   70 type  3   force =     0.00020784   -0.00017218   -0.00040643
     atom   71 type  3   force =     0.00020765    0.00017222   -0.00040635
     atom   72 type  3   force =    -0.00020784    0.00017218    0.00040643
     atom   73 type  3   force =     0.00016418   -0.00088638   -0.00072826
     atom   74 type  3   force =    -0.00016407   -0.00088611    0.00072799
     atom   75 type  3   force =    -0.00016418    0.00088638    0.00072826
     atom   76 type  3   force =     0.00016407    0.00088611   -0.00072799
     atom   77 type  3   force =     0.00007337    0.00076010   -0.00067067
     atom   78 type  3   force =    -0.00007334    0.00076031    0.00067053
     atom   79 type  3   force =    -0.00007337   -0.00076010    0.00067067
     atom   80 type  3   force =     0.00007334   -0.00076031   -0.00067053
     atom   81 type  3   force =     0.00006102    0.00016178    0.00017298
     atom   82 type  3   force =    -0.00006095    0.00016142   -0.00017249
     atom   83 type  3   force =    -0.00006102   -0.00016178   -0.00017298
     atom   84 type  3   force =     0.00006095   -0.00016142    0.00017249
     atom   85 type  3   force =     0.00035972   -0.00058480   -0.00004747
     atom   86 type  3   force =    -0.00035974   -0.00058482    0.00004763
     atom   87 type  3   force =    -0.00035972    0.00058480    0.00004747
     atom   88 type  3   force =     0.00035974    0.00058482   -0.00004763
     atom   89 type  3   force =     0.00004801    0.00007372   -0.00044326
     atom   90 type  3   force =    -0.00004798    0.00007397    0.00044292
     atom   91 type  3   force =    -0.00004801   -0.00007372    0.00044326
     atom   92 type  3   force =     0.00004798   -0.00007397   -0.00044292
     atom   93 type  3   force =     0.00017213   -0.00004413   -0.00057216
     atom   94 type  3   force =    -0.00017225   -0.00004406    0.00057198
     atom   95 type  3   force =    -0.00017213    0.00004413    0.00057216
     atom   96 type  3   force =     0.00017225    0.00004406   -0.00057198
     atom   97 type  3   force =     0.00053107    0.00000923    0.00013038
     atom   98 type  3   force =    -0.00053101    0.00000925   -0.00013049
     atom   99 type  3   force =    -0.00053107   -0.00000923   -0.00013038
     atom  100 type  3   force =     0.00053101   -0.00000925    0.00013049
     atom  101 type  3   force =     0.00046760   -0.00007322    0.00019391
     atom  102 type  3   force =    -0.00046754   -0.00007330   -0.00019378
     atom  103 type  3   force =    -0.00046760    0.00007322   -0.00019391
     atom  104 type  3   force =     0.00046754    0.00007330    0.00019378
     atom  105 type  3   force =     0.00006110    0.00051346    0.00067069
     atom  106 type  3   force =    -0.00006118    0.00051373   -0.00067049
     atom  107 type  3   force =    -0.00006110   -0.00051346   -0.00067069
     atom  108 type  3   force =     0.00006118   -0.00051373    0.00067049
     atom  109 type  3   force =    -0.00008934   -0.00025773   -0.00056859
     atom  110 type  3   force =     0.00008952   -0.00025792    0.00056836
     atom  111 type  3   force =     0.00008934    0.00025773    0.00056859
     atom  112 type  3   force =    -0.00008952    0.00025792   -0.00056836
     atom  113 type  3   force =    -0.00009450    0.00086044    0.00001838
     atom  114 type  3   force =     0.00009429    0.00086039   -0.00001856
     atom  115 type  3   force =     0.00009450   -0.00086044   -0.00001838
     atom  116 type  3   force =    -0.00009429   -0.00086039    0.00001856
     atom  117 type  3   force =    -0.00004174   -0.00158401   -0.00037252
     atom  118 type  3   force =     0.00004168   -0.00158430    0.00037280
     atom  119 type  3   force =     0.00004174    0.00158401    0.00037252
     atom  120 type  3   force =    -0.00004168    0.00158430   -0.00037280
     atom  121 type  3   force =     0.00050331   -0.00039016   -0.00005840
     atom  122 type  3   force =    -0.00050368   -0.00039049    0.00005819
     atom  123 type  3   force =    -0.00050331    0.00039016    0.00005840
     atom  124 type  3   force =     0.00050368    0.00039049   -0.00005819
     atom  125 type  3   force =    -0.00000209    0.00023702   -0.00040677
     atom  126 type  3   force =     0.00000174    0.00023688    0.00040590
     atom  127 type  3   force =     0.00000209   -0.00023702    0.00040677
     atom  128 type  3   force =    -0.00000174   -0.00023688   -0.00040590
     atom  129 type  3   force =     0.00009601   -0.00015370    0.00023013
     atom  130 type  3   force =    -0.00009593   -0.00015339   -0.00023064
     atom  131 type  3   force =    -0.00009601    0.00015370   -0.00023013
     atom  132 type  3   force =     0.00009593    0.00015339    0.00023064
     atom  133 type  3   force =     0.00018938   -0.00000356    0.00058903
     atom  134 type  3   force =    -0.00018957   -0.00000376   -0.00058926
     atom  135 type  3   force =    -0.00018938    0.00000356   -0.00058903
     atom  136 type  3   force =     0.00018957    0.00000376    0.00058926
     atom  137 type  3   force =     0.00079733   -0.00026182    0.00001026
     atom  138 type  3   force =    -0.00079735   -0.00026197   -0.00001008
     atom  139 type  3   force =    -0.00079733    0.00026182   -0.00001026
     atom  140 type  3   force =     0.00079735    0.00026197    0.00001008

     Total force =     0.014114     Total SCF correction =     0.000188


     Computing stress (Cartesian axis) and pressure

          total   stress  (Ry/bohr**3)                   (kbar)     P=   -6.91
  -0.00003644   0.00000000   0.00000145         -5.36      0.00      0.21
   0.00000000  -0.00004862  -0.00000000          0.00     -7.15     -0.00
   0.00000145  -0.00000000  -0.00005592          0.21     -0.00     -8.23


     Writing output data file scf.save
 
     init_run     :     72.48s CPU     75.19s WALL (       1 calls)
     electrons    :   2782.63s CPU   2893.68s WALL (       1 calls)
     forces       :     34.66s CPU     34.99s WALL (       1 calls)
     stress       :    239.78s CPU    240.30s WALL (       1 calls)

     Called by init_run:
     wfcinit      :     57.13s CPU     59.61s WALL (       1 calls)
     potinit      :      5.44s CPU      5.49s WALL (       1 calls)

     Called by electrons:
     c_bands      :   2506.17s CPU   2601.61s WALL (      19 calls)
     sum_band     :    251.16s CPU    264.29s WALL (      19 calls)
     v_of_rho     :      3.26s CPU      3.53s WALL (      20 calls)
     newd         :      8.59s CPU     10.76s WALL (      20 calls)
     PAW_pot      :     12.30s CPU     12.31s WALL (      20 calls)
     mix_rho      :      0.86s CPU      0.91s WALL (      19 calls)

     Called by c_bands:
     init_us_2    :     17.83s CPU     17.88s WALL (     328 calls)
     cegterg      :   2442.32s CPU   2537.67s WALL (     152 calls)

     Called by sum_band:
     sum_band:bec :      0.14s CPU      0.14s WALL (     152 calls)
     addusdens    :      8.79s CPU     10.88s WALL (      19 calls)

     Called by *egterg:
     h_psi        :   1377.18s CPU   1450.88s WALL (     757 calls)
     s_psi        :    278.80s CPU    278.82s WALL (     757 calls)
     g_psi        :      9.33s CPU      9.33s WALL (     597 calls)
     cdiaghg      :    141.63s CPU    141.66s WALL (     749 calls)

     Called by h_psi:
     h_psi:pot    :   1366.77s CPU   1440.32s WALL (     757 calls)
     h_psi:calbec :    265.36s CPU    265.83s WALL (     757 calls)
     vloc_psi     :    822.78s CPU    895.82s WALL (     757 calls)
     add_vuspsi   :    278.62s CPU    278.66s WALL (     757 calls)

     General routines
     calbec       :    374.78s CPU    375.44s WALL (     949 calls)
     fft          :      1.79s CPU      2.30s WALL (     284 calls)
     fftw         :    875.35s CPU    958.99s WALL (  234206 calls)
 
     Parallel routines
     fft_scatter  :    150.59s CPU    227.59s WALL (  234490 calls)
 
     PWSCF        : 52m25.91s CPU    55m15.40s WALL

 
   This run was terminated on:  13:19:17  13Nov2017            

=------------------------------------------------------------------------------=
   JOB DONE.
=------------------------------------------------------------------------------=
