
     Program PWSCF v.6.1 (svn rev. 13369) starts on 13Nov2017 at 12:24: 3 

     This program is part of the open-source Quantum ESPRESSO suite
     for quantum simulation of materials; please cite
         "P. Giannozzi et al., J. Phys.:Condens. Matter 21 395502 (2009);
          URL http://www.quantum-espresso.org", 
     in publications or presentations arising from this work. More details at
     http://www.quantum-espresso.org/quote

     Parallel version (MPI), running on     8 processors
     R & G space division:  proc/nbgrp/npool/nimage =       8
     Waiting for input...
     Reading input from standard input

     Current dimensions of program PWSCF are:
     Max number of different atomic species (ntypx) = 10
     Max number of k-points (npk) =  40000
     Max angular momentum in pseudopotentials (lmaxx) =  3
               file C.pbe-n-kjpaw_psl.0.1.UPF: wavefunction(s)  2P renormalized
               file N.pbe-n-kjpaw_psl.0.1.UPF: wavefunction(s)  2P renormalized
               file H.pbe-kjpaw_psl.0.1.UPF: wavefunction(s)  1S renormalized
               file O.pbe-n-kjpaw_psl.0.1.UPF: wavefunction(s)  2P renormalized

     -------------------------------------
     Parameters for Dispersion Correction:
     -------------------------------------
       atom      VdW radius       C_6     

        C          2.744         60.710
        N          2.640         42.670
        H          1.892          4.857
        O          2.536         24.284

     Subspace diagonalization in iterative solution of the eigenvalue problem:
     a serial algorithm will be used

 
     Parallelization info
     --------------------
     sticks:   dense  smooth     PW     G-vecs:    dense   smooth      PW
     Min        1753    1753    459               189565   189565   25519
     Max        1754    1754    460               189568   189568   25522
     Sum       14031   14031   3679              1516541  1516541  204163
 


     bravais-lattice index     =            0
     lattice parameter (alat)  =      19.5761  a.u.
     unit-cell volume          =   11225.5248 (a.u.)^3
     number of atoms/cell      =          164
     number of atomic types    =            4
     number of electrons       =       592.00
     number of Kohn-Sham states=          355
     kinetic-energy cutoff     =     100.0000  Ry
     charge density cutoff     =     400.0000  Ry
     convergence threshold     =      1.0E-08
     mixing beta               =       0.5000
     number of iterations used =            8  plain     mixing
     Exchange-correlation      =  SLA  PW   PBX  PBC ( 1  4  3  4 0 0)

     celldm(1)=  19.576051  celldm(2)=   0.000000  celldm(3)=   0.000000
     celldm(4)=   0.000000  celldm(5)=   0.000000  celldm(6)=   0.000000

     crystal axes: (cart. coord. in units of alat)
               a(1) = (   1.000000   0.000000   0.000000 )  
               a(2) = (   0.000000   1.150243   0.000000 )  
               a(3) = (  -0.059915   0.000000   1.300893 )  

     reciprocal axes: (cart. coord. in units 2 pi/alat)
               b(1) = (  1.000000  0.000000  0.046057 )  
               b(2) = (  0.000000  0.869381  0.000000 )  
               b(3) = (  0.000000  0.000000  0.768703 )  


     PseudoPot. # 1 for  C read from file:
     /scratch/ahofstet/pseudo/C.pbe-n-kjpaw_psl.0.1.UPF
     MD5 check sum: 430fe95172b1e11ef3f8ed03bac87931
     Pseudo is Projector augmented-wave + core cor, Zval =  4.0
     Generated using "atomic" code by A. Dal Corso  v.5.0.99 svn rev. 10869
     Shape of augmentation charge: BESSEL
     Using radial grid of 1073 points,  4 beta functions with: 
                l(1) =   0
                l(2) =   0
                l(3) =   1
                l(4) =   1
     Q(r) pseudized with 0 coefficients 


     PseudoPot. # 2 for  N read from file:
     /scratch/ahofstet/pseudo/N.pbe-n-kjpaw_psl.0.1.UPF
     MD5 check sum: f73187c8b701007e77325f868c9291d7
     Pseudo is Projector augmented-wave + core cor, Zval =  5.0
     Generated using "atomic" code by A. Dal Corso  v.5.0.99 svn rev. 10869
     Shape of augmentation charge: PSQ
     Using radial grid of 1085 points,  4 beta functions with: 
                l(1) =   0
                l(2) =   0
                l(3) =   1
                l(4) =   1
     Q(r) pseudized with 0 coefficients 


     PseudoPot. # 3 for  H read from file:
     /scratch/ahofstet/pseudo/H.pbe-kjpaw_psl.0.1.UPF
     MD5 check sum: 94e484f906d9e9773b2f6e52662335b2
     Pseudo is Projector augmented-wave, Zval =  1.0
     Generated using "atomic" code by A. Dal Corso  v.5.0.99 svn rev. 10869
     Shape of augmentation charge: PSQ
     Using radial grid of  929 points,  2 beta functions with: 
                l(1) =   0
                l(2) =   0
     Q(r) pseudized with 0 coefficients 


     PseudoPot. # 4 for  O read from file:
     /scratch/ahofstet/pseudo/O.pbe-n-kjpaw_psl.0.1.UPF
     MD5 check sum: 3f94a2996a3169367d6eb21d9b593f20
     Pseudo is Projector augmented-wave + core cor, Zval =  6.0
     Generated using "atomic" code by A. Dal Corso  v.5.0.99 svn rev. 10869
     Shape of augmentation charge: BESSEL
     Using radial grid of 1095 points,  4 beta functions with: 
                l(1) =   0
                l(2) =   0
                l(3) =   1
                l(4) =   1
     Q(r) pseudized with 0 coefficients 


     atomic species   valence    mass     pseudopotential
        C              4.00    12.01070      C( 1.00)
        N              5.00    14.00670      N( 1.00)
        H              1.00     1.00794      H( 1.00)
        O              6.00    15.99940      O( 1.00)

      2 Sym. Ops., with inversion, found



   Cartesian axes

     site n.     atom                  positions (alat units)
         1           C   tau(   1) = (   0.6264661   0.1929850   0.9107378  )
         2           C   tau(   2) = (   0.7836713   0.7681099   1.0403302  )
         3           C   tau(   3) = (   0.3136189   0.9572583   0.3901555  )
         4           C   tau(   4) = (   0.1564136   0.3821334   0.2605631  )
         5           C   tau(   5) = (   0.6201270   0.1887242   1.0593817  )
         6           C   tau(   6) = (   0.7900507   0.7638484   0.8916869  )
         7           C   tau(   7) = (   0.3199580   0.9615191   0.2415117  )
         8           C   tau(   8) = (   0.1500343   0.3863948   0.4092064  )
         9           H   tau(   9) = (   0.5209680   0.2049989   1.0927882  )
        10           H   tau(  10) = (   0.8892060   0.7801643   0.8582953  )
        11           H   tau(  11) = (   0.4191169   0.9452443   0.2081051  )
        12           H   tau(  12) = (   0.0508789   0.3700789   0.4425980  )
        13           H   tau(  13) = (   0.6557362   0.0960343   1.0964088  )
        14           H   tau(  14) = (   0.7544676   0.6711554   0.8546447  )
        15           H   tau(  15) = (   0.2843488   1.0542090   0.2044846  )
        16           H   tau(  16) = (   0.1856174   0.4790878   0.4462487  )
        17           O   tau(  17) = (   0.7026981   0.2917656   1.1057830  )
        18           O   tau(  18) = (   0.7074441   0.8668783   0.8453105  )
        19           O   tau(  19) = (   0.2373868   0.8584777   0.1951104  )
        20           O   tau(  20) = (   0.2326408   0.2833650   0.4555828  )
        21           N   tau(  21) = (   0.7167372   0.2926905   1.2433897  )
        22           N   tau(  22) = (   0.6933961   0.8678437   0.7077142  )
        23           N   tau(  23) = (   0.2233477   0.8575528   0.0575036  )
        24           N   tau(  24) = (   0.2466889   0.2823996   0.5931792  )
        25           O   tau(  25) = (   0.7143981   0.2149969   0.0043115  )
        26           O   tau(  26) = (   0.7556351   0.7901725   0.6458712  )
        27           O   tau(  27) = (   0.2256869   0.9352463   1.2965818  )
        28           O   tau(  28) = (   0.1844498   0.3600707   0.6550221  )
        29           O   tau(  29) = (   0.7917609   0.3749668   1.2797579  )
        30           O   tau(  30) = (   0.6183438   0.9501185   0.6713847  )
        31           O   tau(  31) = (   0.1483240   0.7752765   0.0211355  )
        32           O   tau(  32) = (   0.3217412   0.2001248   0.6295087  )
        33           C   tau(  33) = (   0.7625964   0.1497424   0.8701543  )
        34           C   tau(  34) = (   0.6475296   0.7248594   1.0808526  )
        35           C   tau(  35) = (   0.1774885   1.0005009   0.4307391  )
        36           C   tau(  36) = (   0.2925554   0.4253839   0.2200408  )
        37           H   tau(  37) = (   0.8356378   0.2062139   0.9216513  )
        38           H   tau(  38) = (   0.5744931   0.7813528   1.0293744  )
        39           H   tau(  39) = (   0.1044471   0.9440294   0.3792420  )
        40           H   tau(  40) = (   0.3655918   0.3688905   0.2715190  )
        41           H   tau(  41) = (   0.7763744   0.0466486   0.8905121  )
        42           H   tau(  42) = (   0.6337500   0.6217704   1.0604670  )
        43           H   tau(  43) = (   0.1637105   1.1035947   0.4103812  )
        44           H   tau(  44) = (   0.3063350   0.5284728   0.2404264  )
        45           O   tau(  45) = (   0.7743504   0.1735418   0.7326177  )
        46           O   tau(  46) = (   0.6357971   0.7486212   1.2184030  )
        47           O   tau(  47) = (   0.1657346   0.9767015   0.5682756  )
        48           O   tau(  48) = (   0.3042878   0.4016220   0.0824904  )
        49           N   tau(  49) = (   0.9034313   0.1577276   0.6853166  )
        50           N   tau(  50) = (   0.5067526   0.7328006   1.2657886  )
        51           N   tau(  51) = (   0.0366537   0.9925156   0.6155768  )
        52           N   tau(  52) = (   0.4333323   0.4174427   0.0351047  )
        53           O   tau(  53) = (  -0.0168760   0.1124318   0.7583712  )
        54           O   tau(  54) = (   0.4270037   0.6875352   1.1927283  )
        55           O   tau(  55) = (   0.9569610   1.0378115   0.5425221  )
        56           O   tau(  56) = (   0.5130812   0.4627081   0.1081650  )
        57           O   tau(  57) = (   0.9149765   0.1927933   0.5741965  )
        58           O   tau(  58) = (   0.5551847   0.7677952   0.0760134  )
        59           O   tau(  59) = (   0.0251084   0.9574500   0.7266968  )
        60           O   tau(  60) = (   0.3849003   0.3824481   1.2248799  )
        61           C   tau(  61) = (   0.5223317   0.1026483   0.8560961  )
        62           C   tau(  62) = (   0.8877863   0.6778010   1.0950547  )
        63           C   tau(  63) = (   0.4177533   1.0475949   0.4447973  )
        64           C   tau(  64) = (   0.0522986   0.4724422   0.2058387  )
        65           H   tau(  65) = (   0.4257255   0.1412300   0.8759438  )
        66           H   tau(  66) = (  -0.0155980   0.7163771   1.0752274  )
        67           H   tau(  67) = (   0.5143595   1.0090133   0.4249495  )
        68           H   tau(  68) = (   0.9556829   0.4338661   0.2256660  )
        69           H   tau(  69) = (   0.5346338   0.0907567   0.7513743  )
        70           H   tau(  70) = (   0.8754397   0.6659571   1.1997773  )
        71           H   tau(  71) = (   0.4054512   1.0594866   0.5495191  )
        72           H   tau(  72) = (   0.0646452   0.4842862   0.1011161  )
        73           O   tau(  73) = (   0.5373739   1.1299694   0.9205141  )
        74           O   tau(  74) = (   0.8727788   0.5548494   1.0306932  )
        75           O   tau(  75) = (   0.4027110   0.0202738   0.3803793  )
        76           O   tau(  76) = (   0.0673062   0.5953938   0.2702001  )
        77           N   tau(  77) = (   0.4335859   1.0423453   0.8945317  )
        78           N   tau(  78) = (  -0.0234796   0.4671983   1.0567867  )
        79           N   tau(  79) = (   0.5064990   0.1078979   0.4063617  )
        80           N   tau(  80) = (   0.9635645   0.6830450   0.2441066  )
        81           O   tau(  81) = (   0.3549417   1.0735715   0.8134164  )
        82           O   tau(  82) = (   0.0551286   0.4984957   1.1379838  )
        83           O   tau(  83) = (   0.5851432   0.0766717   0.4874770  )
        84           O   tau(  84) = (   0.8849564   0.6517476   0.1629095  )
        85           O   tau(  85) = (   0.4396310   0.9457971   0.9599571  )
        86           O   tau(  86) = (  -0.0294807   0.3706435   0.9914631  )
        87           O   tau(  87) = (   0.5004539   0.2044461   0.3409362  )
        88           O   tau(  88) = (   0.9695656   0.7795998   0.3094303  )
        89           C   tau(  89) = (   0.6002700   0.3293125   0.8584108  )
        90           C   tau(  90) = (   0.8098275   0.9044546   1.0926332  )
        91           C   tau(  91) = (   0.3398149   0.8209308   0.4424826  )
        92           C   tau(  92) = (   0.1302575   0.2457887   0.2082601  )
        93           H   tau(  93) = (   0.6768813   0.3962689   0.8877680  )
        94           H   tau(  94) = (   0.7332278   0.9713988   1.0632214  )
        95           H   tau(  95) = (   0.2632036   0.7539744   0.4131254  )
        96           H   tau(  96) = (   0.2068571   0.1788444   0.2376720  )
        97           H   tau(  97) = (   0.5966540   0.3281451   0.7525893  )
        98           H   tau(  98) = (   0.8133877   0.9033162   1.1984574  )
        99           H   tau(  99) = (   0.3434309   0.8220982   0.5483041  )
       100           H   tau( 100) = (   0.1266972   0.2469271   0.1024359  )
       101           O   tau( 101) = (   0.4766904   0.3715862   0.9073135  )
       102           O   tau( 102) = (   0.9334368   0.9467189   1.0437942  )
       103           O   tau( 103) = (   0.4633945   0.7786570   0.3935798  )
       104           O   tau( 104) = (   0.0066481   0.2035244   0.2570992  )
       105           C   tau( 105) = (   0.4456107   0.4968622   0.8832532  )
       106           C   tau( 106) = (  -0.0355111   1.0720093   1.0678479  )
       107           C   tau( 107) = (   0.4944742   0.6533810   0.4176401  )
       108           C   tau( 108) = (   0.9755960   0.0782339   0.2330455  )
       109           O   tau( 109) = (   0.5191877   0.5717972   0.8298702  )
       110           O   tau( 110) = (   0.8908751   1.1469512   1.1211208  )
       111           O   tau( 111) = (   0.4208972   0.5784461   0.4710231  )
       112           O   tau( 112) = (   0.0492098   0.0032921   0.1797726  )
       113           C   tau( 113) = (   0.3116697   0.5265082   0.9319772  )
       114           C   tau( 114) = (   0.0984947   1.1016296   1.0192646  )
       115           C   tau( 115) = (   0.6284152   0.6237351   0.3689161  )
       116           C   tau( 116) = (   0.8415902   0.0486137   0.2816288  )
       117           H   tau( 117) = (   0.3082155   0.4990956   1.0344972  )
       118           H   tau( 118) = (   0.1020480   1.0742090   0.9167520  )
       119           H   tau( 119) = (   0.6318694   0.6511477   0.2663962  )
       120           H   tau( 120) = (   0.8380369   0.0760343   0.3841413  )
       121           H   tau( 121) = (   0.2438795   0.4609647   0.8827324  )
       122           H   tau( 122) = (   0.1662288   1.0360780   1.0685764  )
       123           H   tau( 123) = (   0.6962054   0.6892785   0.4181610  )
       124           H   tau( 124) = (   0.7738561   0.1141652   0.2323169  )
       125           C   tau( 125) = (   0.2732286   0.6675876   0.9138950  )
       126           C   tau( 126) = (   0.1369287   0.0924659   1.0373685  )
       127           C   tau( 127) = (   0.6668563   0.4826557   0.3869984  )
       128           C   tau( 128) = (   0.8031563   1.0577774   0.2635248  )
       129           H   tau( 129) = (   0.1870918   0.6866558   0.9726410  )
       130           H   tau( 130) = (   0.2230796   0.1115436   0.9786460  )
       131           H   tau( 131) = (   0.7529932   0.4635875   0.3282524  )
       132           H   tau( 132) = (   0.7170053   1.0386997   0.3222473  )
       133           H   tau( 133) = (   0.3501508   0.7300078   0.9505861  )
       134           H   tau( 134) = (   0.0600113   0.1548840   1.0006636  )
       135           H   tau( 135) = (   0.5899341   0.4202354   0.3503073  )
       136           H   tau( 136) = (   0.8800736   0.9953592   0.3002298  )
       137           C   tau( 137) = (   0.2459812   0.7042274   0.7738537  )
       138           C   tau( 138) = (   0.1641383   0.1290909   1.1774332  )
       139           C   tau( 139) = (   0.6941037   0.4460159   0.5270396  )
       140           C   tau( 140) = (   0.7759466   1.0211524   0.1234601  )
       141           H   tau( 141) = (   0.2394321   0.8099165   0.7632321  )
       142           H   tau( 142) = (   0.1706756   0.2347807   1.1880645  )
       143           H   tau( 143) = (   0.7006528   0.3403267   0.5376612  )
       144           H   tau( 144) = (   0.7694093   0.9154626   0.1128289  )
       145           H   tau( 145) = (   0.3248027   0.6732258   0.7096883  )
       146           H   tau( 146) = (   0.0852942   0.0980802   1.2415664  )
       147           H   tau( 147) = (   0.6152822   0.4770175   0.5912051  )
       148           H   tau( 148) = (   0.8547907   1.0521630   0.0593270  )
       149           C   tau( 149) = (   0.1219540   0.6493519   0.7218747  )
       150           C   tau( 150) = (   0.2881580   0.0742219   1.2294385  )
       151           C   tau( 151) = (   0.8181310   0.5008914   0.5790187  )
       152           C   tau( 152) = (   0.6519269   1.0760213   0.0714548  )
       153           O   tau( 153) = (   0.0426645   0.5922311   0.7913419  )
       154           O   tau( 154) = (   0.3674732   0.0171044   1.1599870  )
       155           O   tau( 155) = (   0.8974205   0.5580122   0.5095515  )
       156           O   tau( 156) = (   0.5726118   1.1331389   0.1409064  )
       157           O   tau( 157) = (   0.1047304   0.6685790   0.5969929  )
       158           O   tau( 158) = (   0.3652734   0.0934496   0.0534315  )
       159           O   tau( 159) = (   0.8353545   0.4816643   0.7039005  )
       160           O   tau( 160) = (   0.5748116   1.0567936   1.2474618  )
       161           H   tau( 161) = (   0.0204909   0.6260518   0.5662659  )
       162           H   tau( 162) = (   0.4495085   0.0509349   0.0841625  )
       163           H   tau( 163) = (   0.9195941   0.5241914   0.7346275  )
       164           H   tau( 164) = (   0.4905764   1.0993084   1.2167308  )

     number of k points=     8
                       cart. coord. in units 2pi/alat
        k(    1) = (   0.0000000   0.0000000   0.0000000), wk =   0.2500000
        k(    2) = (   0.0000000   0.0000000  -0.3843513), wk =   0.2500000
        k(    3) = (   0.0000000  -0.4346907   0.0000000), wk =   0.2500000
        k(    4) = (   0.0000000  -0.4346907  -0.3843513), wk =   0.2500000
        k(    5) = (  -0.5000000   0.0000000  -0.0230284), wk =   0.2500000
        k(    6) = (  -0.5000000   0.0000000  -0.4073797), wk =   0.2500000
        k(    7) = (  -0.5000000  -0.4346907  -0.0230284), wk =   0.2500000
        k(    8) = (  -0.5000000  -0.4346907  -0.4073797), wk =   0.2500000

     Dense  grid:  1516541 G-vectors     FFT dimensions: ( 125, 144, 180)

     Estimated max dynamical RAM per process >    2705.93MB

     Estimated total allocated dynamical RAM >   21647.40MB

     Check: negative/imaginary core charge=   -0.000003    0.000000

     Initial potential from superposition of free atoms

     starting charge  591.99760, renormalised to  592.00000
     Starting wfc are  476 randomized atomic wfcs
     Checking if some PAW data can be deallocated... 

     total cpu time spent up to now is      198.3 secs

     per-process dynamical memory:  1708.9 Mb

     Self-consistent Calculation

     iteration #  1     ecut=   100.00 Ry     beta=0.50
     Davidson diagonalization with overlap
     ethr =  1.00E-02,  avg # of iterations =  3.0

     total cpu time spent up to now is      884.9 secs

     total energy              =   -3306.72531644 Ry
     Harris-Foulkes estimate   =   -3316.45217327 Ry
     estimated scf accuracy    <      17.53171980 Ry

     iteration #  2     ecut=   100.00 Ry     beta=0.50
     Davidson diagonalization with overlap
     ethr =  2.96E-03,  avg # of iterations =  3.8

     total cpu time spent up to now is     1362.1 secs

     total energy              =   -3309.84574803 Ry
     Harris-Foulkes estimate   =   -3312.10818349 Ry
     estimated scf accuracy    <       4.87600345 Ry

     iteration #  3     ecut=   100.00 Ry     beta=0.50
     Davidson diagonalization with overlap
     ethr =  8.24E-04,  avg # of iterations =  5.2

     total cpu time spent up to now is     1811.5 secs

     total energy              =   -3310.88248596 Ry
     Harris-Foulkes estimate   =   -3311.10922695 Ry
     estimated scf accuracy    <       0.59733281 Ry

     iteration #  4     ecut=   100.00 Ry     beta=0.50
     Davidson diagonalization with overlap
     ethr =  1.01E-04,  avg # of iterations =  9.6

     total cpu time spent up to now is     2457.7 secs

     total energy              =   -3311.00320472 Ry
     Harris-Foulkes estimate   =   -3311.04787528 Ry
     estimated scf accuracy    <       0.11304879 Ry

     iteration #  5     ecut=   100.00 Ry     beta=0.50
     Davidson diagonalization with overlap
     ethr =  1.91E-05,  avg # of iterations = 11.8

     total cpu time spent up to now is     2952.6 secs

     total energy              =   -3311.01913813 Ry
     Harris-Foulkes estimate   =   -3311.03137302 Ry
     estimated scf accuracy    <       0.03007083 Ry

     iteration #  6     ecut=   100.00 Ry     beta=0.50
     Davidson diagonalization with overlap
     c_bands:  1 eigenvalues not converged
     ethr =  5.08E-06,  avg # of iterations =  9.0

     total cpu time spent up to now is     3480.9 secs

     total energy              =   -3311.02677320 Ry
     Harris-Foulkes estimate   =   -3311.02846919 Ry
     estimated scf accuracy    <       0.00434521 Ry

     iteration #  7     ecut=   100.00 Ry     beta=0.50
     Davidson diagonalization with overlap
     ethr =  7.34E-07,  avg # of iterations =  2.6

     total cpu time spent up to now is     3863.9 secs

     total energy              =   -3311.02745644 Ry
     Harris-Foulkes estimate   =   -3311.02762979 Ry
     estimated scf accuracy    <       0.00046392 Ry

     iteration #  8     ecut=   100.00 Ry     beta=0.50
     Davidson diagonalization with overlap
     ethr =  7.84E-08,  avg # of iterations =  4.0

     total cpu time spent up to now is     4525.9 secs

     total energy              =   -3311.02767858 Ry
     Harris-Foulkes estimate   =   -3311.02777838 Ry
     estimated scf accuracy    <       0.00027911 Ry

     iteration #  9     ecut=   100.00 Ry     beta=0.50
     Davidson diagonalization with overlap
     ethr =  4.71E-08,  avg # of iterations =  3.0

     total cpu time spent up to now is     4904.6 secs

     total energy              =   -3311.02770627 Ry
     Harris-Foulkes estimate   =   -3311.02773409 Ry
     estimated scf accuracy    <       0.00007633 Ry

     iteration # 10     ecut=   100.00 Ry     beta=0.50
     Davidson diagonalization with overlap
     ethr =  1.29E-08,  avg # of iterations =  3.0

     total cpu time spent up to now is     5401.2 secs

     total energy              =   -3311.02772784 Ry
     Harris-Foulkes estimate   =   -3311.02773042 Ry
     estimated scf accuracy    <       0.00001060 Ry

     iteration # 11     ecut=   100.00 Ry     beta=0.50
     Davidson diagonalization with overlap
     ethr =  1.79E-09,  avg # of iterations =  4.0

     total cpu time spent up to now is     5814.9 secs

     total energy              =   -3311.02772947 Ry
     Harris-Foulkes estimate   =   -3311.02773062 Ry
     estimated scf accuracy    <       0.00000350 Ry

     iteration # 12     ecut=   100.00 Ry     beta=0.50
     Davidson diagonalization with overlap
     ethr =  5.92E-10,  avg # of iterations =  3.1

     total cpu time spent up to now is     6198.1 secs

     total energy              =   -3311.02773007 Ry
     Harris-Foulkes estimate   =   -3311.02773019 Ry
     estimated scf accuracy    <       0.00000044 Ry

     iteration # 13     ecut=   100.00 Ry     beta=0.50
     Davidson diagonalization with overlap
     ethr =  7.43E-11,  avg # of iterations =  4.0

     total cpu time spent up to now is     6835.6 secs

     total energy              =   -3311.02773029 Ry
     Harris-Foulkes estimate   =   -3311.02773035 Ry
     estimated scf accuracy    <       0.00000018 Ry

     iteration # 14     ecut=   100.00 Ry     beta=0.50
     Davidson diagonalization with overlap
     ethr =  2.98E-11,  avg # of iterations =  2.6

     total cpu time spent up to now is     7198.9 secs

     total energy              =   -3311.02773031 Ry
     Harris-Foulkes estimate   =   -3311.02773032 Ry
     estimated scf accuracy    <       0.00000003 Ry

     iteration # 15     ecut=   100.00 Ry     beta=0.50
     Davidson diagonalization with overlap
     ethr =  5.15E-12,  avg # of iterations =  4.0

     total cpu time spent up to now is     7822.0 secs

     total energy              =   -3311.02773033 Ry
     Harris-Foulkes estimate   =   -3311.02773033 Ry
     estimated scf accuracy    <       0.00000002 Ry

     iteration # 16     ecut=   100.00 Ry     beta=0.50
     Davidson diagonalization with overlap
     ethr =  3.09E-12,  avg # of iterations =  2.0

     total cpu time spent up to now is     8166.7 secs

     End of self-consistent calculation

          k = 0.0000 0.0000 0.0000 (189531 PWs)   bands (ev):

   -25.9220 -25.9194 -25.8928 -25.8903 -25.8499 -25.8491 -25.8481 -25.8473
   -25.8059 -25.8058 -25.8048 -25.8046 -21.3275 -21.3259 -21.2998 -21.2970
   -21.2844 -21.2820 -21.2667 -21.2659 -21.2657 -21.2651 -21.2352 -21.2337
   -21.2315 -21.2302 -21.1945 -21.1944 -21.1939 -21.1938 -20.9609 -20.9599
   -20.5547 -20.5527 -20.5524 -20.5505 -20.4397 -20.4369 -20.4355 -20.4335
   -20.4046 -20.4039 -20.3995 -20.3976 -19.0517 -19.0500 -19.0157 -19.0134
   -19.0110 -19.0088 -18.6514 -18.6501 -15.0267 -15.0200 -15.0159 -15.0120
   -13.5456 -13.5354 -13.5097 -13.5036 -12.3564 -12.3497 -12.3486 -12.3265
   -12.3151 -12.2989 -12.2946 -12.2782 -12.2727 -12.2642 -12.1948 -12.1764
   -11.3657 -11.3044 -11.2789 -11.2705 -10.1152 -10.1135 -10.0741 -10.0677
    -9.6731  -9.5621  -9.5509  -9.5154  -9.4092  -9.2989  -9.2981  -9.2786
    -9.1167  -9.0944  -9.0458  -9.0295  -8.3342  -8.2979  -8.2013  -8.1975
    -8.1652  -8.1249  -8.1110  -8.1106  -8.1059  -8.1017  -8.0880  -8.0634
    -8.0538  -8.0456  -7.9773  -7.9619  -7.9191  -7.9119  -7.8540  -7.8373
    -7.8240  -7.8022  -7.7968  -7.7777  -7.7428  -7.7345  -7.7083  -7.6792
    -7.5362  -7.5360  -7.5315  -7.4909  -7.3276  -7.3257  -7.2850  -7.2367
    -7.0764  -7.0741  -7.0331  -7.0027  -6.9657  -6.9642  -6.9519  -6.9494
    -6.9282  -6.8759  -6.7972  -6.7052  -6.5192  -6.5183  -6.1155  -6.0917
    -6.0630  -6.0515  -6.0078  -5.9280  -5.8175  -5.7718  -5.5226  -5.5218
    -5.4647  -5.4456  -5.4326  -5.4152  -5.4075  -5.3890  -5.3375  -5.3335
    -5.3317  -5.3073  -5.2628  -5.2380  -5.1284  -5.1271  -5.0480  -5.0456
    -5.0336  -5.0161  -4.9845  -4.9713  -4.7656  -4.6240  -4.5649  -4.5278
    -4.4738  -4.4724  -4.4169  -4.3929  -4.1324  -4.1044  -4.0494  -4.0117
    -3.9804  -3.9612  -3.9587  -3.9170  -3.8724  -3.8597  -3.7808  -3.7661
    -3.7535  -3.6826  -3.6403  -3.6388  -3.4932  -3.4641  -3.3734  -3.3604
    -3.2473  -3.1977  -3.1205  -3.1102  -3.0663  -3.0434  -3.0242  -2.9959
    -2.9073  -2.8645  -2.6839  -2.6838  -2.5660  -2.5554  -2.5379  -2.4792
    -2.3771  -2.3288  -2.2153  -2.2096  -2.1914  -2.1608  -2.1571  -2.1266
    -2.1029  -2.0682  -2.0647  -2.0595  -2.0552  -2.0417  -1.9951  -1.9883
    -1.9747  -1.9643  -1.9513  -1.9359  -1.9142  -1.9054  -1.8730  -1.8542
    -1.8496  -1.8432  -1.8195  -1.7810  -1.7657  -1.7495  -1.7340  -1.7293
    -1.7286  -1.7267  -1.6898  -1.6892  -1.5797  -1.5443  -1.5421  -1.5121
    -1.4904  -1.4601  -1.3919  -1.3668  -1.3427  -1.3350  -1.3227  -1.3130
    -1.2800  -1.2695  -1.2653  -1.1898  -1.1614  -1.1012  -1.0602  -1.0467
    -1.0435  -1.0383  -1.0199  -0.9755  -0.9742  -0.9702  -0.9370  -0.9363
    -0.9166  -0.8851  -0.8739  -0.8723  -0.7860  -0.7525  -0.7259  -0.7254
    -0.4124  -0.4033  -0.2150  -0.2140   0.0115   0.0192   0.0667   0.0727
     3.3159   3.3241   3.3602   3.4148   3.4252   3.4292   3.4422   3.4837
     3.4886   3.5249   3.5621   3.5642   5.1778   5.1905   5.3369   5.3520
     5.3760   5.4016   5.4236   5.4844   5.4903   5.5625   5.7285   5.9275
     5.9373   5.9850   5.9885   6.0203   6.0412   6.0677   6.1157   6.1807
     6.9437   7.0664   7.1278   7.1843   7.2095   7.4000   7.4451   7.5435
     7.5594   7.6846   7.7466   7.8045   7.8098   7.8120   8.0044   8.0047
     8.0753   8.1645   8.1999   8.2206   8.2639   8.3059   8.3552   8.4690
     8.5310   8.5777   8.5937

          k = 0.0000 0.0000-0.3844 (189600 PWs)   bands (ev):

   -25.9220 -25.9194 -25.8928 -25.8903 -25.8499 -25.8491 -25.8481 -25.8473
   -25.8059 -25.8058 -25.8047 -25.8046 -21.3274 -21.3260 -21.2993 -21.2974
   -21.2840 -21.2821 -21.2666 -21.2665 -21.2652 -21.2652 -21.2351 -21.2338
   -21.2315 -21.2301 -21.1950 -21.1950 -21.1933 -21.1933 -20.9609 -20.9599
   -20.5547 -20.5531 -20.5520 -20.5505 -20.4389 -20.4385 -20.4342 -20.4340
   -20.4047 -20.4043 -20.3987 -20.3980 -19.0517 -19.0500 -19.0157 -19.0135
   -19.0110 -19.0088 -18.6514 -18.6501 -15.0234 -15.0233 -15.0139 -15.0138
   -13.5405 -13.5403 -13.5070 -13.5068 -12.3530 -12.3526 -12.3363 -12.3363
   -12.3023 -12.3018 -12.2947 -12.2945 -12.2684 -12.2683 -12.1840 -12.1835
   -11.3404 -11.3401 -11.2702 -11.2697 -10.1116 -10.1108 -10.0747 -10.0738
    -9.6251  -9.6242  -9.5323  -9.5312  -9.3588  -9.3582  -9.2826  -9.2822
    -9.1023  -9.1012  -9.0363  -9.0353  -8.3129  -8.3120  -8.1921  -8.1914
    -8.1555  -8.1541  -8.1315  -8.1310  -8.1074  -8.1073  -8.0745  -8.0744
    -8.0236  -8.0224  -7.9891  -7.9888  -7.9049  -7.9048  -7.8441  -7.8426
    -7.8164  -7.8152  -7.7745  -7.7734  -7.7525  -7.7516  -7.6939  -7.6925
    -7.5362  -7.5359  -7.5096  -7.5092  -7.3248  -7.3242  -7.2618  -7.2616
    -7.0808  -7.0793  -7.0182  -7.0174  -7.0041  -7.0039  -6.9422  -6.9411
    -6.8452  -6.8447  -6.7745  -6.7744  -6.5177  -6.5169  -6.1070  -6.1068
    -6.0588  -6.0588  -5.9666  -5.9664  -5.7923  -5.7923  -5.5251  -5.5244
    -5.4565  -5.4562  -5.4322  -5.4321  -5.3856  -5.3845  -5.3645  -5.3642
    -5.2832  -5.2828  -5.2451  -5.2447  -5.1491  -5.1485  -5.0642  -5.0641
    -4.9923  -4.9919  -4.9884  -4.9882  -4.7017  -4.7017  -4.5318  -4.5317
    -4.4709  -4.4705  -4.4192  -4.4186  -4.1122  -4.1122  -4.0297  -4.0294
    -3.9650  -3.9648  -3.9482  -3.9481  -3.8702  -3.8701  -3.7836  -3.7833
    -3.6976  -3.6975  -3.6510  -3.6508  -3.4560  -3.4558  -3.3834  -3.3834
    -3.2288  -3.2283  -3.1308  -3.1303  -3.0355  -3.0352  -3.0004  -3.0001
    -2.8913  -2.8907  -2.7022  -2.7020  -2.5481  -2.5479  -2.5078  -2.5073
    -2.3496  -2.3492  -2.2414  -2.2408  -2.1769  -2.1768  -2.1422  -2.1412
    -2.0799  -2.0798  -2.0558  -2.0554  -2.0121  -2.0117  -1.9791  -1.9790
    -1.9597  -1.9594  -1.9547  -1.9541  -1.9146  -1.9143  -1.8949  -1.8947
    -1.8358  -1.8356  -1.7975  -1.7970  -1.7664  -1.7655  -1.7242  -1.7240
    -1.7162  -1.7159  -1.7108  -1.7106  -1.5614  -1.5611  -1.5031  -1.5026
    -1.4852  -1.4850  -1.4025  -1.4021  -1.3302  -1.3300  -1.3251  -1.3247
    -1.2624  -1.2624  -1.2392  -1.2390  -1.1323  -1.1321  -1.0676  -1.0663
    -1.0277  -1.0273  -0.9953  -0.9944  -0.9650  -0.9647  -0.9312  -0.9306
    -0.9031  -0.9030  -0.8829  -0.8829  -0.7685  -0.7679  -0.7247  -0.7244
    -0.4077  -0.4071  -0.2159  -0.2153   0.0168   0.0174   0.0681   0.0689
     3.3220   3.3235   3.3850   3.3867   3.4242   3.4247   3.4637   3.4655
     3.5091   3.5101   3.5613   3.5622   5.1834   5.1837   5.3395   5.3407
     5.3899   5.3905   5.4625   5.4633   5.5187   5.5190   5.7938   5.7939
     5.9704   5.9707   6.0375   6.0377   6.0538   6.0542   6.1226   6.1234
     7.0180   7.0188   7.1388   7.1394   7.3926   7.3935   7.4749   7.4749
     7.6104   7.6109   7.7494   7.7494   7.8013   7.8013   7.9828   7.9836
     8.2009   8.2012   8.2381   8.2385   8.2535   8.2538   8.3721   8.3727
     8.4909   8.4910   8.6031

          k = 0.0000-0.4347 0.0000 (189588 PWs)   bands (ev):

   -25.9220 -25.9194 -25.8928 -25.8903 -25.8498 -25.8491 -25.8481 -25.8474
   -25.8058 -25.8057 -25.8048 -25.8047 -21.3283 -21.3268 -21.2958 -21.2941
   -21.2867 -21.2846 -21.2667 -21.2666 -21.2655 -21.2653 -21.2352 -21.2339
   -21.2314 -21.2300 -21.1944 -21.1944 -21.1937 -21.1937 -20.9609 -20.9599
   -20.5545 -20.5527 -20.5524 -20.5507 -20.4388 -20.4383 -20.4347 -20.4343
   -20.4029 -20.4020 -20.4007 -20.3995 -19.0517 -19.0500 -19.0157 -19.0135
   -19.0111 -19.0089 -18.6514 -18.6501 -15.0219 -15.0217 -15.0163 -15.0161
   -13.5369 -13.5368 -13.5025 -13.5023 -12.3580 -12.3578 -12.3387 -12.3383
   -12.3062 -12.3054 -12.2988 -12.2980 -12.2647 -12.2646 -12.1915 -12.1911
   -11.3404 -11.3401 -11.2717 -11.2712 -10.0728 -10.0720 -10.0651 -10.0643
    -9.6205  -9.6196  -9.4483  -9.4472  -9.3971  -9.3960  -9.3394  -9.3391
    -9.1192  -9.1184  -9.0765  -9.0757  -8.3307  -8.3302  -8.1910  -8.1906
    -8.1350  -8.1349  -8.1237  -8.1225  -8.0979  -8.0970  -8.0819  -8.0817
    -8.0070  -8.0050  -7.9725  -7.9715  -7.9302  -7.9297  -7.8444  -7.8429
    -7.8138  -7.8127  -7.7708  -7.7705  -7.7546  -7.7541  -7.6920  -7.6905
    -7.5612  -7.5608  -7.5171  -7.5167  -7.3179  -7.3173  -7.2354  -7.2352
    -7.0780  -7.0763  -7.0035  -7.0030  -6.9893  -6.9875  -6.9667  -6.9665
    -6.8728  -6.8726  -6.7493  -6.7492  -6.5188  -6.5181  -6.0872  -6.0870
    -6.0646  -6.0642  -5.9721  -5.9718  -5.7883  -5.7883  -5.5378  -5.5371
    -5.4917  -5.4911  -5.4259  -5.4255  -5.3889  -5.3888  -5.3649  -5.3646
    -5.2646  -5.2642  -5.2479  -5.2472  -5.1009  -5.1008  -5.0766  -5.0766
    -5.0289  -5.0285  -4.9861  -4.9856  -4.6426  -4.6424  -4.5544  -4.5543
    -4.4804  -4.4802  -4.4251  -4.4245  -4.0493  -4.0491  -4.0368  -4.0364
    -4.0239  -4.0230  -3.9629  -3.9627  -3.8490  -3.8477  -3.8362  -3.8350
    -3.6860  -3.6857  -3.6448  -3.6445  -3.4250  -3.4246  -3.3730  -3.3730
    -3.2503  -3.2498  -3.1474  -3.1469  -3.0700  -3.0700  -2.9933  -2.9929
    -2.8926  -2.8922  -2.6622  -2.6619  -2.5690  -2.5689  -2.4772  -2.4771
    -2.2897  -2.2894  -2.2123  -2.2111  -2.1704  -2.1701  -2.1565  -2.1559
    -2.1321  -2.1316  -2.1016  -2.1015  -2.0344  -2.0342  -1.9944  -1.9933
    -1.9823  -1.9809  -1.9454  -1.9449  -1.9109  -1.9107  -1.8883  -1.8882
    -1.8395  -1.8393  -1.7843  -1.7842  -1.7723  -1.7720  -1.7235  -1.7234
    -1.6899  -1.6893  -1.6296  -1.6290  -1.5893  -1.5892  -1.5502  -1.5496
    -1.4601  -1.4595  -1.4142  -1.4137  -1.3412  -1.3404  -1.3295  -1.3293
    -1.2649  -1.2648  -1.2054  -1.2046  -1.1516  -1.1512  -1.0441  -1.0428
    -1.0339  -1.0334  -1.0063  -1.0063  -0.9520  -0.9514  -0.9236  -0.9233
    -0.8906  -0.8905  -0.8767  -0.8764  -0.7874  -0.7866  -0.7501  -0.7497
    -0.4050  -0.4044  -0.2151  -0.2145   0.0144   0.0150   0.0695   0.0703
     3.3162   3.3176   3.3838   3.3854   3.4247   3.4251   3.4723   3.4739
     3.5013   3.5024   3.5661   3.5671   5.1757   5.1761   5.3672   5.3684
     5.3860   5.3868   5.4845   5.4854   5.5089   5.5089   5.7795   5.7796
     5.9375   5.9378   6.0130   6.0133   6.0599   6.0604   6.1655   6.1663
     7.0385   7.0392   7.1933   7.1938   7.2643   7.2643   7.4280   7.4287
     7.5577   7.5585   7.8629   7.8638   7.8904   7.8910   7.9727   7.9728
     8.1508   8.1510   8.2707   8.2710   8.2814   8.2817   8.4234   8.4238
     8.4888   8.4896   8.5357

          k = 0.0000-0.4347-0.3844 (189548 PWs)   bands (ev):

   -25.9220 -25.9194 -25.8928 -25.8903 -25.8498 -25.8490 -25.8482 -25.8474
   -25.8058 -25.8057 -25.8048 -25.8047 -21.3283 -21.3269 -21.2956 -21.2939
   -21.2868 -21.2847 -21.2668 -21.2666 -21.2654 -21.2652 -21.2352 -21.2338
   -21.2314 -21.2300 -21.1949 -21.1949 -21.1933 -21.1932 -20.9609 -20.9599
   -20.5545 -20.5526 -20.5525 -20.5507 -20.4386 -20.4381 -20.4349 -20.4345
   -20.4030 -20.4015 -20.4012 -20.3994 -19.0517 -19.0500 -19.0157 -19.0135
   -19.0111 -19.0088 -18.6514 -18.6501 -15.0202 -15.0196 -15.0184 -15.0178
   -13.5362 -13.5361 -13.5033 -13.5031 -12.3571 -12.3567 -12.3409 -12.3407
   -12.3005 -12.2998 -12.2952 -12.2946 -12.2732 -12.2730 -12.1906 -12.1902
   -11.3390 -11.3387 -11.2736 -11.2731 -10.0702 -10.0694 -10.0675 -10.0665
    -9.6144  -9.6134  -9.4584  -9.4573  -9.3971  -9.3960  -9.3393  -9.3389
    -9.1157  -9.1148  -9.0756  -9.0747  -8.3138  -8.3131  -8.2216  -8.2213
    -8.1332  -8.1316  -8.1204  -8.1189  -8.0982  -8.0975  -8.0841  -8.0838
    -8.0093  -8.0075  -7.9473  -7.9465  -7.9447  -7.9437  -7.8431  -7.8416
    -7.8128  -7.8116  -7.7727  -7.7713  -7.7505  -7.7493  -7.6981  -7.6966
    -7.5429  -7.5425  -7.5367  -7.5360  -7.3095  -7.3086  -7.2446  -7.2442
    -7.0790  -7.0772  -7.0036  -7.0027  -6.9907  -6.9885  -6.9810  -6.9808
    -6.8056  -6.8053  -6.7946  -6.7943  -6.5202  -6.5195  -6.0891  -6.0886
    -6.0633  -6.0627  -5.9717  -5.9714  -5.7902  -5.7902  -5.5447  -5.5442
    -5.4787  -5.4779  -5.4215  -5.4210  -5.4083  -5.4079  -5.3218  -5.3214
    -5.2844  -5.2839  -5.2697  -5.2692  -5.1024  -5.1018  -5.0898  -5.0896
    -4.9989  -4.9982  -4.9892  -4.9890  -4.6241  -4.6240  -4.5853  -4.5850
    -4.4725  -4.4721  -4.4297  -4.4290  -4.0490  -4.0485  -4.0301  -4.0296
    -4.0203  -4.0197  -3.9677  -3.9671  -3.8531  -3.8518  -3.8366  -3.8353
    -3.6676  -3.6672  -3.6439  -3.6436  -3.4683  -3.4680  -3.3509  -3.3507
    -3.2543  -3.2537  -3.1491  -3.1486  -3.0599  -3.0596  -2.9990  -2.9982
    -2.8936  -2.8930  -2.6277  -2.6273  -2.5933  -2.5932  -2.4780  -2.4777
    -2.3071  -2.3068  -2.2197  -2.2185  -2.2069  -2.2066  -2.1342  -2.1326
    -2.0765  -2.0762  -2.0755  -2.0755  -2.0517  -2.0513  -2.0174  -2.0164
    -1.9804  -1.9795  -1.9486  -1.9478  -1.9372  -1.9361  -1.8741  -1.8737
    -1.8212  -1.8208  -1.7672  -1.7668  -1.7610  -1.7606  -1.7330  -1.7327
    -1.6926  -1.6921  -1.6575  -1.6571  -1.6078  -1.6075  -1.5275  -1.5269
    -1.4576  -1.4569  -1.4121  -1.4117  -1.3473  -1.3465  -1.3345  -1.3339
    -1.2486  -1.2484  -1.1992  -1.1991  -1.1767  -1.1755  -1.0623  -1.0610
    -1.0060  -1.0060  -1.0053  -1.0046  -0.9429  -0.9425  -0.9396  -0.9388
    -0.8939  -0.8936  -0.8745  -0.8743  -0.7805  -0.7797  -0.7551  -0.7546
    -0.4048  -0.4042  -0.2163  -0.2157   0.0166   0.0172   0.0680   0.0688
     3.3246   3.3262   3.3761   3.3776   3.4297   3.4306   3.4635   3.4655
     3.5124   3.5135   3.5588   3.5600   5.1754   5.1758   5.3614   5.3627
     5.3899   5.3906   5.4990   5.4993   5.5118   5.5129   5.7346   5.7350
     5.9813   5.9823   6.0285   6.0287   6.0810   6.0825   6.0885   6.0891
     7.0741   7.0750   7.2141   7.2145   7.2572   7.2573   7.4548   7.4560
     7.6683   7.6688   7.7047   7.7058   7.9453   7.9462   7.9682   7.9685
     8.0529   8.0538   8.1866   8.1870   8.2859   8.2862   8.4382   8.4387
     8.5240   8.5241   8.5543

          k =-0.5000 0.0000-0.0230 (189466 PWs)   bands (ev):

   -25.9219 -25.9193 -25.8928 -25.8902 -25.8498 -25.8494 -25.8480 -25.8476
   -25.8059 -25.8057 -25.8047 -25.8045 -21.3266 -21.3252 -21.2993 -21.2974
   -21.2835 -21.2815 -21.2682 -21.2681 -21.2653 -21.2651 -21.2353 -21.2340
   -21.2314 -21.2300 -21.1945 -21.1944 -21.1938 -21.1938 -20.9606 -20.9596
   -20.5577 -20.5557 -20.5493 -20.5474 -20.4380 -20.4378 -20.4350 -20.4346
   -20.4044 -20.4044 -20.3987 -20.3987 -19.0515 -19.0498 -19.0154 -19.0132
   -19.0116 -19.0093 -18.6513 -18.6500 -15.0241 -15.0241 -15.0130 -15.0130
   -13.5540 -13.5537 -13.4937 -13.4936 -12.3468 -12.3466 -12.3382 -12.3378
   -12.3018 -12.3016 -12.2733 -12.2731 -12.2522 -12.2520 -12.2295 -12.2291
   -11.3767 -11.3760 -11.2282 -11.2281 -10.1156 -10.1148 -10.0607 -10.0600
    -9.6327  -9.6321  -9.5131  -9.5124  -9.3828  -9.3820  -9.2846  -9.2841
    -9.1149  -9.1140  -9.0469  -9.0459  -8.2482  -8.2477  -8.2198  -8.2194
    -8.1631  -8.1629  -8.1202  -8.1202  -8.0972  -8.0970  -8.0688  -8.0687
    -8.0385  -8.0377  -7.9447  -7.9440  -7.9392  -7.9390  -7.8487  -7.8473
    -7.8127  -7.8117  -7.7825  -7.7814  -7.7329  -7.7322  -7.7068  -7.7055
    -7.5493  -7.5492  -7.5094  -7.5093  -7.3269  -7.3262  -7.2885  -7.2879
    -7.0833  -7.0819  -7.0166  -7.0158  -6.9759  -6.9740  -6.9580  -6.9579
    -6.8483  -6.8478  -6.7640  -6.7640  -6.4953  -6.4947  -6.1623  -6.1617
    -6.0544  -6.0540  -5.9232  -5.9230  -5.8252  -5.8251  -5.5428  -5.5421
    -5.4552  -5.4546  -5.4202  -5.4200  -5.3869  -5.3865  -5.3434  -5.3434
    -5.2975  -5.2971  -5.2145  -5.2144  -5.1481  -5.1479  -5.1049  -5.1046
    -5.0177  -5.0171  -5.0037  -5.0035  -4.6407  -4.6406  -4.5403  -4.5402
    -4.4583  -4.4579  -4.3745  -4.3744  -4.0981  -4.0980  -4.0313  -4.0303
    -3.9795  -3.9794  -3.9561  -3.9551  -3.8460  -3.8453  -3.8152  -3.8146
    -3.6836  -3.6835  -3.6051  -3.6049  -3.5495  -3.5490  -3.3996  -3.3994
    -3.2382  -3.2380  -3.0881  -3.0878  -3.0604  -3.0602  -3.0077  -3.0076
    -2.8992  -2.8990  -2.6484  -2.6482  -2.5813  -2.5810  -2.4152  -2.4151
    -2.3559  -2.3555  -2.2917  -2.2912  -2.1883  -2.1871  -2.1490  -2.1479
    -2.0923  -2.0922  -2.0675  -2.0674  -2.0384  -2.0375  -2.0042  -2.0026
    -1.9790  -1.9786  -1.9415  -1.9404  -1.9021  -1.9020  -1.8858  -1.8854
    -1.8238  -1.8238  -1.7978  -1.7978  -1.7433  -1.7429  -1.7275  -1.7271
    -1.6917  -1.6913  -1.6363  -1.6362  -1.6057  -1.6054  -1.5444  -1.5442
    -1.4839  -1.4837  -1.3942  -1.3932  -1.3607  -1.3604  -1.3256  -1.3247
    -1.2586  -1.2584  -1.2366  -1.2361  -1.1224  -1.1223  -1.0575  -1.0565
    -1.0204  -1.0196  -1.0036  -1.0028  -0.9575  -0.9572  -0.9412  -0.9410
    -0.8930  -0.8930  -0.8741  -0.8738  -0.7809  -0.7804  -0.7393  -0.7388
    -0.4056  -0.4048  -0.1872  -0.1868   0.0299   0.0306   0.0323   0.0326
     3.3159   3.3174   3.3850   3.3860   3.4306   3.4307   3.4619   3.4634
     3.5073   3.5081   3.5620   3.5630   5.1441   5.1447   5.3604   5.3611
     5.4349   5.4358   5.4598   5.4603   5.5716   5.5727   5.7758   5.7758
     5.9389   5.9397   6.0172   6.0178   6.0858   6.0862   6.1135   6.1143
     6.9897   6.9906   7.2174   7.2181   7.3407   7.3411   7.3876   7.3877
     7.6200   7.6200   7.6758   7.6761   7.8066   7.8068   7.9723   7.9727
     8.1560   8.1566   8.2069   8.2072   8.3087   8.3087   8.4573   8.4581
     8.5060   8.5064   8.6193

          k =-0.5000 0.0000-0.4074 (189596 PWs)   bands (ev):

   -25.9219 -25.9193 -25.8928 -25.8902 -25.8498 -25.8494 -25.8480 -25.8477
   -25.8059 -25.8057 -25.8047 -25.8045 -21.3266 -21.3252 -21.2997 -21.2970
   -21.2836 -21.2813 -21.2679 -21.2674 -21.2665 -21.2649 -21.2354 -21.2339
   -21.2314 -21.2300 -21.1950 -21.1950 -21.1933 -21.1933 -20.9606 -20.9596
   -20.5577 -20.5554 -20.5495 -20.5474 -20.4385 -20.4366 -20.4362 -20.4340
   -20.4045 -20.4044 -20.3993 -20.3981 -19.0515 -19.0498 -19.0154 -19.0132
   -19.0116 -19.0093 -18.6513 -18.6500 -15.0263 -15.0219 -15.0151 -15.0110
   -13.5562 -13.5528 -13.4955 -13.4903 -12.3551 -12.3472 -12.3405 -12.3337
   -12.3152 -12.2817 -12.2771 -12.2668 -12.2656 -12.2392 -12.2307 -12.2288
   -11.3828 -11.3693 -11.2313 -11.2244 -10.1204 -10.1195 -10.0565 -10.0515
    -9.6458  -9.6229  -9.5827  -9.4606  -9.3897  -9.3456  -9.3239  -9.2562
    -9.1362  -9.0923  -9.0884  -9.0017  -8.2443  -8.2420  -8.2137  -8.1852
    -8.1751  -8.1627  -8.1402  -8.1287  -8.1050  -8.1008  -8.0773  -8.0623
    -8.0252  -8.0158  -8.0147  -7.9552  -7.9146  -7.9107  -7.8593  -7.8374
    -7.8139  -7.8075  -7.8013  -7.7905  -7.7397  -7.7155  -7.7124  -7.6965
    -7.5789  -7.5180  -7.5046  -7.5024  -7.3517  -7.3041  -7.3037  -7.2646
    -7.0898  -7.0686  -7.0261  -7.0198  -6.9857  -6.9650  -6.9648  -6.9511
    -6.9166  -6.8062  -6.7865  -6.7195  -6.4960  -6.4937  -6.1970  -6.1182
    -6.0757  -6.0493  -5.9354  -5.8701  -5.8673  -5.8161  -5.5613  -5.5291
    -5.4749  -5.4472  -5.4354  -5.4334  -5.3836  -5.3503  -5.3416  -5.3412
    -5.3063  -5.2927  -5.2087  -5.1970  -5.1425  -5.1371  -5.1360  -5.0857
    -5.0682  -5.0021  -5.0001  -4.9805  -4.6800  -4.6172  -4.5416  -4.5244
    -4.4647  -4.4351  -4.4010  -4.3676  -4.1085  -4.0900  -4.0792  -4.0027
    -3.9918  -3.9771  -3.9699  -3.9215  -3.8495  -3.8456  -3.8241  -3.8000
    -3.6739  -3.6701  -3.6227  -3.6113  -3.5883  -3.5171  -3.3917  -3.3899
    -3.2281  -3.2259  -3.1095  -3.0964  -3.0828  -3.0559  -3.0320  -2.9527
    -2.9214  -2.8842  -2.6776  -2.6317  -2.6010  -2.5622  -2.4379  -2.4008
    -2.3546  -2.3475  -2.3055  -2.2322  -2.2222  -2.1931  -2.1538  -2.1465
    -2.0844  -2.0786  -2.0762  -2.0635  -2.0440  -2.0423  -2.0151  -1.9862
    -1.9840  -1.9802  -1.9718  -1.9360  -1.9284  -1.8901  -1.8812  -1.8464
    -1.8283  -1.8234  -1.7976  -1.7779  -1.7587  -1.7470  -1.7362  -1.7219
    -1.6871  -1.6760  -1.6433  -1.6149  -1.5935  -1.5693  -1.5487  -1.5403
    -1.5204  -1.4971  -1.4358  -1.4143  -1.3632  -1.3245  -1.3186  -1.3173
    -1.3002  -1.2651  -1.2439  -1.2045  -1.1236  -1.0906  -1.0515  -1.0492
    -1.0367  -1.0364  -0.9981  -0.9848  -0.9655  -0.9573  -0.9552  -0.9357
    -0.9166  -0.8868  -0.8808  -0.8659  -0.7773  -0.7763  -0.7399  -0.7352
    -0.4100  -0.4004  -0.1887  -0.1832   0.0279   0.0288   0.0322   0.0344
     3.3199   3.3236   3.3783   3.4079   3.4127   3.4345   3.4421   3.4721
     3.5097   3.5132   3.5478   3.5713   5.1431   5.1449   5.3482   5.3952
     5.4012   5.4374   5.4422   5.4710   5.5620   5.6390   5.7066   5.8255
     5.9142   5.9259   5.9766   5.9864   6.0561   6.0647   6.1675   6.1912
     6.8778   7.1440   7.1826   7.1956   7.3511   7.3650   7.4034   7.4546
     7.5832   7.6058   7.6146   7.7482   7.7828   7.9530   7.9554   8.0085
     8.1394   8.1599   8.2693   8.2697   8.2712   8.3064   8.3793   8.4317
     8.4689   8.4938   8.5737

          k =-0.5000-0.4347-0.0230 (189692 PWs)   bands (ev):

   -25.9219 -25.9193 -25.8928 -25.8903 -25.8497 -25.8494 -25.8481 -25.8477
   -25.8058 -25.8056 -25.8048 -25.8046 -21.3276 -21.3261 -21.2951 -21.2933
   -21.2868 -21.2847 -21.2682 -21.2681 -21.2655 -21.2653 -21.2352 -21.2338
   -21.2315 -21.2301 -21.1944 -21.1943 -21.1938 -21.1938 -20.9606 -20.9596
   -20.5576 -20.5557 -20.5493 -20.5474 -20.4377 -20.4372 -20.4357 -20.4352
   -20.4023 -20.4022 -20.4007 -20.4006 -19.0515 -19.0498 -19.0154 -19.0132
   -19.0117 -19.0094 -18.6513 -18.6500 -15.0196 -15.0190 -15.0189 -15.0183
   -13.5498 -13.5496 -13.4897 -13.4896 -12.3449 -12.3444 -12.3435 -12.3433
   -12.3015 -12.3008 -12.2850 -12.2845 -12.2488 -12.2486 -12.2372 -12.2368
   -11.3782 -11.3776 -11.2275 -11.2274 -10.0940 -10.0930 -10.0311 -10.0303
    -9.5949  -9.5941  -9.5227  -9.5212  -9.3786  -9.3776  -9.3331  -9.3327
    -9.1291  -9.1281  -9.0785  -9.0776  -8.2658  -8.2653  -8.2394  -8.2387
    -8.1296  -8.1279  -8.1172  -8.1159  -8.0785  -8.0779  -8.0624  -8.0614
    -8.0256  -8.0245  -7.9745  -7.9735  -7.9286  -7.9282  -7.8456  -7.8442
    -7.8112  -7.8100  -7.7940  -7.7927  -7.7324  -7.7313  -7.7146  -7.7129
    -7.5489  -7.5482  -7.5279  -7.5273  -7.3111  -7.3102  -7.2779  -7.2773
    -7.0703  -7.0685  -7.0212  -7.0198  -7.0002  -6.9995  -6.9502  -6.9492
    -6.8049  -6.8046  -6.7893  -6.7890  -6.4872  -6.4865  -6.1345  -6.1341
    -6.0975  -6.0969  -5.8966  -5.8964  -5.8426  -5.8423  -5.5599  -5.5591
    -5.4717  -5.4710  -5.4074  -5.4070  -5.3782  -5.3777  -5.3492  -5.3484
    -5.2833  -5.2827  -5.2237  -5.2234  -5.1208  -5.1202  -5.1039  -5.1033
    -5.0318  -5.0310  -5.0057  -5.0054  -4.5883  -4.5882  -4.5728  -4.5725
    -4.4532  -4.4528  -4.3965  -4.3965  -4.0862  -4.0853  -4.0393  -4.0390
    -4.0053  -4.0049  -3.9568  -3.9558  -3.8500  -3.8490  -3.8359  -3.8344
    -3.6648  -3.6644  -3.6103  -3.6100  -3.5126  -3.5118  -3.3908  -3.3903
    -3.2314  -3.2312  -3.1159  -3.1158  -3.1146  -3.1141  -3.0063  -3.0061
    -2.9070  -2.9065  -2.6234  -2.6231  -2.6035  -2.6030  -2.3666  -2.3664
    -2.2843  -2.2842  -2.2686  -2.2677  -2.1985  -2.1980  -2.1488  -2.1471
    -2.1034  -2.1021  -2.0941  -2.0937  -2.0609  -2.0600  -2.0053  -2.0038
    -1.9667  -1.9655  -1.9644  -1.9639  -1.9355  -1.9350  -1.8510  -1.8504
    -1.8268  -1.8261  -1.8036  -1.8032  -1.7580  -1.7574  -1.7555  -1.7549
    -1.6724  -1.6724  -1.6512  -1.6506  -1.5469  -1.5464  -1.5458  -1.5456
    -1.4630  -1.4620  -1.4435  -1.4428  -1.3441  -1.3434  -1.3303  -1.3296
    -1.2663  -1.2660  -1.1845  -1.1841  -1.1791  -1.1788  -1.0642  -1.0633
    -1.0039  -1.0024  -0.9959  -0.9953  -0.9620  -0.9613  -0.9201  -0.9194
    -0.8848  -0.8844  -0.8809  -0.8807  -0.7877  -0.7871  -0.7575  -0.7568
    -0.4092  -0.4083  -0.1879  -0.1876   0.0301   0.0310   0.0319   0.0323
     3.3141   3.3155   3.3872   3.3888   3.4298   3.4304   3.4629   3.4647
     3.5048   3.5060   3.5631   3.5641   5.1500   5.1505   5.3810   5.3819
     5.4226   5.4237   5.4706   5.4708   5.5556   5.5572   5.7663   5.7669
     5.9713   5.9723   5.9771   5.9774   6.0711   6.0714   6.1157   6.1165
     7.0601   7.0609   7.1188   7.1192   7.3805   7.3809   7.3939   7.3943
     7.6252   7.6256   7.6657   7.6659   7.8754   7.8759   8.0174   8.0180
     8.1731   8.1737   8.1835   8.1838   8.3300   8.3307   8.4213   8.4218
     8.5584   8.5587   8.5898

          k =-0.5000-0.4347-0.4074 (189520 PWs)   bands (ev):

   -25.9219 -25.9193 -25.8928 -25.8903 -25.8497 -25.8494 -25.8481 -25.8477
   -25.8058 -25.8056 -25.8048 -25.8046 -21.3276 -21.3261 -21.2952 -21.2934
   -21.2866 -21.2845 -21.2679 -21.2678 -21.2658 -21.2658 -21.2352 -21.2338
   -21.2315 -21.2301 -21.1949 -21.1949 -21.1932 -21.1932 -20.9606 -20.9596
   -20.5575 -20.5556 -20.5494 -20.5475 -20.4375 -20.4372 -20.4358 -20.4354
   -20.4027 -20.4019 -20.4009 -20.4002 -19.0515 -19.0498 -19.0155 -19.0133
   -19.0116 -19.0094 -18.6513 -18.6500 -15.0212 -15.0211 -15.0168 -15.0167
   -13.5506 -13.5504 -13.4889 -13.4888 -12.3505 -12.3505 -12.3434 -12.3432
   -12.2990 -12.2984 -12.2845 -12.2840 -12.2485 -12.2485 -12.2345 -12.2342
   -11.3777 -11.3771 -11.2275 -11.2274 -10.0924 -10.0914 -10.0322 -10.0315
    -9.6051  -9.6043  -9.5248  -9.5235  -9.3776  -9.3765  -9.3266  -9.3263
    -9.1326  -9.1322  -9.0690  -9.0687  -8.2759  -8.2757  -8.2047  -8.2045
    -8.1360  -8.1356  -8.1115  -8.1100  -8.1060  -8.1058  -8.0499  -8.0495
    -8.0425  -8.0413  -7.9617  -7.9611  -7.9333  -7.9331  -7.8459  -7.8445
    -7.8111  -7.8100  -7.8033  -7.8023  -7.7280  -7.7273  -7.7089  -7.7075
    -7.5633  -7.5632  -7.5124  -7.5123  -7.3239  -7.3235  -7.2552  -7.2549
    -7.0827  -7.0810  -7.0238  -7.0228  -6.9897  -6.9895  -6.9503  -6.9497
    -6.8561  -6.8557  -6.7423  -6.7423  -6.4872  -6.4866  -6.1424  -6.1422
    -6.0896  -6.0892  -5.9003  -5.9003  -5.8403  -5.8400  -5.5556  -5.5550
    -5.4760  -5.4756  -5.4160  -5.4157  -5.3925  -5.3922  -5.3364  -5.3361
    -5.2769  -5.2768  -5.2009  -5.2007  -5.1336  -5.1335  -5.0997  -5.0993
    -5.0493  -5.0493  -4.9926  -4.9924  -4.6047  -4.6045  -4.5511  -4.5511
    -4.4619  -4.4615  -4.3897  -4.3897  -4.1030  -4.1025  -4.0569  -4.0569
    -3.9784  -3.9779  -3.9569  -3.9560  -3.8608  -3.8603  -3.8266  -3.8256
    -3.6566  -3.6561  -3.6117  -3.6115  -3.5161  -3.5153  -3.3992  -3.3990
    -3.2162  -3.2159  -3.1176  -3.1176  -3.1083  -3.1078  -3.0196  -3.0195
    -2.9097  -2.9092  -2.6291  -2.6289  -2.5937  -2.5935  -2.3671  -2.3670
    -2.3009  -2.3005  -2.2592  -2.2585  -2.1955  -2.1953  -2.1392  -2.1386
    -2.1085  -2.1081  -2.0923  -2.0914  -2.0347  -2.0345  -2.0159  -2.0152
    -1.9803  -1.9796  -1.9695  -1.9685  -1.9230  -1.9225  -1.8836  -1.8832
    -1.8212  -1.8209  -1.8129  -1.8123  -1.7633  -1.7630  -1.7220  -1.7219
    -1.6546  -1.6545  -1.6209  -1.6204  -1.5891  -1.5889  -1.5396  -1.5395
    -1.4622  -1.4617  -1.4554  -1.4546  -1.3511  -1.3505  -1.3342  -1.3335
    -1.2503  -1.2502  -1.1968  -1.1966  -1.1724  -1.1719  -1.0505  -1.0497
    -1.0306  -1.0299  -0.9845  -0.9841  -0.9591  -0.9585  -0.9210  -0.9206
    -0.9053  -0.9050  -0.8599  -0.8596  -0.7905  -0.7898  -0.7551  -0.7545
    -0.4092  -0.4083  -0.1869  -0.1865   0.0265   0.0272   0.0346   0.0348
     3.3234   3.3251   3.3794   3.3805   3.4314   3.4317   3.4579   3.4600
     3.5131   3.5141   3.5577   3.5588   5.1496   5.1501   5.3871   5.3880
     5.4153   5.4163   5.4635   5.4636   5.5711   5.5724   5.7882   5.7883
     5.8858   5.8861   5.9862   5.9862   6.0431   6.0435   6.1842   6.1849
     7.0056   7.0062   7.2008   7.2008   7.3744   7.3749   7.4693   7.4700
     7.6090   7.6094   7.6946   7.6947   7.7944   7.7948   8.0467   8.0471
     8.1228   8.1236   8.2332   8.2335   8.3284   8.3284   8.3633   8.3637
     8.5291   8.5297   8.6191

     highest occupied, lowest unoccupied level (ev):     0.0727    3.3141

!    total energy              =   -3311.02773033 Ry
     Harris-Foulkes estimate   =   -3311.02773033 Ry
     estimated scf accuracy    <          5.5E-09 Ry

     total all-electron energy =    -12257.215546 Ry

     The total energy is the sum of the following terms:

     one-electron contribution =   -1961.89796409 Ry
     hartree contribution      =    1211.36047828 Ry
     xc contribution           =    -656.65816763 Ry
     ewald contribution        =   -1042.60816623 Ry
     Dispersion Correction     =      -0.68690410 Ry
     one-center paw contrib.   =    -860.53700657 Ry

     convergence has been achieved in  16 iterations

     Forces acting on atoms (cartesian axes, Ry/au):

     atom    1 type  1   force =     0.00021132    0.00009568   -0.00005486
     atom    2 type  1   force =    -0.00023225    0.00009482   -0.00001746
     atom    3 type  1   force =    -0.00021132   -0.00009568    0.00005486
     atom    4 type  1   force =     0.00023225   -0.00009482    0.00001746
     atom    5 type  1   force =    -0.00026268    0.00040674   -0.00008104
     atom    6 type  1   force =     0.00023429    0.00041789    0.00014476
     atom    7 type  1   force =     0.00026268   -0.00040674    0.00008104
     atom    8 type  1   force =    -0.00023429   -0.00041789   -0.00014476
     atom    9 type  3   force =    -0.00025906    0.00017030   -0.00056667
     atom   10 type  3   force =     0.00025423    0.00017678    0.00056195
     atom   11 type  3   force =     0.00025906   -0.00017030    0.00056667
     atom   12 type  3   force =    -0.00025423   -0.00017678   -0.00056195
     atom   13 type  3   force =     0.00014628    0.00053246   -0.00009810
     atom   14 type  3   force =    -0.00014705    0.00052243    0.00009803
     atom   15 type  3   force =    -0.00014628   -0.00053246    0.00009810
     atom   16 type  3   force =     0.00014705   -0.00052243   -0.00009803
     atom   17 type  4   force =     0.00015170   -0.00040591    0.00029391
     atom   18 type  4   force =    -0.00011436   -0.00040730   -0.00034009
     atom   19 type  4   force =    -0.00015170    0.00040591   -0.00029391
     atom   20 type  4   force =     0.00011436    0.00040730    0.00034009
     atom   21 type  2   force =     0.00008687   -0.00013808    0.00033356
     atom   22 type  2   force =    -0.00030841   -0.00002114   -0.00018522
     atom   23 type  2   force =    -0.00008687    0.00013808   -0.00033356
     atom   24 type  2   force =     0.00030841    0.00002114    0.00018522
     atom   25 type  4   force =     0.00090001    0.00044591   -0.00036698
     atom   26 type  4   force =    -0.00076312    0.00034464    0.00024377
     atom   27 type  4   force =    -0.00090001   -0.00044591    0.00036698
     atom   28 type  4   force =     0.00076312   -0.00034464   -0.00024377
     atom   29 type  4   force =    -0.00037299   -0.00104196   -0.00049071
     atom   30 type  4   force =     0.00044936   -0.00106726    0.00047351
     atom   31 type  4   force =     0.00037299    0.00104196    0.00049071
     atom   32 type  4   force =    -0.00044936    0.00106726   -0.00047351
     atom   33 type  1   force =     0.00005842   -0.00004818    0.00012041
     atom   34 type  1   force =    -0.00010547   -0.00005610    0.00006441
     atom   35 type  1   force =    -0.00005842    0.00004818   -0.00012041
     atom   36 type  1   force =     0.00010547    0.00005610   -0.00006441
     atom   37 type  3   force =     0.00044422   -0.00006461    0.00006046
     atom   38 type  3   force =    -0.00044098   -0.00006953   -0.00004761
     atom   39 type  3   force =    -0.00044422    0.00006461   -0.00006046
     atom   40 type  3   force =     0.00044098    0.00006953    0.00004761
     atom   41 type  3   force =     0.00019857   -0.00008696   -0.00034347
     atom   42 type  3   force =    -0.00019470   -0.00007434    0.00034944
     atom   43 type  3   force =    -0.00019857    0.00008696    0.00034347
     atom   44 type  3   force =     0.00019470    0.00007434   -0.00034944
     atom   45 type  4   force =     0.00047342   -0.00044579    0.00013994
     atom   46 type  4   force =    -0.00041374   -0.00041122   -0.00005845
     atom   47 type  4   force =    -0.00047342    0.00044579   -0.00013994
     atom   48 type  4   force =     0.00041374    0.00041122    0.00005845
     atom   49 type  2   force =     0.00007261    0.00032867   -0.00087808
     atom   50 type  2   force =    -0.00045710   -0.00015082   -0.00020768
     atom   51 type  2   force =    -0.00007261   -0.00032867    0.00087808
     atom   52 type  2   force =     0.00045710    0.00015082    0.00020768
     atom   53 type  4   force =    -0.00023037    0.00010847   -0.00021773
     atom   54 type  4   force =     0.00062743    0.00034688    0.00063528
     atom   55 type  4   force =     0.00023037   -0.00010847    0.00021773
     atom   56 type  4   force =    -0.00062743   -0.00034688   -0.00063528
     atom   57 type  4   force =    -0.00042579   -0.00007699    0.00125248
     atom   58 type  4   force =     0.00038462    0.00012884   -0.00067465
     atom   59 type  4   force =     0.00042579    0.00007699   -0.00125248
     atom   60 type  4   force =    -0.00038462   -0.00012884    0.00067465
     atom   61 type  1   force =     0.00034514    0.00000922   -0.00016554
     atom   62 type  1   force =    -0.00023504    0.00000312    0.00015555
     atom   63 type  1   force =    -0.00034514   -0.00000922    0.00016554
     atom   64 type  1   force =     0.00023504   -0.00000312   -0.00015555
     atom   65 type  3   force =    -0.00007679    0.00019697    0.00018821
     atom   66 type  3   force =     0.00004964    0.00018464   -0.00017823
     atom   67 type  3   force =     0.00007679   -0.00019697   -0.00018821
     atom   68 type  3   force =    -0.00004964   -0.00018464    0.00017823
     atom   69 type  3   force =    -0.00012983   -0.00034406   -0.00014049
     atom   70 type  3   force =     0.00013620   -0.00033124    0.00013391
     atom   71 type  3   force =     0.00012983    0.00034406    0.00014049
     atom   72 type  3   force =    -0.00013620    0.00033124   -0.00013391
     atom   73 type  4   force =     0.00012356    0.00024937   -0.00038296
     atom   74 type  4   force =    -0.00021625    0.00017543    0.00025996
     atom   75 type  4   force =    -0.00012356   -0.00024937    0.00038296
     atom   76 type  4   force =     0.00021625   -0.00017543   -0.00025996
     atom   77 type  2   force =     0.00012879   -0.00086056    0.00071244
     atom   78 type  2   force =     0.00068281    0.00055475    0.00085102
     atom   79 type  2   force =    -0.00012879    0.00086056   -0.00071244
     atom   80 type  2   force =    -0.00068281   -0.00055475   -0.00085102
     atom   81 type  4   force =     0.00025191    0.00018340   -0.00001403
     atom   82 type  4   force =    -0.00093117   -0.00016620   -0.00077393
     atom   83 type  4   force =    -0.00025191   -0.00018340    0.00001403
     atom   84 type  4   force =     0.00093117    0.00016620    0.00077393
     atom   85 type  4   force =    -0.00058862    0.00123522   -0.00068524
     atom   86 type  4   force =     0.00049823    0.00028261   -0.00001309
     atom   87 type  4   force =     0.00058862   -0.00123522    0.00068524
     atom   88 type  4   force =    -0.00049823   -0.00028261    0.00001309
     atom   89 type  1   force =    -0.00012565   -0.00015538    0.00005204
     atom   90 type  1   force =     0.00013902   -0.00016475    0.00002084
     atom   91 type  1   force =     0.00012565    0.00015538   -0.00005204
     atom   92 type  1   force =    -0.00013902    0.00016475   -0.00002084
     atom   93 type  3   force =    -0.00032629   -0.00017743   -0.00007222
     atom   94 type  3   force =     0.00031975   -0.00017260    0.00005813
     atom   95 type  3   force =     0.00032629    0.00017743    0.00007222
     atom   96 type  3   force =    -0.00031975    0.00017260   -0.00005813
     atom   97 type  3   force =     0.00026027    0.00064842    0.00005137
     atom   98 type  3   force =    -0.00027279    0.00065160   -0.00004097
     atom   99 type  3   force =    -0.00026027   -0.00064842   -0.00005137
     atom  100 type  3   force =     0.00027279   -0.00065160    0.00004097
     atom  101 type  4   force =     0.00007245   -0.00033353    0.00014150
     atom  102 type  4   force =    -0.00009347   -0.00028791   -0.00012845
     atom  103 type  4   force =    -0.00007245    0.00033353   -0.00014150
     atom  104 type  4   force =     0.00009347    0.00028791    0.00012845
     atom  105 type  1   force =     0.00050342    0.00036681   -0.00019487
     atom  106 type  1   force =    -0.00005225   -0.00005584   -0.00006137
     atom  107 type  1   force =    -0.00050342   -0.00036681    0.00019487
     atom  108 type  1   force =     0.00005225    0.00005584    0.00006137
     atom  109 type  4   force =    -0.00091357   -0.00074720    0.00051895
     atom  110 type  4   force =     0.00053405   -0.00034817   -0.00023446
     atom  111 type  4   force =     0.00091357    0.00074720   -0.00051895
     atom  112 type  4   force =    -0.00053405    0.00034817    0.00023446
     atom  113 type  1   force =     0.00017440    0.00023550   -0.00020459
     atom  114 type  1   force =    -0.00019536    0.00024448    0.00019882
     atom  115 type  1   force =    -0.00017440   -0.00023550    0.00020459
     atom  116 type  1   force =     0.00019536   -0.00024448   -0.00019882
     atom  117 type  3   force =     0.00034342    0.00017059   -0.00030681
     atom  118 type  3   force =    -0.00034364    0.00016073    0.00029711
     atom  119 type  3   force =    -0.00034342   -0.00017059    0.00030681
     atom  120 type  3   force =     0.00034364   -0.00016073   -0.00029711
     atom  121 type  3   force =     0.00023319    0.00010078   -0.00010086
     atom  122 type  3   force =    -0.00023888    0.00010912    0.00011369
     atom  123 type  3   force =    -0.00023319   -0.00010078    0.00010086
     atom  124 type  3   force =     0.00023888   -0.00010912   -0.00011369
     atom  125 type  1   force =     0.00000918    0.00005572    0.00003330
     atom  126 type  1   force =     0.00002839    0.00003752    0.00005822
     atom  127 type  1   force =    -0.00000918   -0.00005572   -0.00003330
     atom  128 type  1   force =    -0.00002839   -0.00003752   -0.00005822
     atom  129 type  3   force =    -0.00034357    0.00034790    0.00059971
     atom  130 type  3   force =     0.00034924    0.00035311   -0.00057738
     atom  131 type  3   force =     0.00034357   -0.00034790   -0.00059971
     atom  132 type  3   force =    -0.00034924   -0.00035311    0.00057738
     atom  133 type  3   force =     0.00021361    0.00009313    0.00033979
     atom  134 type  3   force =    -0.00021070    0.00009626   -0.00032947
     atom  135 type  3   force =    -0.00021361   -0.00009313   -0.00033979
     atom  136 type  3   force =     0.00021070   -0.00009626    0.00032947
     atom  137 type  1   force =     0.00014275   -0.00019876   -0.00020689
     atom  138 type  1   force =    -0.00014895   -0.00017491    0.00009266
     atom  139 type  1   force =    -0.00014275    0.00019876    0.00020689
     atom  140 type  1   force =     0.00014895    0.00017491   -0.00009266
     atom  141 type  3   force =    -0.00069496   -0.00001748   -0.00004769
     atom  142 type  3   force =     0.00068822   -0.00001654    0.00005951
     atom  143 type  3   force =     0.00069496    0.00001748    0.00004769
     atom  144 type  3   force =    -0.00068822    0.00001654   -0.00005951
     atom  145 type  3   force =     0.00017582   -0.00055249   -0.00024573
     atom  146 type  3   force =    -0.00017104   -0.00054739    0.00026041
     atom  147 type  3   force =    -0.00017582    0.00055249    0.00024573
     atom  148 type  3   force =     0.00017104    0.00054739   -0.00026041
     atom  149 type  1   force =     0.00010156   -0.00005589    0.00022512
     atom  150 type  1   force =     0.00008281   -0.00017329   -0.00027959
     atom  151 type  1   force =    -0.00010156    0.00005589   -0.00022512
     atom  152 type  1   force =    -0.00008281    0.00017329    0.00027959
     atom  153 type  4   force =     0.00000935    0.00048639   -0.00004498
     atom  154 type  4   force =    -0.00013473    0.00058923    0.00012921
     atom  155 type  4   force =    -0.00000935   -0.00048639    0.00004498
     atom  156 type  4   force =     0.00013473   -0.00058923   -0.00012921
     atom  157 type  4   force =    -0.00033999    0.00018240    0.00007440
     atom  158 type  4   force =     0.00028048    0.00019297   -0.00011751
     atom  159 type  4   force =     0.00033999   -0.00018240   -0.00007440
     atom  160 type  4   force =    -0.00028048   -0.00019297    0.00011751
     atom  161 type  3   force =     0.00027575   -0.00018535    0.00011263
     atom  162 type  3   force =    -0.00024449   -0.00020029   -0.00009428
     atom  163 type  3   force =    -0.00027575    0.00018535   -0.00011263
     atom  164 type  3   force =     0.00024449    0.00020029    0.00009428

     Total force =     0.007980     Total SCF correction =     0.000150


     Computing stress (Cartesian axis) and pressure

          total   stress  (Ry/bohr**3)                   (kbar)     P=   -3.13
  -0.00002005  -0.00000018   0.00000498         -2.95     -0.03      0.73
  -0.00000018  -0.00001401   0.00000022         -0.03     -2.06      0.03
   0.00000498   0.00000022  -0.00002974          0.73      0.03     -4.38


     Writing output data file scf.save
 
     init_run     :    191.65s CPU    197.57s WALL (       1 calls)
     electrons    :   7742.90s CPU   7968.72s WALL (       1 calls)
     forces       :    103.82s CPU    104.38s WALL (       1 calls)
     stress       :    530.00s CPU    531.21s WALL (       1 calls)

     Called by init_run:
     wfcinit      :    172.94s CPU    178.55s WALL (       1 calls)
     potinit      :      6.49s CPU      6.58s WALL (       1 calls)

     Called by electrons:
     c_bands      :   7079.79s CPU   7276.38s WALL (      16 calls)
     sum_band     :    637.62s CPU    663.66s WALL (      16 calls)
     v_of_rho     :      3.66s CPU      4.06s WALL (      17 calls)
     newd         :     11.43s CPU     14.17s WALL (      17 calls)
     PAW_pot      :      9.77s CPU      9.79s WALL (      17 calls)
     mix_rho      :      0.84s CPU      0.89s WALL (      16 calls)

     Called by c_bands:
     init_us_2    :     21.55s CPU     21.67s WALL (     280 calls)
     cegterg      :   6987.36s CPU   7183.81s WALL (     128 calls)

     Called by sum_band:
     sum_band:bec :      0.28s CPU      0.28s WALL (     128 calls)
     addusdens    :     11.90s CPU     14.43s WALL (      16 calls)

     Called by *egterg:
     h_psi        :   3318.86s CPU   3474.73s WALL (     734 calls)
     s_psi        :    961.80s CPU    962.20s WALL (     734 calls)
     g_psi        :     11.66s CPU     11.67s WALL (     598 calls)
     cdiaghg      :    484.45s CPU    484.63s WALL (     726 calls)

     Called by h_psi:
     h_psi:pot    :   3302.25s CPU   3457.83s WALL (     734 calls)
     h_psi:calbec :    941.61s CPU    942.90s WALL (     734 calls)
     vloc_psi     :   1398.18s CPU   1552.08s WALL (     734 calls)
     add_vuspsi   :    962.46s CPU    962.84s WALL (     734 calls)

     General routines
     calbec       :   1383.31s CPU   1385.21s WALL (     902 calls)
     fft          :      3.55s CPU      4.23s WALL (     245 calls)
     fftw         :   1482.55s CPU   1658.84s WALL (  295006 calls)
 
     Parallel routines
     fft_scatter  :    250.53s CPU    426.33s WALL (  295251 calls)
 
     PWSCF        :     2h23m CPU        2h28m WALL

 
   This run was terminated on:  14:52:26  13Nov2017            

=------------------------------------------------------------------------------=
   JOB DONE.
=------------------------------------------------------------------------------=
