
     Program PWSCF v.6.1 (svn rev. 13369) starts on 13Nov2017 at 12:24: 2 

     This program is part of the open-source Quantum ESPRESSO suite
     for quantum simulation of materials; please cite
         "P. Giannozzi et al., J. Phys.:Condens. Matter 21 395502 (2009);
          URL http://www.quantum-espresso.org", 
     in publications or presentations arising from this work. More details at
     http://www.quantum-espresso.org/quote

     Parallel version (MPI), running on     8 processors
     R & G space division:  proc/nbgrp/npool/nimage =       8
     Waiting for input...
     Reading input from standard input

     Current dimensions of program PWSCF are:
     Max number of different atomic species (ntypx) = 10
     Max number of k-points (npk) =  40000
     Max angular momentum in pseudopotentials (lmaxx) =  3
               file C.pbe-n-kjpaw_psl.0.1.UPF: wavefunction(s)  2P renormalized
               file N.pbe-n-kjpaw_psl.0.1.UPF: wavefunction(s)  2P renormalized
               file H.pbe-kjpaw_psl.0.1.UPF: wavefunction(s)  1S renormalized
               file O.pbe-n-kjpaw_psl.0.1.UPF: wavefunction(s)  2P renormalized

     -------------------------------------
     Parameters for Dispersion Correction:
     -------------------------------------
       atom      VdW radius       C_6     

        C          2.744         60.710
        N          2.640         42.670
        H          1.892          4.857
        O          2.536         24.284

     Subspace diagonalization in iterative solution of the eigenvalue problem:
     a serial algorithm will be used

 
     Parallelization info
     --------------------
     sticks:   dense  smooth     PW     G-vecs:    dense   smooth      PW
     Min         710     710    188               111124   111124   15060
     Max         711     711    189               111137   111137   15067
     Sum        5687    5687   1505               889069   889069  120493
 


     bravais-lattice index     =            0
     lattice parameter (alat)  =      10.5050  a.u.
     unit-cell volume          =    6581.5568 (a.u.)^3
     number of atoms/cell      =          100
     number of atomic types    =            4
     number of electrons       =       288.00
     number of Kohn-Sham states=          172
     kinetic-energy cutoff     =     100.0000  Ry
     charge density cutoff     =     400.0000  Ry
     convergence threshold     =      1.0E-08
     mixing beta               =       0.5000
     number of iterations used =            8  plain     mixing
     Exchange-correlation      =  SLA  PW   PBX  PBC ( 1  4  3  4 0 0)

     celldm(1)=  10.504988  celldm(2)=   0.000000  celldm(3)=   0.000000
     celldm(4)=   0.000000  celldm(5)=   0.000000  celldm(6)=   0.000000

     crystal axes: (cart. coord. in units of alat)
               a(1) = (   1.000000   0.000000   0.000000 )  
               a(2) = (   0.000000   1.620795   0.000000 )  
               a(3) = (   0.000000   0.000000   3.502788 )  

     reciprocal axes: (cart. coord. in units 2 pi/alat)
               b(1) = (  1.000000  0.000000  0.000000 )  
               b(2) = (  0.000000  0.616981  0.000000 )  
               b(3) = (  0.000000  0.000000  0.285487 )  


     PseudoPot. # 1 for  C read from file:
     /scratch/ahofstet/pseudo/C.pbe-n-kjpaw_psl.0.1.UPF
     MD5 check sum: 430fe95172b1e11ef3f8ed03bac87931
     Pseudo is Projector augmented-wave + core cor, Zval =  4.0
     Generated using "atomic" code by A. Dal Corso  v.5.0.99 svn rev. 10869
     Shape of augmentation charge: BESSEL
     Using radial grid of 1073 points,  4 beta functions with: 
                l(1) =   0
                l(2) =   0
                l(3) =   1
                l(4) =   1
     Q(r) pseudized with 0 coefficients 


     PseudoPot. # 2 for  N read from file:
     /scratch/ahofstet/pseudo/N.pbe-n-kjpaw_psl.0.1.UPF
     MD5 check sum: f73187c8b701007e77325f868c9291d7
     Pseudo is Projector augmented-wave + core cor, Zval =  5.0
     Generated using "atomic" code by A. Dal Corso  v.5.0.99 svn rev. 10869
     Shape of augmentation charge: PSQ
     Using radial grid of 1085 points,  4 beta functions with: 
                l(1) =   0
                l(2) =   0
                l(3) =   1
                l(4) =   1
     Q(r) pseudized with 0 coefficients 


     PseudoPot. # 3 for  H read from file:
     /scratch/ahofstet/pseudo/H.pbe-kjpaw_psl.0.1.UPF
     MD5 check sum: 94e484f906d9e9773b2f6e52662335b2
     Pseudo is Projector augmented-wave, Zval =  1.0
     Generated using "atomic" code by A. Dal Corso  v.5.0.99 svn rev. 10869
     Shape of augmentation charge: PSQ
     Using radial grid of  929 points,  2 beta functions with: 
                l(1) =   0
                l(2) =   0
     Q(r) pseudized with 0 coefficients 


     PseudoPot. # 4 for  O read from file:
     /scratch/ahofstet/pseudo/O.pbe-n-kjpaw_psl.0.1.UPF
     MD5 check sum: 3f94a2996a3169367d6eb21d9b593f20
     Pseudo is Projector augmented-wave + core cor, Zval =  6.0
     Generated using "atomic" code by A. Dal Corso  v.5.0.99 svn rev. 10869
     Shape of augmentation charge: BESSEL
     Using radial grid of 1095 points,  4 beta functions with: 
                l(1) =   0
                l(2) =   0
                l(3) =   1
                l(4) =   1
     Q(r) pseudized with 0 coefficients 


     atomic species   valence    mass     pseudopotential
        C              4.00    12.01070      C( 1.00)
        N              5.00    14.00670      N( 1.00)
        H              1.00     1.00794      H( 1.00)
        O              6.00    15.99940      O( 1.00)

      4 Sym. Ops. (no inversion) found ( 3 have fractional translation)



   Cartesian axes

     site n.     atom                  positions (alat units)
         1           O   tau(   1) = (   0.1322346   1.0227117   2.7186847  )
         2           O   tau(   2) = (   0.3677654   0.5980834   0.9672905  )
         3           O   tau(   3) = (   0.8677654   0.2123142   2.5354977  )
         4           O   tau(   4) = (   0.6322346   1.4084809   0.7841036  )
         5           O   tau(   5) = (   0.4106769   1.2571069   2.8620571  )
         6           O   tau(   6) = (   0.0893231   0.3636882   1.1106630  )
         7           O   tau(   7) = (   0.5893231   0.4467094   2.3921253  )
         8           O   tau(   8) = (   0.9106769   1.1740857   0.6407312  )
         9           N   tau(   9) = (   0.3453593   1.1096149   2.7009303  )
        10           N   tau(  10) = (   0.1546407   0.5111802   0.9495361  )
        11           N   tau(  11) = (   0.6546407   0.2992173   2.5532521  )
        12           N   tau(  12) = (   0.8453593   1.3215778   0.8018580  )
        13           O   tau(  13) = (   0.4791499   1.0514890   2.5311378  )
        14           O   tau(  14) = (   1.0208501   0.5693061   0.7797437  )
        15           O   tau(  15) = (   0.5208501   0.2410915   2.7230446  )
        16           O   tau(  16) = (  -0.0208501   1.3797036   0.9716505  )
        17           N   tau(  17) = (   0.8649674   1.4569696   2.8731875  )
        18           N   tau(  18) = (   0.6350326   0.1638255   1.1217934  )
        19           N   tau(  19) = (   0.1350326   0.6465721   2.3809949  )
        20           N   tau(  20) = (   0.3649674   0.9742230   0.6296008  )
        21           H   tau(  21) = (   0.8874454   1.5976149   2.7480075  )
        22           H   tau(  22) = (   0.6125546   0.0231802   0.9966134  )
        23           H   tau(  23) = (   0.1125546   0.7872173   2.5061749  )
        24           H   tau(  24) = (   0.3874454   0.8335778   0.7547807  )
        25           H   tau(  25) = (   0.6879117   1.3922321   2.8537043  )
        26           H   tau(  26) = (   0.8120883   0.2285630   1.1023101  )
        27           H   tau(  27) = (   0.3120883   0.5818346   2.4004782  )
        28           H   tau(  28) = (   0.1879117   1.0389605   0.6490840  )
        29           H   tau(  29) = (   0.9781086   1.3133315   2.8296777  )
        30           H   tau(  30) = (   0.5218914   0.3074636   1.0782835  )
        31           H   tau(  31) = (   0.0218914   0.5029339   2.4245047  )
        32           H   tau(  32) = (   0.4781086   1.1178612   0.6731106  )
        33           C   tau(  33) = (   0.9093251   1.5403368   3.1191783  )
        34           C   tau(  34) = (   0.5906749   0.0804583   1.3677842  )
        35           C   tau(  35) = (   0.0906749   0.7299393   2.1350041  )
        36           C   tau(  36) = (   0.4093251   0.8908558   0.3836099  )
        37           C   tau(  37) = (   0.8008113   1.5518013   0.0338736  )
        38           C   tau(  38) = (   0.6991887   0.0689938   1.7852678  )
        39           C   tau(  39) = (   0.1991887   0.7414037   1.7175205  )
        40           C   tau(  40) = (   0.3008113   0.8793914   3.4689146  )
        41           H   tau(  41) = (   0.6766997   1.5037782   0.1778110  )
        42           H   tau(  42) = (   0.8233003   0.1170169   1.9292051  )
        43           H   tau(  43) = (   0.3233003   0.6933807   1.5735832  )
        44           H   tau(  44) = (   0.1766997   0.9274145   3.3249773  )
        45           C   tau(  45) = (   0.1116911   0.0596222   3.1653584  )
        46           C   tau(  46) = (   0.3883089   1.5611729   1.4139643  )
        47           C   tau(  47) = (   0.8883089   0.8700198   2.0888240  )
        48           C   tau(  48) = (   0.6116911   0.7507753   0.3374298  )
        49           H   tau(  49) = (   0.2339031   0.1072461   3.0195483  )
        50           H   tau(  50) = (   0.2660969   1.5135491   1.2681542  )
        51           H   tau(  51) = (   0.7660969   0.9176436   2.2346341  )
        52           H   tau(  52) = (   0.7339031   0.7031515   0.4832400  )
        53           C   tau(  53) = (   0.1563522   0.1374648   3.4002694  )
        54           C   tau(  54) = (   0.3436478   1.4833303   1.6488753  )
        55           C   tau(  55) = (   0.8436478   0.9478624   1.8539130  )
        56           C   tau(  56) = (   0.6563522   0.6729327   0.1025188  )
        57           H   tau(  57) = (   0.3105461   0.2537852   3.4349792  )
        58           H   tau(  58) = (   0.1894539   1.3670099   1.6835851  )
        59           H   tau(  59) = (   0.6894539   1.0641828   1.8192032  )
        60           H   tau(  60) = (   0.8105461   0.5566123   0.0678091  )
        61           C   tau(  61) = (   0.9997999   0.0753783   0.0862412  )
        62           C   tau(  62) = (   0.5002001   1.5454168   1.8376353  )
        63           C   tau(  63) = (   0.0002001   0.8857758   1.6651530  )
        64           C   tau(  64) = (   0.4997999   0.7350193   3.4165471  )
        65           C   tau(  65) = (   0.7521379   1.4731366   3.3026295  )
        66           C   tau(  66) = (   0.7478621   0.1476585   1.5512353  )
        67           C   tau(  67) = (   0.2478621   0.6627391   1.9515529  )
        68           C   tau(  68) = (   0.2521379   0.9580560   0.2001588  )
        69           H   tau(  69) = (   0.5964955   1.3595223   3.2663207  )
        70           H   tau(  70) = (   0.9035045   0.2612728   1.5149265  )
        71           H   tau(  71) = (   0.4035045   0.5491248   1.9878617  )
        72           H   tau(  72) = (   0.0964955   1.0716704   0.2364676  )
        73           C   tau(  73) = (   0.0390009   0.1673420   0.3390843  )
        74           C   tau(  74) = (   0.4609991   1.4534531   2.0904785  )
        75           C   tau(  75) = (   0.9609991   0.9777396   1.4123098  )
        76           C   tau(  76) = (   0.5390009   0.6430555   3.1637039  )
        77           H   tau(  77) = (   0.0478804   0.3652898   0.3377065  )
        78           H   tau(  78) = (   0.4521196   1.2555053   2.0891007  )
        79           H   tau(  79) = (   0.9521196   1.1756873   1.4136876  )
        80           H   tau(  80) = (   0.5478804   0.4451078   3.1650817  )
        81           H   tau(  81) = (   0.8780093   0.1195355   0.4477814  )
        82           H   tau(  82) = (   0.6219907   1.5012596   2.1991755  )
        83           H   tau(  83) = (   0.1219907   0.9299331   1.3036127  )
        84           H   tau(  84) = (   0.3780093   0.6908621   3.0550069  )
        85           C   tau(  85) = (   0.2654364   0.0701438   0.4616047  )
        86           C   tau(  86) = (   0.2345636   1.5506513   2.2129988  )
        87           C   tau(  87) = (   0.7345636   0.8805413   1.2897894  )
        88           C   tau(  88) = (   0.7654364   0.7402538   3.0411836  )
        89           H   tau(  89) = (   0.4323116   0.1306595   0.3695243  )
        90           H   tau(  90) = (   0.0676884   1.4901356   2.1209185  )
        91           H   tau(  91) = (   0.5676884   0.9410571   1.3818698  )
        92           H   tau(  92) = (   0.9323116   0.6797380   3.1332640  )
        93           H   tau(  93) = (   0.2664659   1.4934157   0.4655546  )
        94           H   tau(  94) = (   0.2335341   0.1273794   2.2169487  )
        95           H   tau(  95) = (   0.7335341   0.6830181   1.2858396  )
        96           H   tau(  96) = (   0.7664659   0.9377770   3.0372337  )
        97           H   tau(  97) = (   0.2760042   0.1339133   0.6480433  )
        98           H   tau(  98) = (   0.2239958   1.4868818   2.3994374  )
        99           H   tau(  99) = (   0.7239958   0.9443108   1.1033508  )
       100           H   tau( 100) = (   0.7760042   0.6764843   2.8547450  )

     number of k points=     4
                       cart. coord. in units 2pi/alat
        k(    1) = (   0.0000000   0.0000000   0.0000000), wk =   0.3333333
        k(    2) = (   0.0000000  -0.3084906   0.0000000), wk =   0.3333333
        k(    3) = (   0.3333333   0.0000000   0.0000000), wk =   0.6666667
        k(    4) = (   0.3333333  -0.3084906   0.0000000), wk =   0.6666667

     Dense  grid:   889069 G-vectors     FFT dimensions: (  72, 120, 240)

     Estimated max dynamical RAM per process >     665.70MB

     Estimated total allocated dynamical RAM >    5325.57MB

     Check: negative/imaginary core charge=   -0.000002    0.000000

     Initial potential from superposition of free atoms

     starting charge  287.99814, renormalised to  288.00000
     Starting wfc are  256 randomized atomic wfcs
     Checking if some PAW data can be deallocated... 

     total cpu time spent up to now is       25.6 secs

     per-process dynamical memory:   406.2 Mb

     Self-consistent Calculation

     iteration #  1     ecut=   100.00 Ry     beta=0.50
     Davidson diagonalization with overlap
     ethr =  1.00E-02,  avg # of iterations =  4.0

     total cpu time spent up to now is       90.3 secs

     total energy              =   -1369.89847310 Ry
     Harris-Foulkes estimate   =   -1376.01238550 Ry
     estimated scf accuracy    <      11.21151809 Ry

     iteration #  2     ecut=   100.00 Ry     beta=0.50
     Davidson diagonalization with overlap
     ethr =  3.89E-03,  avg # of iterations =  3.2

     total cpu time spent up to now is      130.9 secs

     total energy              =   -1371.13893450 Ry
     Harris-Foulkes estimate   =   -1372.01587727 Ry
     estimated scf accuracy    <       1.78391304 Ry

     iteration #  3     ecut=   100.00 Ry     beta=0.50
     Davidson diagonalization with overlap
     ethr =  6.19E-04,  avg # of iterations =  6.5

     total cpu time spent up to now is      207.3 secs

     total energy              =   -1372.09113444 Ry
     Harris-Foulkes estimate   =   -1372.44661442 Ry
     estimated scf accuracy    <       0.89720418 Ry

     iteration #  4     ecut=   100.00 Ry     beta=0.50
     Davidson diagonalization with overlap
     ethr =  3.12E-04,  avg # of iterations =  1.2

     total cpu time spent up to now is      240.2 secs

     total energy              =   -1372.01993129 Ry
     Harris-Foulkes estimate   =   -1372.15511291 Ry
     estimated scf accuracy    <       0.22432429 Ry

     iteration #  5     ecut=   100.00 Ry     beta=0.50
     Davidson diagonalization with overlap
     ethr =  7.79E-05,  avg # of iterations =  7.2

     total cpu time spent up to now is      319.1 secs

     total energy              =   -1372.19319055 Ry
     Harris-Foulkes estimate   =   -1372.29633059 Ry
     estimated scf accuracy    <       0.36644643 Ry

     iteration #  6     ecut=   100.00 Ry     beta=0.50
     Davidson diagonalization with overlap
     ethr =  7.79E-05,  avg # of iterations =  2.0

     total cpu time spent up to now is      353.0 secs

     total energy              =   -1372.14022446 Ry
     Harris-Foulkes estimate   =   -1372.20842833 Ry
     estimated scf accuracy    <       0.16602051 Ry

     iteration #  7     ecut=   100.00 Ry     beta=0.50
     Davidson diagonalization with overlap
     ethr =  5.76E-05,  avg # of iterations =  5.8

     total cpu time spent up to now is      401.3 secs

     total energy              =   -1372.18010220 Ry
     Harris-Foulkes estimate   =   -1372.18145405 Ry
     estimated scf accuracy    <       0.00299953 Ry

     iteration #  8     ecut=   100.00 Ry     beta=0.50
     Davidson diagonalization with overlap
     ethr =  1.04E-06,  avg # of iterations =  5.0

     total cpu time spent up to now is      480.3 secs

     total energy              =   -1372.18239186 Ry
     Harris-Foulkes estimate   =   -1372.18316252 Ry
     estimated scf accuracy    <       0.00156028 Ry

     iteration #  9     ecut=   100.00 Ry     beta=0.50
     Davidson diagonalization with overlap
     ethr =  5.42E-07,  avg # of iterations =  6.8

     total cpu time spent up to now is      522.3 secs

     total energy              =   -1372.18270025 Ry
     Harris-Foulkes estimate   =   -1372.18270573 Ry
     estimated scf accuracy    <       0.00004420 Ry

     iteration # 10     ecut=   100.00 Ry     beta=0.50
     Davidson diagonalization with overlap
     ethr =  1.53E-08,  avg # of iterations =  5.0

     total cpu time spent up to now is      596.5 secs

     total energy              =   -1372.18278596 Ry
     Harris-Foulkes estimate   =   -1372.18284491 Ry
     estimated scf accuracy    <       0.00019028 Ry

     iteration # 11     ecut=   100.00 Ry     beta=0.50
     Davidson diagonalization with overlap
     ethr =  1.53E-08,  avg # of iterations =  4.0

     total cpu time spent up to now is      634.5 secs

     total energy              =   -1372.18276413 Ry
     Harris-Foulkes estimate   =   -1372.18279345 Ry
     estimated scf accuracy    <       0.00007122 Ry

     iteration # 12     ecut=   100.00 Ry     beta=0.50
     Davidson diagonalization with overlap
     ethr =  1.53E-08,  avg # of iterations =  5.0

     total cpu time spent up to now is      685.5 secs

     total energy              =   -1372.18278418 Ry
     Harris-Foulkes estimate   =   -1372.18278491 Ry
     estimated scf accuracy    <       0.00000209 Ry

     iteration # 13     ecut=   100.00 Ry     beta=0.50
     Davidson diagonalization with overlap
     ethr =  7.27E-10,  avg # of iterations =  4.0

     total cpu time spent up to now is      730.2 secs

     total energy              =   -1372.18278450 Ry
     Harris-Foulkes estimate   =   -1372.18278471 Ry
     estimated scf accuracy    <       0.00000041 Ry

     iteration # 14     ecut=   100.00 Ry     beta=0.50
     Davidson diagonalization with overlap
     ethr =  1.44E-10,  avg # of iterations =  4.0

     total cpu time spent up to now is      785.9 secs

     total energy              =   -1372.18278467 Ry
     Harris-Foulkes estimate   =   -1372.18278470 Ry
     estimated scf accuracy    <       0.00000009 Ry

     iteration # 15     ecut=   100.00 Ry     beta=0.50
     Davidson diagonalization with overlap
     ethr =  3.21E-11,  avg # of iterations =  1.2

     total cpu time spent up to now is      819.0 secs

     total energy              =   -1372.18278466 Ry
     Harris-Foulkes estimate   =   -1372.18278468 Ry
     estimated scf accuracy    <       0.00000003 Ry

     iteration # 16     ecut=   100.00 Ry     beta=0.50
     Davidson diagonalization with overlap
     ethr =  1.16E-11,  avg # of iterations =  4.0

     total cpu time spent up to now is      876.6 secs

     total energy              =   -1372.18278466 Ry
     Harris-Foulkes estimate   =   -1372.18278469 Ry
     estimated scf accuracy    <       0.00000006 Ry

     iteration # 17     ecut=   100.00 Ry     beta=0.50
     Davidson diagonalization with overlap
     ethr =  1.16E-11,  avg # of iterations =  1.0

     total cpu time spent up to now is      909.5 secs

     total energy              =   -1372.18278466 Ry
     Harris-Foulkes estimate   =   -1372.18278467 Ry
     estimated scf accuracy    <       0.00000002 Ry

     iteration # 18     ecut=   100.00 Ry     beta=0.50
     Davidson diagonalization with overlap
     ethr =  5.78E-12,  avg # of iterations =  4.0

     total cpu time spent up to now is      963.4 secs

     End of self-consistent calculation

          k = 0.0000 0.0000 0.0000 (111107 PWs)   bands (ev):

   -25.5346 -25.5346 -25.5293 -25.5293 -20.2116 -20.2115 -20.1971 -20.1971
   -19.8629 -19.8629 -19.8489 -19.8489 -18.4912 -18.4907 -18.4687 -18.4682
   -15.5659 -15.5642 -15.5193 -15.5178 -13.6198 -13.6085 -13.6064 -13.5962
   -12.7757 -12.7742 -12.7530 -12.7516 -11.9817 -11.9804 -11.9545 -11.9536
    -9.9558  -9.9530  -9.8733  -9.8715  -9.8519  -9.6372  -9.5685  -9.5494
    -9.4975  -9.3767  -9.3615  -9.3203  -8.5155  -8.4300  -8.3673  -8.3345
    -8.0574  -8.0566  -7.9533  -7.9392  -7.6744  -7.6447  -7.6409  -7.6285
    -7.5638  -7.5496  -7.5186  -7.4963  -7.4810  -7.4327  -7.3771  -7.3610
    -6.9787  -6.9752  -6.9286  -6.8756  -6.6992  -6.6974  -6.5814  -6.5545
    -5.6838  -5.6328  -5.5954  -5.5820  -5.3887  -5.3470  -5.3106  -5.2808
    -4.9485  -4.9457  -4.8778  -4.8650  -4.7266  -4.7088  -4.4728  -4.4609
    -4.4240  -4.3849  -4.2557  -4.2486  -3.9673  -3.9150  -3.8405  -3.8375
    -3.4749  -3.4080  -3.3776  -3.3347  -2.8937  -2.8656  -2.8077  -2.7936
    -2.6917  -2.6669  -2.6412  -2.5197  -2.4039  -2.3900  -2.3857  -2.3824
    -2.3435  -2.3024  -2.1638  -2.0843  -2.0595  -2.0463  -2.0383  -2.0223
    -1.8335  -1.8119  -1.7478  -1.7388  -1.6987  -1.6867  -1.6675  -1.6460
    -1.6338  -1.6257  -1.5593  -1.5387  -0.8560  -0.8307  -0.7982  -0.7825
    -0.4541  -0.3743  -0.3728  -0.3162  -0.2634  -0.2547  -0.1025  -0.1009
     3.4086   3.4133   3.6160   3.6265   4.1992   4.2331   4.3179   4.3276
     4.5893   4.6034   4.7871   4.7915   5.5116   5.6189   6.0177   6.5225
     6.8138   7.0347   7.0427   7.2896   7.3454   7.4257   7.4311   7.5460
     7.6516   7.6525   7.7164   7.9260

          k = 0.0000-0.3085 0.0000 (111270 PWs)   bands (ev):

   -25.5319 -25.5319 -25.5319 -25.5319 -20.2041 -20.2041 -20.2041 -20.2041
   -19.8564 -19.8564 -19.8563 -19.8563 -18.4796 -18.4796 -18.4794 -18.4794
   -15.5552 -15.5552 -15.5288 -15.5288 -13.6147 -13.6147 -13.6012 -13.6012
   -12.7682 -12.7682 -12.7573 -12.7573 -11.9837 -11.9837 -11.9509 -11.9509
   -10.0101 -10.0101  -9.8190  -9.8190  -9.7216  -9.7216  -9.6102  -9.6102
    -9.4039  -9.4039  -9.3523  -9.3523  -8.4596  -8.4596  -8.3753  -8.3753
    -7.9908  -7.9908  -7.9843  -7.9843  -7.6722  -7.6722  -7.6503  -7.6503
    -7.5466  -7.5466  -7.5234  -7.5234  -7.4079  -7.4079  -7.3849  -7.3849
    -6.9617  -6.9617  -6.9319  -6.9319  -6.6361  -6.6361  -6.6242  -6.6242
    -5.6410  -5.6410  -5.5849  -5.5849  -5.3562  -5.3562  -5.3172  -5.3172
    -4.9087  -4.9087  -4.8898  -4.8898  -4.6795  -4.6795  -4.5093  -4.5093
    -4.4014  -4.4014  -4.3278  -4.3278  -3.9310  -3.9310  -3.8462  -3.8462
    -3.4367  -3.4367  -3.3611  -3.3611  -2.8897  -2.8897  -2.7859  -2.7859
    -2.6533  -2.6533  -2.5882  -2.5882  -2.4095  -2.4095  -2.3478  -2.3478
    -2.2289  -2.2289  -2.1797  -2.1797  -2.0912  -2.0912  -2.0146  -2.0146
    -1.8192  -1.8192  -1.7918  -1.7918  -1.7102  -1.7102  -1.6683  -1.6683
    -1.5774  -1.5774  -1.5598  -1.5598  -0.8258  -0.8258  -0.8069  -0.8069
    -0.4485  -0.4485  -0.3275  -0.3275  -0.1823  -0.1823  -0.1407  -0.1407
     3.5012   3.5012   3.5252   3.5252   4.1992   4.1992   4.3606   4.3606
     4.6375   4.6375   4.6747   4.6747   6.0483   6.0483   6.1087   6.1087
     6.4608   6.4608   6.8558   6.8558   7.4026   7.4026   7.5831   7.5831
     7.6024   7.6024   7.9279   7.9279

          k = 0.3333 0.0000 0.0000 (111086 PWs)   bands (ev):

   -25.5325 -25.5325 -25.5286 -25.5286 -20.2055 -20.2055 -20.1942 -20.1942
   -19.8876 -19.8876 -19.8507 -19.8507 -18.5020 -18.5018 -18.4490 -18.4487
   -15.5353 -15.5312 -15.5108 -15.5081 -13.5980 -13.5877 -13.5874 -13.5854
   -12.8302 -12.8292 -12.8228 -12.8216 -11.9925 -11.9816 -11.9702 -11.9660
    -9.9847  -9.9395  -9.8931  -9.8635  -9.7973  -9.6970  -9.6861  -9.6095
    -9.4798  -9.4744  -9.2762  -9.2674  -8.4978  -8.4723  -8.4576  -8.4422
    -8.0640  -8.0543  -7.8275  -7.8082  -7.7087  -7.6816  -7.6381  -7.6294
    -7.4528  -7.4393  -7.4179  -7.4074  -7.3697  -7.3136  -7.2906  -7.2710
    -7.0452  -7.0050  -6.9380  -6.9220  -6.7369  -6.7289  -6.6160  -6.6077
    -5.6617  -5.6534  -5.6115  -5.5813  -5.4123  -5.3844  -5.3377  -5.3057
    -4.8768  -4.8696  -4.7994  -4.7766  -4.7327  -4.7044  -4.5795  -4.5568
    -4.3455  -4.3004  -4.2934  -4.2672  -4.0015  -3.9606  -3.9083  -3.8905
    -3.5104  -3.4933  -3.4799  -3.4603  -2.9513  -2.9284  -2.9267  -2.9236
    -2.7646  -2.7309  -2.6407  -2.5994  -2.3704  -2.3656  -2.2416  -2.2249
    -2.1574  -2.1419  -2.1410  -2.0386  -2.0202  -2.0052  -1.9679  -1.9494
    -1.9101  -1.8971  -1.7718  -1.7686  -1.6935  -1.6906  -1.6272  -1.6225
    -1.5928  -1.5810  -1.5450  -1.5264  -0.5771  -0.5733  -0.5693  -0.5454
    -0.4815  -0.4549  -0.3697  -0.3408  -0.2205  -0.2181  -0.0893  -0.0807
     3.3929   3.3953   3.5851   3.5965   4.2434   4.2480   4.4246   4.4340
     4.5214   4.5328   4.5552   4.5747   5.9282   6.0376   6.3755   6.6256
     6.7425   6.7564   6.8401   6.9555   7.0051   7.2450   7.3268   7.5170
     7.5686   7.6154   7.6906   7.7057

          k = 0.3333-0.3085 0.0000 (111136 PWs)   bands (ev):

   -25.5306 -25.5306 -25.5306 -25.5306 -20.1998 -20.1998 -20.1998 -20.1998
   -19.8696 -19.8696 -19.8696 -19.8696 -18.4750 -18.4750 -18.4749 -18.4749
   -15.5280 -15.5280 -15.5148 -15.5148 -13.5927 -13.5927 -13.5862 -13.5862
   -12.8309 -12.8309 -12.8224 -12.8224 -11.9874 -11.9874 -11.9679 -11.9679
    -9.9401  -9.9401  -9.8956  -9.8956  -9.7656  -9.7656  -9.6487  -9.6487
    -9.3903  -9.3903  -9.3511  -9.3511  -8.5208  -8.5208  -8.4115  -8.4115
    -7.9535  -7.9535  -7.9263  -7.9263  -7.6743  -7.6743  -7.6342  -7.6342
    -7.4547  -7.4547  -7.4216  -7.4216  -7.3224  -7.3224  -7.2805  -7.2805
    -7.0187  -7.0187  -6.9874  -6.9874  -6.6555  -6.6555  -6.6517  -6.6517
    -5.6573  -5.6573  -5.6082  -5.6082  -5.3751  -5.3751  -5.3456  -5.3456
    -4.8663  -4.8663  -4.8244  -4.8244  -4.7036  -4.7036  -4.5556  -4.5556
    -4.3070  -4.3070  -4.2731  -4.2731  -3.9564  -3.9564  -3.9155  -3.9155
    -3.5119  -3.5119  -3.4768  -3.4768  -2.9713  -2.9713  -2.8996  -2.8996
    -2.7220  -2.7220  -2.6760  -2.6760  -2.3089  -2.3089  -2.2173  -2.2173
    -2.1605  -2.1605  -2.1243  -2.1243  -2.0210  -2.0210  -1.9837  -1.9837
    -1.8343  -1.8343  -1.8019  -1.8019  -1.6830  -1.6830  -1.6567  -1.6567
    -1.5564  -1.5564  -1.5514  -1.5514  -0.5728  -0.5728  -0.5347  -0.5347
    -0.4703  -0.4703  -0.4024  -0.4024  -0.1595  -0.1595  -0.1148  -0.1148
     3.4759   3.4759   3.5035   3.5035   4.3133   4.3133   4.3983   4.3983
     4.5417   4.5417   4.5482   4.5482   6.1882   6.1882   6.3082   6.3082
     6.7199   6.7199   6.8729   6.8729   7.0646   7.0646   7.3157   7.3157
     7.5506   7.5509   7.6227   7.6230

     highest occupied, lowest unoccupied level (ev):    -0.0807    3.3929

!    total energy              =   -1372.18278467 Ry
     Harris-Foulkes estimate   =   -1372.18278467 Ry
     estimated scf accuracy    <          9.4E-10 Ry

     total all-electron energy =     -5177.186940 Ry

     The total energy is the sum of the following terms:

     one-electron contribution =    -804.94270234 Ry
     hartree contribution      =     505.40560088 Ry
     xc contribution           =    -298.51273193 Ry
     ewald contribution        =    -380.37333898 Ry
     Dispersion Correction     =      -0.38854220 Ry
     one-center paw contrib.   =    -393.37107010 Ry

     convergence has been achieved in  18 iterations

     Forces acting on atoms (cartesian axes, Ry/au):

     atom    1 type  4   force =    -0.00519761    0.00161943   -0.00451141
     atom    2 type  4   force =     0.00519761   -0.00161943   -0.00451141
     atom    3 type  4   force =     0.00519761    0.00161943    0.00451141
     atom    4 type  4   force =    -0.00519761   -0.00161943    0.00451141
     atom    5 type  4   force =    -0.00277701    0.00498455    0.00104579
     atom    6 type  4   force =     0.00277701   -0.00498455    0.00104579
     atom    7 type  4   force =     0.00277701    0.00498455   -0.00104579
     atom    8 type  4   force =    -0.00277701   -0.00498455   -0.00104579
     atom    9 type  2   force =     0.00587365    0.00010906   -0.00130511
     atom   10 type  2   force =    -0.00587365   -0.00010906   -0.00130511
     atom   11 type  2   force =    -0.00587365    0.00010906    0.00130511
     atom   12 type  2   force =     0.00587365   -0.00010906    0.00130511
     atom   13 type  4   force =     0.00044249   -0.00152652    0.00490965
     atom   14 type  4   force =    -0.00044249    0.00152652    0.00490965
     atom   15 type  4   force =    -0.00044249   -0.00152652   -0.00490965
     atom   16 type  4   force =     0.00044249    0.00152652   -0.00490965
     atom   17 type  2   force =     0.00431604   -0.00332113    0.00035936
     atom   18 type  2   force =    -0.00431604    0.00332113    0.00035936
     atom   19 type  2   force =    -0.00431604   -0.00332113   -0.00035936
     atom   20 type  2   force =     0.00431604    0.00332113   -0.00035936
     atom   21 type  3   force =    -0.00028009    0.00031065   -0.00045248
     atom   22 type  3   force =     0.00028009   -0.00031065   -0.00045248
     atom   23 type  3   force =     0.00028009    0.00031065    0.00045248
     atom   24 type  3   force =    -0.00028009   -0.00031065    0.00045248
     atom   25 type  3   force =    -0.00112059   -0.00303091   -0.00053585
     atom   26 type  3   force =     0.00112059    0.00303091   -0.00053585
     atom   27 type  3   force =     0.00112059   -0.00303091    0.00053585
     atom   28 type  3   force =    -0.00112059    0.00303091    0.00053585
     atom   29 type  3   force =    -0.00072407    0.00027293   -0.00021092
     atom   30 type  3   force =     0.00072407   -0.00027293   -0.00021092
     atom   31 type  3   force =     0.00072407    0.00027293    0.00021092
     atom   32 type  3   force =    -0.00072407   -0.00027293    0.00021092
     atom   33 type  1   force =    -0.00330180   -0.00591711    0.00212246
     atom   34 type  1   force =     0.00330180    0.00591711    0.00212246
     atom   35 type  1   force =     0.00330180   -0.00591711   -0.00212246
     atom   36 type  1   force =    -0.00330180    0.00591711   -0.00212246
     atom   37 type  1   force =    -0.00686169   -0.00313404   -0.00502191
     atom   38 type  1   force =     0.00686169    0.00313404   -0.00502191
     atom   39 type  1   force =     0.00686169   -0.00313404    0.00502191
     atom   40 type  1   force =    -0.00686169    0.00313404    0.00502191
     atom   41 type  3   force =     0.00066308   -0.00208568    0.00175439
     atom   42 type  3   force =    -0.00066308    0.00208568    0.00175439
     atom   43 type  3   force =    -0.00066308   -0.00208568   -0.00175439
     atom   44 type  3   force =     0.00066308    0.00208568   -0.00175439
     atom   45 type  1   force =     0.00415558    0.00404118    0.00567300
     atom   46 type  1   force =    -0.00415558   -0.00404118    0.00567300
     atom   47 type  1   force =    -0.00415558    0.00404118   -0.00567300
     atom   48 type  1   force =     0.00415558   -0.00404118   -0.00567300
     atom   49 type  3   force =    -0.00106296    0.00094069   -0.00015435
     atom   50 type  3   force =     0.00106296   -0.00094069   -0.00015435
     atom   51 type  3   force =     0.00106296    0.00094069    0.00015435
     atom   52 type  3   force =    -0.00106296   -0.00094069    0.00015435
     atom   53 type  1   force =    -0.00789904    0.00013070   -0.00351610
     atom   54 type  1   force =     0.00789904   -0.00013070   -0.00351610
     atom   55 type  1   force =     0.00789904    0.00013070    0.00351610
     atom   56 type  1   force =    -0.00789904   -0.00013070    0.00351610
     atom   57 type  3   force =     0.00106815   -0.00196773    0.00163034
     atom   58 type  3   force =    -0.00106815    0.00196773    0.00163034
     atom   59 type  3   force =    -0.00106815   -0.00196773   -0.00163034
     atom   60 type  3   force =     0.00106815    0.00196773   -0.00163034
     atom   61 type  1   force =     0.00509502    0.00679002    0.00131687
     atom   62 type  1   force =    -0.00509502   -0.00679002    0.00131687
     atom   63 type  1   force =    -0.00509502    0.00679002   -0.00131687
     atom   64 type  1   force =     0.00509502   -0.00679002   -0.00131687
     atom   65 type  1   force =     0.00867813    0.00093564    0.00242680
     atom   66 type  1   force =    -0.00867813   -0.00093564    0.00242680
     atom   67 type  1   force =    -0.00867813    0.00093564   -0.00242680
     atom   68 type  1   force =     0.00867813   -0.00093564   -0.00242680
     atom   69 type  3   force =    -0.00095727    0.00192582   -0.00207289
     atom   70 type  3   force =     0.00095727   -0.00192582   -0.00207289
     atom   71 type  3   force =     0.00095727    0.00192582    0.00207289
     atom   72 type  3   force =    -0.00095727   -0.00192582    0.00207289
     atom   73 type  1   force =    -0.01304631   -0.00312085    0.00464098
     atom   74 type  1   force =     0.01304631    0.00312085    0.00464098
     atom   75 type  1   force =     0.01304631   -0.00312085   -0.00464098
     atom   76 type  1   force =    -0.01304631    0.00312085   -0.00464098
     atom   77 type  3   force =     0.00056947    0.00001898   -0.00059372
     atom   78 type  3   force =    -0.00056947   -0.00001898   -0.00059372
     atom   79 type  3   force =    -0.00056947    0.00001898    0.00059372
     atom   80 type  3   force =     0.00056947   -0.00001898    0.00059372
     atom   81 type  3   force =     0.01160075    0.00369044   -0.00535926
     atom   82 type  3   force =    -0.01160075   -0.00369044   -0.00535926
     atom   83 type  3   force =    -0.01160075    0.00369044    0.00535926
     atom   84 type  3   force =     0.01160075   -0.00369044    0.00535926
     atom   85 type  1   force =     0.01443316    0.00291052   -0.00647638
     atom   86 type  1   force =    -0.01443316   -0.00291052   -0.00647638
     atom   87 type  1   force =    -0.01443316    0.00291052    0.00647638
     atom   88 type  1   force =     0.01443316   -0.00291052    0.00647638
     atom   89 type  3   force =    -0.01403120   -0.00380922    0.00387288
     atom   90 type  3   force =     0.01403120    0.00380922    0.00387288
     atom   91 type  3   force =     0.01403120   -0.00380922   -0.00387288
     atom   92 type  3   force =    -0.01403120    0.00380922   -0.00387288
     atom   93 type  3   force =    -0.00079904    0.00067269   -0.00066102
     atom   94 type  3   force =     0.00079904   -0.00067269   -0.00066102
     atom   95 type  3   force =     0.00079904    0.00067269    0.00066102
     atom   96 type  3   force =    -0.00079904   -0.00067269    0.00066102
     atom   97 type  3   force =    -0.00132876   -0.00002897    0.00162590
     atom   98 type  3   force =     0.00132876    0.00002897    0.00162590
     atom   99 type  3   force =     0.00132876   -0.00002897   -0.00162590
     atom  100 type  3   force =    -0.00132876    0.00002897   -0.00162590

     Total force =     0.077811     Total SCF correction =     0.000050


     Computing stress (Cartesian axis) and pressure

          total   stress  (Ry/bohr**3)                   (kbar)     P=   -6.40
  -0.00003176   0.00000000   0.00000000         -4.67      0.00      0.00
   0.00000000  -0.00004823   0.00000000          0.00     -7.10      0.00
   0.00000000   0.00000000  -0.00005051          0.00      0.00     -7.43


     Writing output data file scf.save
 
     init_run     :     23.91s CPU     24.88s WALL (       1 calls)
     electrons    :    901.59s CPU    938.09s WALL (       1 calls)
     forces       :     12.75s CPU     12.96s WALL (       1 calls)
     stress       :     48.68s CPU     48.95s WALL (       1 calls)

     Called by init_run:
     wfcinit      :     18.09s CPU     18.90s WALL (       1 calls)
     potinit      :      2.13s CPU      2.20s WALL (       1 calls)

     Called by electrons:
     c_bands      :    807.30s CPU    836.88s WALL (      18 calls)
     sum_band     :     79.10s CPU     84.33s WALL (      18 calls)
     v_of_rho     :      2.37s CPU      2.61s WALL (      19 calls)
     newd         :      4.71s CPU      6.04s WALL (      19 calls)
     PAW_pot      :      7.51s CPU      7.52s WALL (      19 calls)
     mix_rho      :      0.51s CPU      0.55s WALL (      18 calls)

     Called by c_bands:
     init_us_2    :      4.21s CPU      4.24s WALL (     156 calls)
     cegterg      :    791.39s CPU    820.93s WALL (      72 calls)

     Called by sum_band:
     sum_band:bec :      0.04s CPU      0.04s WALL (      72 calls)
     addusdens    :      4.82s CPU      6.06s WALL (      18 calls)

     Called by *egterg:
     h_psi        :    425.49s CPU    448.85s WALL (     372 calls)
     s_psi        :     94.25s CPU     94.27s WALL (     372 calls)
     g_psi        :      2.17s CPU      2.17s WALL (     296 calls)
     cdiaghg      :     41.48s CPU     41.53s WALL (     368 calls)

     Called by h_psi:
     h_psi:pot    :    422.58s CPU    445.89s WALL (     372 calls)
     h_psi:calbec :     92.76s CPU     92.92s WALL (     372 calls)
     vloc_psi     :    235.04s CPU    258.17s WALL (     372 calls)
     add_vuspsi   :     94.78s CPU     94.80s WALL (     372 calls)

     General routines
     calbec       :    131.10s CPU    131.34s WALL (     464 calls)
     fft          :      1.24s CPU      1.65s WALL (     271 calls)
     fftw         :    250.19s CPU    275.45s WALL (   87070 calls)
 
     Parallel routines
     fft_scatter  :     46.75s CPU     68.53s WALL (   87341 calls)
 
     PWSCF        : 16m32.74s CPU    17m34.14s WALL

 
   This run was terminated on:  12:41:37  13Nov2017            

=------------------------------------------------------------------------------=
   JOB DONE.
=------------------------------------------------------------------------------=
