
     Program PWSCF v.6.1 (svn rev. 13369) starts on 13Nov2017 at 12:24: 4 

     This program is part of the open-source Quantum ESPRESSO suite
     for quantum simulation of materials; please cite
         "P. Giannozzi et al., J. Phys.:Condens. Matter 21 395502 (2009);
          URL http://www.quantum-espresso.org", 
     in publications or presentations arising from this work. More details at
     http://www.quantum-espresso.org/quote

     Parallel version (MPI), running on     8 processors
     R & G space division:  proc/nbgrp/npool/nimage =       8
     Waiting for input...
     Reading input from standard input

     Current dimensions of program PWSCF are:
     Max number of different atomic species (ntypx) = 10
     Max number of k-points (npk) =  40000
     Max angular momentum in pseudopotentials (lmaxx) =  3
               file C.pbe-n-kjpaw_psl.0.1.UPF: wavefunction(s)  2P renormalized
               file N.pbe-n-kjpaw_psl.0.1.UPF: wavefunction(s)  2P renormalized
               file H.pbe-kjpaw_psl.0.1.UPF: wavefunction(s)  1S renormalized
               file O.pbe-n-kjpaw_psl.0.1.UPF: wavefunction(s)  2P renormalized

     -------------------------------------
     Parameters for Dispersion Correction:
     -------------------------------------
       atom      VdW radius       C_6     

        C          2.744         60.710
        N          2.640         42.670
        H          1.892          4.857
        O          2.536         24.284

     Subspace diagonalization in iterative solution of the eigenvalue problem:
     a serial algorithm will be used

 
     Parallelization info
     --------------------
     sticks:   dense  smooth     PW     G-vecs:    dense   smooth      PW
     Min        2051    2051    539               193692   193692   26138
     Max        2052    2052    540               193695   193695   26141
     Sum       16409   16409   4317              1549545  1549545  209109
 


     bravais-lattice index     =            0
     lattice parameter (alat)  =      27.4294  a.u.
     unit-cell volume          =   11470.4821 (a.u.)^3
     number of atoms/cell      =          184
     number of atomic types    =            4
     number of electrons       =       592.00
     number of Kohn-Sham states=          355
     kinetic-energy cutoff     =     100.0000  Ry
     charge density cutoff     =     400.0000  Ry
     convergence threshold     =      1.0E-08
     mixing beta               =       0.5000
     number of iterations used =            8  plain     mixing
     Exchange-correlation      =  SLA  PW   PBX  PBC ( 1  4  3  4 0 0)

     celldm(1)=  27.429375  celldm(2)=   0.000000  celldm(3)=   0.000000
     celldm(4)=   0.000000  celldm(5)=   0.000000  celldm(6)=   0.000000

     crystal axes: (cart. coord. in units of alat)
               a(1) = (   1.000000   0.000000   0.000000 )  
               a(2) = (   0.000000   0.685842   0.000000 )  
               a(3) = (  -0.122564   0.000000   0.810419 )  

     reciprocal axes: (cart. coord. in units 2 pi/alat)
               b(1) = (  1.000000  0.000000  0.151236 )  
               b(2) = (  0.000000  1.458061  0.000000 )  
               b(3) = (  0.000000  0.000000  1.233929 )  


     PseudoPot. # 1 for  C read from file:
     /scratch/ahofstet/pseudo/C.pbe-n-kjpaw_psl.0.1.UPF
     MD5 check sum: 430fe95172b1e11ef3f8ed03bac87931
     Pseudo is Projector augmented-wave + core cor, Zval =  4.0
     Generated using "atomic" code by A. Dal Corso  v.5.0.99 svn rev. 10869
     Shape of augmentation charge: BESSEL
     Using radial grid of 1073 points,  4 beta functions with: 
                l(1) =   0
                l(2) =   0
                l(3) =   1
                l(4) =   1
     Q(r) pseudized with 0 coefficients 


     PseudoPot. # 2 for  N read from file:
     /scratch/ahofstet/pseudo/N.pbe-n-kjpaw_psl.0.1.UPF
     MD5 check sum: f73187c8b701007e77325f868c9291d7
     Pseudo is Projector augmented-wave + core cor, Zval =  5.0
     Generated using "atomic" code by A. Dal Corso  v.5.0.99 svn rev. 10869
     Shape of augmentation charge: PSQ
     Using radial grid of 1085 points,  4 beta functions with: 
                l(1) =   0
                l(2) =   0
                l(3) =   1
                l(4) =   1
     Q(r) pseudized with 0 coefficients 


     PseudoPot. # 3 for  H read from file:
     /scratch/ahofstet/pseudo/H.pbe-kjpaw_psl.0.1.UPF
     MD5 check sum: 94e484f906d9e9773b2f6e52662335b2
     Pseudo is Projector augmented-wave, Zval =  1.0
     Generated using "atomic" code by A. Dal Corso  v.5.0.99 svn rev. 10869
     Shape of augmentation charge: PSQ
     Using radial grid of  929 points,  2 beta functions with: 
                l(1) =   0
                l(2) =   0
     Q(r) pseudized with 0 coefficients 


     PseudoPot. # 4 for  O read from file:
     /scratch/ahofstet/pseudo/O.pbe-n-kjpaw_psl.0.1.UPF
     MD5 check sum: 3f94a2996a3169367d6eb21d9b593f20
     Pseudo is Projector augmented-wave + core cor, Zval =  6.0
     Generated using "atomic" code by A. Dal Corso  v.5.0.99 svn rev. 10869
     Shape of augmentation charge: BESSEL
     Using radial grid of 1095 points,  4 beta functions with: 
                l(1) =   0
                l(2) =   0
                l(3) =   1
                l(4) =   1
     Q(r) pseudized with 0 coefficients 


     atomic species   valence    mass     pseudopotential
        C              4.00    12.01070      C( 1.00)
        N              5.00    14.00670      N( 1.00)
        H              1.00     1.00794      H( 1.00)
        O              6.00    15.99940      O( 1.00)

      4 Sym. Ops., with inversion, found ( 2 have fractional translation)



   Cartesian axes

     site n.     atom                  positions (alat units)
         1           C   tau(   1) = (   0.0832536   0.6364538   0.7969545  )
         2           C   tau(   2) = (   0.7329005   0.6364538   0.4186743  )
         3           C   tau(   3) = (   0.5832728   0.2935338   0.7969527  )
         4           C   tau(   4) = (   0.2328810   0.2935339   0.4186759  )
         5           C   tau(   5) = (   0.7941820   0.0493884   0.0134647  )
         6           C   tau(   6) = (   0.1445351   0.0493885   0.3917449  )
         7           C   tau(   7) = (   0.2941628   0.3923085   0.0134665  )
         8           C   tau(   8) = (   0.6445546   0.3923083   0.3917433  )
         9           H   tau(   9) = (   0.0850448   0.5907716   0.7369414  )
        10           H   tau(  10) = (   0.7311086   0.5907716   0.4786875  )
        11           H   tau(  11) = (   0.5850588   0.2478474   0.7369427  )
        12           H   tau(  12) = (   0.2310946   0.2478473   0.4786862  )
        13           H   tau(  13) = (   0.7923908   0.0950706   0.0734778  )
        14           H   tau(  14) = (   0.1463271   0.0950707   0.3317317  )
        15           H   tau(  15) = (   0.2923768   0.4379949   0.0734765  )
        16           H   tau(  16) = (   0.6463410   0.4379949   0.3317330  )
        17           H   tau(  17) = (   0.0954170   0.0221554   0.7749624  )
        18           H   tau(  18) = (   0.7207364   0.0221553   0.4406665  )
        19           H   tau(  19) = (   0.5954277   0.3650775   0.7749546  )
        20           H   tau(  20) = (   0.2207257   0.3650775   0.4406743  )
        21           H   tau(  21) = (   0.7820187   0.6636869   0.0354568  )
        22           H   tau(  22) = (   0.1566992   0.6636869   0.3697527  )
        23           H   tau(  23) = (   0.2820079   0.3207648   0.0354646  )
        24           H   tau(  24) = (   0.6567099   0.3207647   0.3697449  )
        25           C   tau(  25) = (   0.1114719   0.6330710   0.0357555  )
        26           C   tau(  26) = (   0.8272458   0.6330715   0.3694543  )
        27           C   tau(  27) = (   0.6114955   0.2901553   0.0357619  )
        28           C   tau(  28) = (   0.3272222   0.2901556   0.3694482  )
        29           C   tau(  29) = (   0.7659637   0.0527713   0.7746637  )
        30           C   tau(  30) = (   0.0501898   0.0527708   0.4409649  )
        31           C   tau(  31) = (   0.2659401   0.3956869   0.7746573  )
        32           C   tau(  32) = (   0.5502134   0.3956867   0.4409710  )
        33           C   tau(  33) = (   0.2895117   0.6709238   0.1231185  )
        34           C   tau(  34) = (   0.6492064   0.6709238   0.2820912  )
        35           C   tau(  35) = (   0.7895563   0.3280066   0.1231104  )
        36           C   tau(  36) = (   0.1491616   0.3280065   0.2820992  )
        37           C   tau(  37) = (   0.5879240   0.0149184   0.6873007  )
        38           C   tau(  38) = (   0.2282292   0.0149185   0.5283280  )
        39           C   tau(  39) = (   0.0878793   0.3578356   0.6873088  )
        40           C   tau(  40) = (   0.7282740   0.3578357   0.5283200  )
        41           C   tau(  41) = (   0.1251533   0.6689283   0.1354587  )
        42           C   tau(  42) = (   0.8135648   0.6689281   0.2697513  )
        43           C   tau(  43) = (   0.6252008   0.3260114   0.1354635  )
        44           C   tau(  44) = (   0.3135171   0.3260109   0.2697462  )
        45           C   tau(  45) = (   0.7522823   0.0169139   0.6749605  )
        46           C   tau(  46) = (   0.0638708   0.0169141   0.5406679  )
        47           C   tau(  47) = (   0.2522348   0.3598309   0.6749557  )
        48           C   tau(  48) = (   0.5639185   0.3598313   0.5406730  )
        49           H   tau(  49) = (   0.0681139   0.0278542   0.1561789  )
        50           H   tau(  50) = (   0.8706039   0.0278542   0.2490308  )
        51           H   tau(  51) = (   0.5681601   0.3707761   0.1561896  )
        52           H   tau(  52) = (   0.3705577   0.3707761   0.2490199  )
        53           H   tau(  53) = (   0.8093218   0.6579881   0.6542403  )
        54           H   tau(  54) = (   0.0068317   0.6579880   0.5613884  )
        55           H   tau(  55) = (   0.3092755   0.3150661   0.6542296  )
        56           H   tau(  56) = (   0.5068780   0.3150661   0.5613993  )
        57           H   tau(  57) = (   0.1270274   0.6093922   0.1822084  )
        58           H   tau(  58) = (   0.8116904   0.6093923   0.2230011  )
        59           H   tau(  59) = (   0.6270735   0.2664736   0.1822127  )
        60           H   tau(  60) = (   0.3116443   0.2664737   0.2229969  )
        61           H   tau(  61) = (   0.7504082   0.0764500   0.6282108  )
        62           H   tau(  62) = (   0.0657452   0.0764500   0.5874181  )
        63           H   tau(  63) = (   0.2503622   0.4193686   0.6282065  )
        64           H   tau(  64) = (   0.5657913   0.4193686   0.5874223  )
        65           C   tau(  65) = (   0.3177695   0.6142662   0.2064165  )
        66           C   tau(  66) = (   0.6209483   0.6142662   0.1987932  )
        67           C   tau(  67) = (   0.8178048   0.2713474   0.2064090  )
        68           C   tau(  68) = (   0.1209130   0.2713474   0.1988006  )
        69           C   tau(  69) = (   0.5596662   0.0715760   0.6040027  )
        70           C   tau(  70) = (   0.2564873   0.0715760   0.6116260  )
        71           C   tau(  71) = (   0.0596308   0.4144948   0.6040102  )
        72           C   tau(  72) = (   0.7565226   0.4144948   0.6116186  )
        73           H   tau(  73) = (   0.2637078   0.5645827   0.2248575  )
        74           H   tau(  74) = (   0.6750101   0.5645827   0.1803521  )
        75           H   tau(  75) = (   0.7637435   0.2216632   0.2248475  )
        76           H   tau(  76) = (   0.1749742   0.2216631   0.1803621  )
        77           H   tau(  77) = (   0.6137279   0.1212595   0.5855617  )
        78           H   tau(  78) = (   0.2024255   0.1212595   0.6300671  )
        79           H   tau(  79) = (   0.1136921   0.4641791   0.5855717  )
        80           H   tau(  80) = (   0.7024614   0.4641791   0.6300571  )
        81           H   tau(  81) = (   0.3319944   0.6599690   0.2648090  )
        82           H   tau(  82) = (   0.6067234   0.6599690   0.1404006  )
        83           H   tau(  83) = (   0.8320262   0.3170517   0.2648013  )
        84           H   tau(  84) = (   0.1066916   0.3170516   0.1404083  )
        85           H   tau(  85) = (   0.5454412   0.0258732   0.5456102  )
        86           H   tau(  86) = (   0.2707122   0.0258733   0.6700186  )
        87           H   tau(  87) = (   0.0454094   0.3687906   0.5456179  )
        88           H   tau(  88) = (   0.7707440   0.3687906   0.6700109  )
        89           H   tau(  89) = (   0.3805962   0.5755518   0.1898011  )
        90           H   tau(  90) = (   0.5581217   0.5755518   0.2154085  )
        91           H   tau(  91) = (   0.8806344   0.2326347   0.1898001  )
        92           H   tau(  92) = (   0.0580834   0.2326347   0.2154095  )
        93           H   tau(  93) = (   0.4968394   0.1102904   0.6206181  )
        94           H   tau(  94) = (   0.3193140   0.1102904   0.5950107  )
        95           H   tau(  95) = (  -0.0031988   0.4532075   0.6206191  )
        96           H   tau(  96) = (   0.8193522   0.4532075   0.5950097  )
        97           C   tau(  97) = (   0.3616808   0.0542402   0.0925143  )
        98           C   tau(  98) = (   0.5770370   0.0542402   0.3126954  )
        99           C   tau(  99) = (   0.8617316   0.3971637   0.0925089  )
       100           C   tau( 100) = (   0.0769862   0.3971637   0.3127007  )
       101           C   tau( 101) = (   0.5157548   0.6316021   0.7179049  )
       102           C   tau( 102) = (   0.3003986   0.6316020   0.4977238  )
       103           C   tau( 103) = (   0.0157040   0.2886786   0.7179103  )
       104           C   tau( 104) = (   0.8004494   0.2886785   0.4977185  )
       105           H   tau( 105) = (   0.3387807   0.0905502   0.0301781  )
       106           H   tau( 106) = (   0.5999372   0.0905502   0.3750315  )
       107           H   tau( 107) = (   0.8388222   0.4334765   0.0301771  )
       108           H   tau( 108) = (   0.0998956   0.4334765   0.3750325  )
       109           H   tau( 109) = (   0.5386549   0.5952920   0.7802411  )
       110           H   tau( 110) = (   0.2774985   0.5952920   0.4353877  )
       111           H   tau( 111) = (   0.0386134   0.2523657   0.7802421  )
       112           H   tau( 112) = (   0.7775400   0.2523657   0.4353867  )
       113           H   tau( 113) = (   0.4262757   0.0180951   0.0774187  )
       114           H   tau( 114) = (   0.5124421   0.0180951   0.3277910  )
       115           H   tau( 115) = (   0.9263242   0.3610196   0.0774062  )
       116           H   tau( 116) = (   0.0123936   0.3610195   0.3278034  )
       117           H   tau( 117) = (   0.4511599   0.6677472   0.7330005  )
       118           H   tau( 118) = (   0.3649935   0.6677472   0.4826282  )
       119           H   tau( 119) = (  -0.0488886   0.3248227   0.7330130  )
       120           H   tau( 120) = (   0.8650421   0.3248227   0.4826158  )
       121           H   tau( 121) = (   0.3736993   0.1051970   0.1469665  )
       122           H   tau( 122) = (   0.5650185   0.1051970   0.2582432  )
       123           H   tau( 123) = (   0.8737462   0.4481188   0.1469639  )
       124           H   tau( 124) = (   0.0649716   0.4481187   0.2582457  )
       125           H   tau( 125) = (   0.5037363   0.5806452   0.6634527  )
       126           H   tau( 126) = (   0.3124172   0.5806453   0.5521760  )
       127           H   tau( 127) = (   0.0036895   0.2377235   0.6634553  )
       128           H   tau( 128) = (   0.8124640   0.2377235   0.5521735  )
       129           N   tau( 129) = (  -0.0797595   0.0008601   0.7936337  )
       130           N   tau( 130) = (   0.8959127   0.0008584   0.4219927  )
       131           N   tau( 131) = (   0.4202436   0.3437828   0.7936422  )
       132           N   tau( 132) = (   0.3959092   0.3437817   0.4219852  )
       133           N   tau( 133) = (   0.9571951   0.6849821   0.0167855  )
       134           N   tau( 134) = (  -0.0184771   0.6849839   0.3884265  )
       135           N   tau( 135) = (   0.4571921   0.3420595   0.0167770  )
       136           N   tau( 136) = (   0.4815264   0.3420605   0.3884340  )
       137           N   tau( 137) = (   0.0775014   0.5310687   0.0317508  )
       138           N   tau( 138) = (   0.8612163   0.5310744   0.3734603  )
       139           N   tau( 139) = (   0.5775017   0.1881577   0.0317540  )
       140           N   tau( 140) = (   0.3612118   0.1881602   0.3734486  )
       141           N   tau( 141) = (   0.7999342   0.1547735   0.7786684  )
       142           N   tau( 142) = (   0.0162194   0.1547679   0.4369589  )
       143           N   tau( 143) = (   0.2999340   0.4976846   0.7786652  )
       144           N   tau( 144) = (   0.5162238   0.4976821   0.4369706  )
       145           O   tau( 145) = (  -0.0595441   0.0473646   0.7228208  )
       146           O   tau( 146) = (   0.8756974   0.0473657   0.4928095  )
       147           O   tau( 147) = (   0.4404593   0.3902837   0.7228180  )
       148           O   tau( 148) = (   0.3756941   0.3902843   0.4928118  )
       149           O   tau( 149) = (   0.9369797   0.6384776   0.0875984  )
       150           O   tau( 150) = (   0.0017382   0.6384765   0.3176097  )
       151           O   tau( 151) = (   0.4369763   0.2955586   0.0876012  )
       152           O   tau( 152) = (   0.5017415   0.2955579   0.3176074  )
       153           O   tau( 153) = (   0.2717758   0.6047378   0.0502190  )
       154           O   tau( 154) = (   0.6669417   0.6047377   0.3549903  )
       155           O   tau( 155) = (   0.7718066   0.2618231   0.0502112  )
       156           O   tau( 156) = (   0.1669110   0.2618231   0.3549983  )
       157           O   tau( 157) = (   0.6056598   0.0811044   0.7602002  )
       158           O   tau( 158) = (   0.2104940   0.0811045   0.4554289  )
       159           O   tau( 159) = (   0.1056291   0.4240191   0.7602080  )
       160           O   tau( 160) = (   0.7105247   0.4240192   0.4554209  )
       161           O   tau( 161) = (   0.2064311   0.0371155   0.1395988  )
       162           O   tau( 162) = (   0.7322865   0.0371157   0.2656108  )
       163           O   tau( 163) = (   0.7064772   0.3800427   0.1395939  )
       164           O   tau( 164) = (   0.2322404   0.3800428   0.2656157  )
       165           O   tau( 165) = (   0.6710046   0.6487267   0.6708204  )
       166           O   tau( 166) = (   0.1451492   0.6487266   0.5448084  )
       167           O   tau( 167) = (   0.1709585   0.3057996   0.6708253  )
       168           O   tau( 168) = (   0.6451952   0.3057994   0.5448035  )
       169           O   tau( 169) = (  -0.0857935   0.5081348   0.7715681  )
       170           O   tau( 170) = (   0.9019480   0.5081333   0.4440638  )
       171           O   tau( 171) = (   0.4142000   0.1652289   0.7715788  )
       172           O   tau( 172) = (   0.4019573   0.1652264   0.4440559  )
       173           O   tau( 173) = (   0.9632292   0.1777075   0.0388511  )
       174           O   tau( 174) = (  -0.0245123   0.1777090   0.3663554  )
       175           O   tau( 175) = (   0.4632356   0.5206134   0.0388403  )
       176           O   tau( 176) = (   0.4754783   0.5206158   0.3663633  )
       177           O   tau( 177) = (   0.0983696   0.4807473   0.0958541  )
       178           O   tau( 178) = (   0.8403476   0.4807433   0.3093513  )
       179           O   tau( 179) = (   0.5983582   0.1378247   0.0958662  )
       180           O   tau( 180) = (   0.3403599   0.1378246   0.3093438  )
       181           O   tau( 181) = (   0.7790660   0.2050949   0.7145651  )
       182           O   tau( 182) = (   0.0370881   0.2050989   0.5010679  )
       183           O   tau( 183) = (   0.2790774   0.5480175   0.7145530  )
       184           O   tau( 184) = (   0.5370758   0.5480176   0.5010754  )

     number of k points=     8
                       cart. coord. in units 2pi/alat
        k(    1) = (   0.0000000   0.0000000   0.0000000), wk =   0.2500000
        k(    2) = (   0.0000000   0.0000000  -0.6169647), wk =   0.2500000
        k(    3) = (   0.0000000  -0.7290306   0.0000000), wk =   0.2500000
        k(    4) = (   0.0000000  -0.7290306  -0.6169647), wk =   0.2500000
        k(    5) = (  -0.5000000   0.0000000  -0.0756179), wk =   0.2500000
        k(    6) = (  -0.5000000   0.0000000  -0.6925825), wk =   0.2500000
        k(    7) = (  -0.5000000  -0.7290306  -0.0756179), wk =   0.2500000
        k(    8) = (  -0.5000000  -0.7290306  -0.6925825), wk =   0.2500000

     Dense  grid:  1549545 G-vectors     FFT dimensions: ( 180, 120, 144)

     Estimated max dynamical RAM per process >    2776.15MB

     Estimated total allocated dynamical RAM >   22209.20MB

     Check: negative/imaginary core charge=   -0.000002    0.000000

     Initial potential from superposition of free atoms

     starting charge  591.99707, renormalised to  592.00000
     Starting wfc are  496 randomized atomic wfcs
     Checking if some PAW data can be deallocated... 

     total cpu time spent up to now is      209.7 secs

     per-process dynamical memory:  1752.6 Mb

     Self-consistent Calculation

     iteration #  1     ecut=   100.00 Ry     beta=0.50
     Davidson diagonalization with overlap
     ethr =  1.00E-02,  avg # of iterations =  5.0

     total cpu time spent up to now is      964.3 secs

     total energy              =   -3091.12859846 Ry
     Harris-Foulkes estimate   =   -3101.08033930 Ry
     estimated scf accuracy    <      18.55153591 Ry

     iteration #  2     ecut=   100.00 Ry     beta=0.50
     Davidson diagonalization with overlap
     ethr =  3.13E-03,  avg # of iterations =  4.5

     total cpu time spent up to now is     1421.1 secs

     total energy              =   -3093.57624165 Ry
     Harris-Foulkes estimate   =   -3095.75918710 Ry
     estimated scf accuracy    <       4.49125795 Ry

     iteration #  3     ecut=   100.00 Ry     beta=0.50
     Davidson diagonalization with overlap
     ethr =  7.59E-04,  avg # of iterations =  6.1

     total cpu time spent up to now is     2060.5 secs

     total energy              =   -3095.01804614 Ry
     Harris-Foulkes estimate   =   -3095.55658968 Ry
     estimated scf accuracy    <       1.40480528 Ry

     iteration #  4     ecut=   100.00 Ry     beta=0.50
     Davidson diagonalization with overlap
     ethr =  2.37E-04,  avg # of iterations =  3.4

     total cpu time spent up to now is     2440.7 secs

     total energy              =   -3095.08844173 Ry
     Harris-Foulkes estimate   =   -3095.20216039 Ry
     estimated scf accuracy    <       0.24746821 Ry

     iteration #  5     ecut=   100.00 Ry     beta=0.50
     Davidson diagonalization with overlap
     ethr =  4.18E-05,  avg # of iterations =  8.6

     total cpu time spent up to now is     3259.9 secs

     total energy              =   -3095.17770523 Ry
     Harris-Foulkes estimate   =   -3095.26758326 Ry
     estimated scf accuracy    <       0.30863872 Ry

     iteration #  6     ecut=   100.00 Ry     beta=0.50
     Davidson diagonalization with overlap
     ethr =  4.18E-05,  avg # of iterations =  2.0

     total cpu time spent up to now is     3632.1 secs

     total energy              =   -3095.19971665 Ry
     Harris-Foulkes estimate   =   -3095.21872300 Ry
     estimated scf accuracy    <       0.05984364 Ry

     iteration #  7     ecut=   100.00 Ry     beta=0.50
     Davidson diagonalization with overlap
     ethr =  1.01E-05,  avg # of iterations =  3.4

     total cpu time spent up to now is     4006.3 secs

     total energy              =   -3095.19517118 Ry
     Harris-Foulkes estimate   =   -3095.20523424 Ry
     estimated scf accuracy    <       0.01735929 Ry

     iteration #  8     ecut=   100.00 Ry     beta=0.50
     Davidson diagonalization with overlap
     ethr =  2.93E-06,  avg # of iterations =  8.0

     total cpu time spent up to now is     4788.6 secs

     total energy              =   -3095.20478865 Ry
     Harris-Foulkes estimate   =   -3095.20693008 Ry
     estimated scf accuracy    <       0.00591351 Ry

     iteration #  9     ecut=   100.00 Ry     beta=0.50
     Davidson diagonalization with overlap
     ethr =  9.99E-07,  avg # of iterations =  1.0

     total cpu time spent up to now is     5130.3 secs

     total energy              =   -3095.20363245 Ry
     Harris-Foulkes estimate   =   -3095.20496610 Ry
     estimated scf accuracy    <       0.00217060 Ry

     iteration # 10     ecut=   100.00 Ry     beta=0.50
     Davidson diagonalization with overlap
     ethr =  3.67E-07,  avg # of iterations =  4.0

     total cpu time spent up to now is     5793.2 secs

     total energy              =   -3095.20534007 Ry
     Harris-Foulkes estimate   =   -3095.20561946 Ry
     estimated scf accuracy    <       0.00155810 Ry

     iteration # 11     ecut=   100.00 Ry     beta=0.50
     Davidson diagonalization with overlap
     ethr =  2.63E-07,  avg # of iterations =  1.0

     total cpu time spent up to now is     6134.7 secs

     total energy              =   -3095.20505270 Ry
     Harris-Foulkes estimate   =   -3095.20535309 Ry
     estimated scf accuracy    <       0.00106891 Ry

     iteration # 12     ecut=   100.00 Ry     beta=0.50
     Davidson diagonalization with overlap
     ethr =  1.81E-07,  avg # of iterations =  1.0

     total cpu time spent up to now is     6476.2 secs

     total energy              =   -3095.20487584 Ry
     Harris-Foulkes estimate   =   -3095.20509079 Ry
     estimated scf accuracy    <       0.00045526 Ry

     iteration # 13     ecut=   100.00 Ry     beta=0.50
     Davidson diagonalization with overlap
     ethr =  7.69E-08,  avg # of iterations =  4.0

     total cpu time spent up to now is     7066.7 secs

     total energy              =   -3095.20514433 Ry
     Harris-Foulkes estimate   =   -3095.20515256 Ry
     estimated scf accuracy    <       0.00007148 Ry

     iteration # 14     ecut=   100.00 Ry     beta=0.50
     Davidson diagonalization with overlap
     ethr =  1.21E-08,  avg # of iterations =  1.0

     total cpu time spent up to now is     7408.0 secs

     total energy              =   -3095.20511472 Ry
     Harris-Foulkes estimate   =   -3095.20514530 Ry
     estimated scf accuracy    <       0.00005640 Ry

     iteration # 15     ecut=   100.00 Ry     beta=0.50
     Davidson diagonalization with overlap
     ethr =  9.53E-09,  avg # of iterations =  3.2

     total cpu time spent up to now is     7900.7 secs

     total energy              =   -3095.20513122 Ry
     Harris-Foulkes estimate   =   -3095.20513185 Ry
     estimated scf accuracy    <       0.00000246 Ry

     iteration # 16     ecut=   100.00 Ry     beta=0.50
     Davidson diagonalization with overlap
     ethr =  4.15E-10,  avg # of iterations =  2.2

     total cpu time spent up to now is     8265.5 secs

     total energy              =   -3095.20513135 Ry
     Harris-Foulkes estimate   =   -3095.20513144 Ry
     estimated scf accuracy    <       0.00000124 Ry

     iteration # 17     ecut=   100.00 Ry     beta=0.50
     Davidson diagonalization with overlap
     ethr =  2.10E-10,  avg # of iterations =  3.0

     total cpu time spent up to now is     8636.5 secs

     total energy              =   -3095.20513084 Ry
     Harris-Foulkes estimate   =   -3095.20513147 Ry
     estimated scf accuracy    <       0.00000105 Ry

     iteration # 18     ecut=   100.00 Ry     beta=0.50
     Davidson diagonalization with overlap
     ethr =  1.77E-10,  avg # of iterations =  4.0

     total cpu time spent up to now is     9204.0 secs

     total energy              =   -3095.20513124 Ry
     Harris-Foulkes estimate   =   -3095.20513134 Ry
     estimated scf accuracy    <       0.00000019 Ry

     iteration # 19     ecut=   100.00 Ry     beta=0.50
     Davidson diagonalization with overlap
     ethr =  3.13E-11,  avg # of iterations =  3.6

     total cpu time spent up to now is     9576.2 secs

     total energy              =   -3095.20513125 Ry
     Harris-Foulkes estimate   =   -3095.20513126 Ry
     estimated scf accuracy    <       0.00000002 Ry

     iteration # 20     ecut=   100.00 Ry     beta=0.50
     Davidson diagonalization with overlap
     ethr =  3.53E-12,  avg # of iterations =  4.0

     total cpu time spent up to now is    10358.3 secs

     total energy              =   -3095.20513128 Ry
     Harris-Foulkes estimate   =   -3095.20513131 Ry
     estimated scf accuracy    <       0.00000008 Ry

     iteration # 21     ecut=   100.00 Ry     beta=0.50
     Davidson diagonalization with overlap
     ethr =  3.53E-12,  avg # of iterations =  7.0

     total cpu time spent up to now is    10811.3 secs

     total energy              =   -3095.20513128 Ry
     Harris-Foulkes estimate   =   -3095.20513129 Ry
     estimated scf accuracy    <       0.00000002 Ry

     iteration # 22     ecut=   100.00 Ry     beta=0.50
     Davidson diagonalization with overlap
     ethr =  3.16E-12,  avg # of iterations =  3.8

     total cpu time spent up to now is    11243.4 secs

     End of self-consistent calculation

          k = 0.0000 0.0000 0.0000 (193671 PWs)   bands (ev):

   -24.8659 -24.8628 -24.8581 -24.8558 -24.7936 -24.7905 -24.7853 -24.7830
   -23.8935 -23.8914 -23.8895 -23.8875 -21.7489 -21.7463 -21.7427 -21.7405
   -20.8018 -20.8009 -20.7963 -20.7943 -20.7750 -20.7740 -20.7723 -20.7716
   -20.4656 -20.4636 -20.4580 -20.4568 -20.4508 -20.4489 -20.4431 -20.4421
   -18.9354 -18.9348 -18.9279 -18.9278 -18.8874 -18.8867 -18.8814 -18.8811
   -16.6655 -16.6630 -16.6629 -16.6604 -15.9342 -15.9323 -15.9295 -15.9218
   -14.5168 -14.4981 -14.4947 -14.4870 -13.0507 -13.0468 -13.0371 -13.0349
   -12.7409 -12.6912 -12.6607 -12.6536 -11.2743 -11.2702 -11.2482 -11.2443
   -11.2222 -11.2065 -11.1845 -11.1581 -11.0875 -11.0830 -11.0702 -11.0473
   -10.7562 -10.6497 -10.6308 -10.5833 -10.5618 -10.5116 -10.5104 -10.4911
   -10.4221 -10.3924 -10.3909 -10.3858 -10.3625 -10.3582 -10.3570 -10.3325
    -9.4202  -9.3560  -9.3192  -9.2735  -8.2987  -8.2875  -8.2458  -8.2413
    -8.0799  -8.0041  -7.9937  -7.9823  -7.9614  -7.9549  -7.9316  -7.9206
    -7.6705  -7.5891  -7.5674  -7.4175  -7.2645  -7.2592  -7.2479  -7.2326
    -7.2319  -7.2198  -7.2158  -7.1435  -7.0779  -7.0739  -7.0213  -7.0077
    -6.9843  -6.9498  -6.9147  -6.8395  -6.7054  -6.6509  -6.6185  -6.5388
    -6.4785  -6.4372  -6.4324  -6.4031  -6.3898  -6.3855  -6.3757  -6.3753
    -6.3336  -6.2840  -6.2747  -6.2522  -6.2186  -6.1861  -6.1740  -6.1065
    -5.9925  -5.9713  -5.9430  -5.8999  -5.8849  -5.8822  -5.8260  -5.7510
    -5.3589  -5.3288  -5.3021  -5.2021  -5.1756  -5.1732  -5.1580  -5.1480
    -5.0634  -5.0268  -5.0258  -5.0153  -4.9754  -4.8414  -4.8403  -4.8012
    -4.1881  -4.1665  -4.1450  -4.1369  -4.0723  -4.0145  -4.0138  -3.9646
    -3.8998  -3.8764  -3.8689  -3.7290  -3.7279  -3.7233  -3.6319  -3.6063
    -3.5375  -3.5218  -3.5143  -3.4919  -3.3730  -3.2758  -3.2488  -3.2375
    -3.2346  -3.1936  -3.1800  -3.1759  -3.1176  -3.0797  -3.0663  -3.0204
    -2.9541  -2.9256  -2.9212  -2.9206  -2.8985  -2.8206  -2.7936  -2.7928
    -2.7917  -2.7489  -2.7403  -2.7372  -2.6629  -2.6498  -2.6446  -2.5734
    -2.5677  -2.5380  -2.5341  -2.5013  -2.4912  -2.4816  -2.4694  -2.4521
    -2.3540  -2.3392  -2.3104  -2.2861  -2.2853  -2.2251  -2.2047  -2.1154
    -2.0434  -2.0212  -2.0076  -2.0043  -1.6346  -1.6338  -1.6329  -1.6189
    -1.6145  -1.6042  -1.5739  -1.5687  -1.5502  -1.5068  -1.5067  -1.4956
    -1.4871  -1.4746  -1.4623  -1.4173  -1.3538  -1.2904  -1.1999  -1.1253
    -1.1049  -1.0920  -1.0841  -1.0487  -1.0426  -1.0356  -1.0349  -0.9703
    -0.6926  -0.6753  -0.6661  -0.6475  -0.6341  -0.6287  -0.6107  -0.5895
    -0.4541  -0.4502  -0.4328  -0.3958  -0.3622  -0.3100  -0.2606  -0.2462
    -0.2099  -0.1838  -0.1532  -0.0989   0.2990   0.3029   0.3090   0.3290
     0.3299   0.3494   0.3874   0.3914   0.7695   0.8018   0.8451   0.8562
     3.0721   3.0778   3.1165   3.1273   3.2261   3.2296   3.2304   3.2603
     3.3474   3.3893   3.4347   3.4565   6.0700   6.4783   6.5381   6.6990
     6.7507   6.7798   6.8593   6.9549   6.9592   6.9701   7.1806   7.1875
     7.2025   7.2630   7.2689   7.2969   7.3295   7.4043   7.5005   7.5787
     7.6527   7.6870   7.7510   7.7667   7.7771   7.8180   7.8798   7.9096
     7.9888   8.0121   8.0727   8.2813   8.3073   8.3310   8.3874   8.3936
     8.4038   8.5201   8.5218   8.5283   8.5990   8.6347   8.6366   8.6719
     8.7765   8.7867   8.8256

          k = 0.0000 0.0000-0.6170 (193634 PWs)   bands (ev):

   -24.8658 -24.8628 -24.8581 -24.8558 -24.7936 -24.7905 -24.7853 -24.7830
   -23.8931 -23.8910 -23.8899 -23.8879 -21.7478 -21.7451 -21.7439 -21.7417
   -20.7995 -20.7988 -20.7981 -20.7974 -20.7747 -20.7740 -20.7722 -20.7715
   -20.4655 -20.4635 -20.4582 -20.4570 -20.4506 -20.4487 -20.4432 -20.4422
   -18.9320 -18.9317 -18.9313 -18.9310 -18.8847 -18.8842 -18.8840 -18.8836
   -16.6649 -16.6636 -16.6628 -16.6608 -15.9318 -15.9317 -15.9272 -15.9269
   -14.5022 -14.5017 -14.4967 -14.4962 -13.0445 -13.0440 -13.0427 -13.0422
   -12.6999 -12.6994 -12.6721 -12.6715 -11.2594 -11.2589 -11.2570 -11.2570
   -11.2061 -11.2059 -11.1850 -11.1847 -11.0842 -11.0839 -11.0594 -11.0591
   -10.7022 -10.7018 -10.6296 -10.6292 -10.5119 -10.5115 -10.5056 -10.5052
   -10.4052 -10.4049 -10.3776 -10.3775 -10.3718 -10.3718 -10.3423 -10.3420
    -9.3491  -9.3486  -9.3392  -9.3387  -8.2966  -8.2959  -8.2417  -8.2413
    -8.0349  -8.0341  -7.9817  -7.9800  -7.9659  -7.9645  -7.9401  -7.9397
    -7.6300  -7.6282  -7.4858  -7.4844  -7.2530  -7.2496  -7.2388  -7.2353
    -7.2330  -7.2311  -7.1211  -7.1177  -7.0986  -7.0978  -7.0594  -7.0580
    -6.9703  -6.9695  -6.8841  -6.8827  -6.6698  -6.6697  -6.5842  -6.5836
    -6.4604  -6.4602  -6.4511  -6.4503  -6.4070  -6.4064  -6.3280  -6.3275
    -6.2681  -6.2679  -6.2590  -6.2581  -6.2040  -6.2034  -6.1866  -6.1865
    -5.9637  -5.9618  -5.9379  -5.9361  -5.8787  -5.8776  -5.7935  -5.7921
    -5.3467  -5.3455  -5.2605  -5.2592  -5.1632  -5.1622  -5.1481  -5.1473
    -5.0153  -5.0149  -4.9588  -4.9586  -4.9229  -4.9225  -4.9183  -4.9183
    -4.1738  -4.1731  -4.1193  -4.1187  -4.0301  -4.0296  -3.9735  -3.9725
    -3.8970  -3.8969  -3.8583  -3.8582  -3.7096  -3.7088  -3.5867  -3.5861
    -3.5472  -3.5469  -3.4998  -3.4991  -3.3196  -3.3194  -3.2515  -3.2510
    -3.2050  -3.2049  -3.1966  -3.1961  -3.0953  -3.0950  -3.0584  -3.0577
    -2.9108  -2.9105  -2.9056  -2.9053  -2.8671  -2.8671  -2.8027  -2.8025
    -2.7508  -2.7505  -2.7430  -2.7429  -2.6499  -2.6498  -2.5889  -2.5888
    -2.5887  -2.5886  -2.5664  -2.5660  -2.4824  -2.4822  -2.4281  -2.4278
    -2.3412  -2.3410  -2.2595  -2.2594  -2.1959  -2.1958  -2.1540  -2.1537
    -2.1118  -2.1115  -2.0743  -2.0742  -1.6270  -1.6253  -1.6051  -1.6034
    -1.5985  -1.5969  -1.5637  -1.5611  -1.5199  -1.5186  -1.5049  -1.5032
    -1.4937  -1.4923  -1.4468  -1.4466  -1.3182  -1.3168  -1.1657  -1.1652
    -1.1007  -1.0997  -1.0627  -1.0618  -1.0578  -1.0577  -0.9921  -0.9915
    -0.6788  -0.6777  -0.6683  -0.6663  -0.6229  -0.6220  -0.6055  -0.6039
    -0.4494  -0.4485  -0.4347  -0.4340  -0.3188  -0.3185  -0.2617  -0.2612
    -0.1715  -0.1709  -0.1405  -0.1398   0.3058   0.3061   0.3214   0.3220
     0.3626   0.3629   0.3647   0.3653   0.8047   0.8058   0.8260   0.8271
     3.0925   3.0939   3.1026   3.1040   3.2255   3.2273   3.2420   3.2439
     3.3912   3.3926   3.4219   3.4234   6.3256   6.3259   6.6312   6.6316
     6.6812   6.6816   6.7419   6.7426   7.0539   7.0541   7.0802   7.0803
     7.3157   7.3163   7.3556   7.3557   7.5242   7.5244   7.5457   7.5459
     7.6079   7.6080   7.7429   7.7431   7.7900   7.7901   7.9658   7.9661
     8.1452   8.1452   8.1986   8.1987   8.3280   8.3283   8.3640   8.3641
     8.4805   8.4806   8.5155   8.5157   8.6164   8.6165   8.6334   8.6335
     8.6453   8.6457   8.7756

          k = 0.0000-0.7290 0.0000 (193692 PWs)   bands (ev):

   -24.8652 -24.8633 -24.8569 -24.8568 -24.7932 -24.7911 -24.7843 -24.7841
   -23.8935 -23.8914 -23.8895 -23.8875 -21.7489 -21.7463 -21.7427 -21.7405
   -20.7988 -20.7988 -20.7980 -20.7980 -20.7737 -20.7737 -20.7726 -20.7726
   -20.4652 -20.4635 -20.4575 -20.4573 -20.4506 -20.4491 -20.4430 -20.4427
   -18.9321 -18.9321 -18.9314 -18.9314 -18.8842 -18.8842 -18.8835 -18.8835
   -16.6649 -16.6635 -16.6627 -16.6606 -15.9341 -15.9329 -15.9264 -15.9252
   -14.5072 -14.5071 -14.4907 -14.4907 -13.0438 -13.0437 -13.0409 -13.0409
   -12.6984 -12.6982 -12.6755 -12.6755 -11.2853 -11.2849 -11.2531 -11.2529
   -11.1906 -11.1902 -11.1804 -11.1803 -11.0792 -11.0786 -11.0682 -11.0678
   -10.6672 -10.6671 -10.6360 -10.6358 -10.5346 -10.5343 -10.5026 -10.5023
   -10.4071 -10.4069 -10.3767 -10.3767 -10.3730 -10.3729 -10.3442 -10.3441
    -9.3891  -9.3888  -9.2963  -9.2960  -8.2767  -8.2766  -8.2656  -8.2655
    -8.0532  -8.0532  -7.9816  -7.9814  -7.9570  -7.9569  -7.9293  -7.9290
    -7.5641  -7.5639  -7.5590  -7.5588  -7.2525  -7.2519  -7.2364  -7.2358
    -7.1612  -7.1607  -7.1552  -7.1548  -7.1540  -7.1539  -6.9890  -6.9884
    -6.9568  -6.9565  -6.9426  -6.9421  -6.6597  -6.6595  -6.5603  -6.5601
    -6.5234  -6.5231  -6.4454  -6.4453  -6.3838  -6.3837  -6.3281  -6.3280
    -6.3020  -6.3019  -6.2290  -6.2289  -6.2130  -6.2129  -6.1536  -6.1536
    -5.9626  -5.9620  -5.9430  -5.9423  -5.8471  -5.8464  -5.8147  -5.8140
    -5.2971  -5.2970  -5.2933  -5.2932  -5.1906  -5.1905  -5.1683  -5.1683
    -5.0511  -5.0509  -5.0244  -5.0242  -4.9014  -4.9012  -4.8223  -4.8223
    -4.1478  -4.1476  -4.1425  -4.1424  -4.0422  -4.0411  -3.9413  -3.9413
    -3.9167  -3.9162  -3.8849  -3.8848  -3.6865  -3.6865  -3.5730  -3.5725
    -3.5201  -3.5201  -3.5031  -3.5031  -3.3409  -3.3407  -3.2367  -3.2366
    -3.2300  -3.2298  -3.2030  -3.2028  -3.0659  -3.0659  -3.0424  -3.0422
    -2.9691  -2.9689  -2.9414  -2.9409  -2.8502  -2.8501  -2.7933  -2.7932
    -2.7685  -2.7684  -2.7510  -2.7510  -2.6599  -2.6593  -2.6036  -2.6034
    -2.5392  -2.5389  -2.5087  -2.5087  -2.4978  -2.4973  -2.4160  -2.4159
    -2.3430  -2.3429  -2.2762  -2.2762  -2.2332  -2.2330  -2.1763  -2.1762
    -2.0622  -2.0621  -2.0288  -2.0287  -1.6292  -1.6289  -1.6224  -1.6220
    -1.5956  -1.5953  -1.5926  -1.5924  -1.5185  -1.5183  -1.5019  -1.5016
    -1.4928  -1.4923  -1.4662  -1.4660  -1.2380  -1.2377  -1.2248  -1.2244
    -1.0895  -1.0895  -1.0652  -1.0650  -1.0408  -1.0407  -1.0297  -1.0296
    -0.6707  -0.6705  -0.6514  -0.6514  -0.6266  -0.6266  -0.6180  -0.6178
    -0.4507  -0.4506  -0.4067  -0.4065  -0.2907  -0.2906  -0.2891  -0.2889
    -0.1917  -0.1917  -0.1267  -0.1266   0.2846   0.2847   0.3119   0.3119
     0.3504   0.3504   0.3808   0.3809   0.7890   0.7893   0.8581   0.8585
     3.0770   3.0772   3.1272   3.1274   3.2121   3.2123   3.2412   3.2414
     3.3822   3.3822   3.4391   3.4391   6.3116   6.3122   6.7489   6.7497
     6.7653   6.7655   6.8601   6.8602   6.8917   6.8929   6.9937   6.9937
     7.1344   7.1345   7.3830   7.3836   7.5079   7.5084   7.5320   7.5326
     7.5702   7.5702   7.7597   7.7597   7.8433   7.8435   7.9214   7.9216
     8.0372   8.0377   8.0991   8.0993   8.1718   8.1721   8.3683   8.3684
     8.5360   8.5362   8.5783   8.5785   8.6562   8.6563   8.6746   8.6752
     8.7466   8.7467   8.8201

          k = 0.0000-0.7290-0.6170 (193768 PWs)   bands (ev):

   -24.8652 -24.8633 -24.8569 -24.8568 -24.7932 -24.7911 -24.7843 -24.7841
   -23.8931 -23.8910 -23.8899 -23.8879 -21.7478 -21.7451 -21.7439 -21.7417
   -20.7987 -20.7987 -20.7980 -20.7980 -20.7736 -20.7736 -20.7729 -20.7729
   -20.4652 -20.4635 -20.4575 -20.4573 -20.4506 -20.4490 -20.4430 -20.4427
   -18.9319 -18.9319 -18.9312 -18.9312 -18.8844 -18.8844 -18.8838 -18.8838
   -16.6645 -16.6632 -16.6631 -16.6610 -15.9303 -15.9301 -15.9293 -15.9286
   -14.4993 -14.4991 -14.4988 -14.4987 -13.0431 -13.0430 -13.0426 -13.0425
   -12.6867 -12.6865 -12.6860 -12.6860 -11.2681 -11.2678 -11.2677 -11.2672
   -11.1878 -11.1877 -11.1875 -11.1874 -11.0754 -11.0749 -11.0747 -11.0746
   -10.6518 -10.6517 -10.6513 -10.6511 -10.5174 -10.5170 -10.5168 -10.5166
   -10.3909 -10.3908 -10.3905 -10.3904 -10.3590 -10.3588 -10.3586 -10.3585
    -9.3440  -9.3440  -9.3437  -9.3433  -8.2800  -8.2800  -8.2795  -8.2794
    -8.0074  -8.0071  -8.0064  -8.0063  -7.9431  -7.9430  -7.9418  -7.9413
    -7.5639  -7.5638  -7.5622  -7.5620  -7.2299  -7.2294  -7.2274  -7.2269
    -7.1755  -7.1752  -7.1722  -7.1722  -7.0818  -7.0813  -7.0805  -7.0800
    -6.9430  -6.9428  -6.9421  -6.9417  -6.6256  -6.6255  -6.6253  -6.6252
    -6.4709  -6.4706  -6.4702  -6.4700  -6.3346  -6.3345  -6.3342  -6.3342
    -6.2794  -6.2790  -6.2785  -6.2785  -6.1999  -6.1999  -6.1995  -6.1995
    -5.9486  -5.9478  -5.9467  -5.9462  -5.8297  -5.8289  -5.8283  -5.8277
    -5.2958  -5.2957  -5.2946  -5.2945  -5.1751  -5.1751  -5.1740  -5.1740
    -4.9784  -4.9783  -4.9779  -4.9778  -4.9326  -4.9325  -4.9321  -4.9319
    -4.1380  -4.1378  -4.1373  -4.1372  -3.9889  -3.9880  -3.9879  -3.9871
    -3.9078  -3.9077  -3.9074  -3.9074  -3.6159  -3.6159  -3.6151  -3.6150
    -3.5238  -3.5236  -3.5230  -3.5229  -3.2912  -3.2911  -3.2908  -3.2907
    -3.2069  -3.2067  -3.2065  -3.2063  -3.0685  -3.0684  -3.0678  -3.0676
    -2.9176  -2.9174  -2.9173  -2.9171  -2.8481  -2.8479  -2.8477  -2.8475
    -2.7498  -2.7498  -2.7496  -2.7495  -2.6152  -2.6151  -2.6149  -2.6148
    -2.5612  -2.5608  -2.5607  -2.5604  -2.4578  -2.4577  -2.4574  -2.4574
    -2.3068  -2.3068  -2.3067  -2.3066  -2.1649  -2.1648  -2.1646  -2.1645
    -2.0912  -2.0911  -2.0909  -2.0909  -1.6096  -1.6095  -1.6092  -1.6088
    -1.5951  -1.5948  -1.5941  -1.5941  -1.5089  -1.5088  -1.5086  -1.5083
    -1.4814  -1.4813  -1.4811  -1.4809  -1.2336  -1.2335  -1.2324  -1.2318
    -1.0745  -1.0742  -1.0733  -1.0732  -1.0410  -1.0408  -1.0396  -1.0396
    -0.6665  -0.6663  -0.6640  -0.6640  -0.6226  -0.6224  -0.6204  -0.6203
    -0.4308  -0.4301  -0.4297  -0.4294  -0.2895  -0.2895  -0.2890  -0.2888
    -0.1552  -0.1552  -0.1546  -0.1544   0.3002   0.3002   0.3007   0.3008
     0.3660   0.3660   0.3665   0.3665   0.8209   0.8210   0.8218   0.8224
     3.1011   3.1014   3.1025   3.1026   3.2239   3.2239   3.2256   3.2260
     3.4104   3.4104   3.4118   3.4119   6.4923   6.4927   6.4930   6.4933
     6.7626   6.7628   6.7632   6.7632   6.9818   6.9819   6.9827   6.9827
     7.3744   7.3746   7.3750   7.3751   7.5260   7.5262   7.5269   7.5271
     7.6496   7.6497   7.6497   7.6498   7.8020   7.8021   7.8021   7.8021
     8.1163   8.1164   8.1167   8.1168   8.3078   8.3079   8.3084   8.3084
     8.5247   8.5248   8.5250   8.5251   8.6468   8.6468   8.6471   8.6471
     8.7530   8.7531   8.7532

          k =-0.5000 0.0000-0.0756 (193708 PWs)   bands (ev):

   -24.8653 -24.8634 -24.8570 -24.8569 -24.7931 -24.7909 -24.7842 -24.7840
   -23.8935 -23.8914 -23.8895 -23.8875 -21.7489 -21.7463 -21.7427 -21.7405
   -20.8014 -20.8014 -20.7954 -20.7953 -20.7736 -20.7736 -20.7728 -20.7728
   -20.4654 -20.4637 -20.4577 -20.4576 -20.4504 -20.4488 -20.4428 -20.4425
   -18.9351 -18.9351 -18.9278 -18.9278 -18.8870 -18.8870 -18.8813 -18.8813
   -16.6650 -16.6635 -16.6627 -16.6607 -15.9337 -15.9325 -15.9264 -15.9252
   -14.5061 -14.5060 -14.4922 -14.4921 -13.0581 -13.0580 -13.0306 -13.0306
   -12.6910 -12.6909 -12.6782 -12.6781 -11.2745 -11.2740 -11.2318 -11.2314
   -11.2280 -11.2279 -11.1734 -11.1732 -11.0749 -11.0744 -11.0663 -11.0659
   -10.6944 -10.6942 -10.6503 -10.6501 -10.5226 -10.5223 -10.4833 -10.4830
   -10.4134 -10.4133 -10.3767 -10.3767 -10.3643 -10.3642 -10.3440 -10.3439
    -9.3728  -9.3725  -9.3152  -9.3150  -8.3019  -8.3018  -8.2358  -8.2358
    -7.9902  -7.9900  -7.9844  -7.9842  -7.9737  -7.9732  -7.9678  -7.9672
    -7.5967  -7.5965  -7.5507  -7.5506  -7.2582  -7.2580  -7.2509  -7.2502
    -7.1800  -7.1798  -7.1499  -7.1498  -7.1287  -7.1282  -6.9873  -6.9868
    -6.9473  -6.9470  -6.9111  -6.9105  -6.6571  -6.6570  -6.5915  -6.5915
    -6.5089  -6.5089  -6.4433  -6.4431  -6.3745  -6.3744  -6.3304  -6.3301
    -6.2868  -6.2867  -6.2683  -6.2682  -6.2277  -6.2276  -6.1308  -6.1308
    -5.9506  -5.9498  -5.9471  -5.9465  -5.8517  -5.8510  -5.8195  -5.8189
    -5.3277  -5.3276  -5.2728  -5.2727  -5.1801  -5.1800  -5.1582  -5.1581
    -5.0471  -5.0468  -5.0060  -5.0059  -4.9230  -4.9229  -4.8093  -4.8092
    -4.1602  -4.1601  -4.1511  -4.1509  -4.0400  -4.0389  -3.9882  -3.9881
    -3.8754  -3.8750  -3.8720  -3.8720  -3.6793  -3.6789  -3.5941  -3.5940
    -3.5799  -3.5798  -3.4540  -3.4538  -3.2812  -3.2809  -3.2733  -3.2733
    -3.2523  -3.2521  -3.1789  -3.1787  -3.0877  -3.0874  -3.0645  -3.0645
    -2.9168  -2.9165  -2.9111  -2.9110  -2.8643  -2.8643  -2.8036  -2.8035
    -2.7660  -2.7658  -2.7368  -2.7366  -2.6614  -2.6608  -2.5774  -2.5773
    -2.5477  -2.5477  -2.5311  -2.5308  -2.5099  -2.5096  -2.4838  -2.4834
    -2.3473  -2.3472  -2.2747  -2.2746  -2.2634  -2.2633  -2.1559  -2.1559
    -2.0359  -2.0357  -2.0023  -2.0022  -1.6364  -1.6360  -1.6120  -1.6117
    -1.6042  -1.6040  -1.5842  -1.5841  -1.5440  -1.5439  -1.4994  -1.4993
    -1.4744  -1.4744  -1.4564  -1.4564  -1.2698  -1.2693  -1.2163  -1.2160
    -1.0800  -1.0799  -1.0517  -1.0515  -1.0461  -1.0461  -1.0083  -1.0083
    -0.6799  -0.6798  -0.6574  -0.6571  -0.6320  -0.6319  -0.6034  -0.6034
    -0.4404  -0.4401  -0.4378  -0.4377  -0.2951  -0.2949  -0.2916  -0.2914
    -0.1936  -0.1936  -0.1189  -0.1187   0.3005   0.3006   0.3372   0.3372
     0.3451   0.3451   0.3667   0.3668   0.7863   0.7865   0.8499   0.8503
     3.0751   3.0753   3.1214   3.1216   3.2282   3.2284   3.2424   3.2426
     3.3711   3.3712   3.4456   3.4456   6.2196   6.2196   6.5827   6.5840
     6.7972   6.7986   6.8404   6.8406   7.0554   7.0554   7.1131   7.1134
     7.2826   7.2828   7.3975   7.3976   7.4871   7.4874   7.5232   7.5235
     7.6561   7.6562   7.6642   7.6642   7.7924   7.7929   7.9235   7.9241
     7.9598   7.9598   8.2480   8.2483   8.3216   8.3219   8.3343   8.3343
     8.4730   8.4732   8.5136   8.5137   8.5385   8.5385   8.6295   8.6295
     8.7451   8.7451   8.8154

          k =-0.5000 0.0000-0.6926 (193652 PWs)   bands (ev):

   -24.8653 -24.8634 -24.8570 -24.8569 -24.7931 -24.7909 -24.7842 -24.7840
   -23.8931 -23.8910 -23.8899 -23.8879 -21.7478 -21.7451 -21.7439 -21.7417
   -20.7989 -20.7989 -20.7980 -20.7980 -20.7735 -20.7735 -20.7726 -20.7726
   -20.4654 -20.4638 -20.4575 -20.4573 -20.4506 -20.4491 -20.4427 -20.4425
   -18.9318 -18.9318 -18.9311 -18.9311 -18.8845 -18.8845 -18.8838 -18.8838
   -16.6646 -16.6635 -16.6630 -16.6610 -15.9313 -15.9309 -15.9279 -15.9274
   -14.5057 -14.5056 -14.4927 -14.4926 -13.0499 -13.0498 -13.0376 -13.0375
   -12.7144 -12.7143 -12.6558 -12.6557 -11.2758 -11.2757 -11.2291 -11.2291
   -11.2179 -11.2179 -11.1874 -11.1874 -11.0770 -11.0768 -11.0647 -11.0646
   -10.7122 -10.7121 -10.6088 -10.6087 -10.5336 -10.5334 -10.4903 -10.4902
   -10.3956 -10.3956 -10.3943 -10.3943 -10.3568 -10.3568 -10.3544 -10.3544
    -9.3696  -9.3693  -9.3166  -9.3164  -8.2755  -8.2755  -8.2693  -8.2692
    -8.0108  -8.0106  -7.9968  -7.9966  -7.9602  -7.9601  -7.9368  -7.9366
    -7.6252  -7.6251  -7.5306  -7.5306  -7.2490  -7.2490  -7.2371  -7.2371
    -7.1810  -7.1807  -7.1281  -7.1279  -7.0827  -7.0826  -7.0563  -7.0563
    -6.9586  -6.9585  -6.9398  -6.9398  -6.6536  -6.6535  -6.5657  -6.5656
    -6.5173  -6.5173  -6.4320  -6.4319  -6.3808  -6.3807  -6.3495  -6.3494
    -6.2703  -6.2701  -6.2244  -6.2243  -6.2166  -6.2166  -6.1884  -6.1883
    -5.9747  -5.9745  -5.9239  -5.9238  -5.8524  -5.8523  -5.8261  -5.8261
    -5.3022  -5.3022  -5.3006  -5.3005  -5.1819  -5.1819  -5.1390  -5.1389
    -5.0025  -5.0025  -4.9646  -4.9645  -4.9285  -4.9284  -4.9129  -4.9129
    -4.1521  -4.1521  -4.1301  -4.1301  -4.0061  -4.0060  -3.9889  -3.9889
    -3.9423  -3.9423  -3.8503  -3.8503  -3.6966  -3.6966  -3.5884  -3.5884
    -3.5430  -3.5429  -3.4804  -3.4803  -3.3040  -3.3039  -3.2550  -3.2549
    -3.2177  -3.2177  -3.2028  -3.2027  -3.1037  -3.1036  -3.0400  -3.0399
    -2.9372  -2.9372  -2.8696  -2.8696  -2.8530  -2.8530  -2.8103  -2.8103
    -2.7713  -2.7713  -2.7557  -2.7557  -2.6214  -2.6213  -2.6204  -2.6203
    -2.5857  -2.5857  -2.5313  -2.5313  -2.5309  -2.5308  -2.4464  -2.4464
    -2.3023  -2.3023  -2.2603  -2.2603  -2.1908  -2.1908  -2.1594  -2.1594
    -2.1053  -2.1053  -2.0809  -2.0809  -1.6207  -1.6204  -1.6048  -1.6046
    -1.5895  -1.5894  -1.5811  -1.5811  -1.5319  -1.5319  -1.5122  -1.5119
    -1.4746  -1.4745  -1.4588  -1.4586  -1.2597  -1.2594  -1.2113  -1.2110
    -1.1152  -1.1147  -1.0610  -1.0608  -1.0293  -1.0291  -1.0006  -1.0002
    -0.6745  -0.6744  -0.6719  -0.6717  -0.6267  -0.6266  -0.6040  -0.6038
    -0.4531  -0.4528  -0.4233  -0.4228  -0.3300  -0.3300  -0.2524  -0.2522
    -0.1640  -0.1639  -0.1491  -0.1491   0.3155   0.3155   0.3365   0.3365
     0.3471   0.3471   0.3568   0.3568   0.8152   0.8152   0.8165   0.8169
     3.0935   3.0937   3.1029   3.1030   3.2332   3.2332   3.2349   3.2353
     3.4043   3.4043   3.4114   3.4115   6.3806   6.3806   6.5124   6.5124
     6.6374   6.6375   6.7901   6.7903   7.0727   7.0728   7.0786   7.0786
     7.3815   7.3815   7.3911   7.3911   7.3995   7.3995   7.6645   7.6646
     7.6661   7.6662   7.7154   7.7155   7.8772   7.8772   7.9935   7.9935
     8.1360   8.1361   8.1426   8.1426   8.2213   8.2214   8.2651   8.2652
     8.4209   8.4209   8.5083   8.5083   8.6192   8.6193   8.6747   8.6747
     8.6998   8.6999   8.8227

          k =-0.5000-0.7290-0.0756 (193684 PWs)   bands (ev):

   -24.8657 -24.8627 -24.8580 -24.8557 -24.7937 -24.7906 -24.7854 -24.7831
   -23.8935 -23.8914 -23.8895 -23.8875 -21.7489 -21.7463 -21.7427 -21.7405
   -20.7994 -20.7986 -20.7981 -20.7974 -20.7749 -20.7742 -20.7721 -20.7714
   -20.4654 -20.4633 -20.4579 -20.4568 -20.4508 -20.4489 -20.4434 -20.4423
   -18.9323 -18.9319 -18.9316 -18.9312 -18.8844 -18.8840 -18.8838 -18.8833
   -16.6649 -16.6635 -16.6627 -16.6606 -15.9349 -15.9340 -15.9253 -15.9244
   -14.5058 -14.5057 -14.4920 -14.4919 -13.0575 -13.0574 -13.0302 -13.0301
   -12.6908 -12.6907 -12.6790 -12.6789 -11.2922 -11.2917 -11.2421 -11.2418
   -11.2008 -11.2002 -11.1757 -11.1754 -11.0783 -11.0778 -11.0720 -11.0716
   -10.6701 -10.6696 -10.6309 -10.6304 -10.5556 -10.5552 -10.4811 -10.4807
   -10.4031 -10.4030 -10.3771 -10.3769 -10.3724 -10.3722 -10.3480 -10.3478
    -9.3729  -9.3726  -9.3147  -9.3145  -8.3199  -8.3195  -8.2256  -8.2253
    -8.0168  -8.0161  -7.9845  -7.9831  -7.9806  -7.9799  -7.9207  -7.9193
    -7.6475  -7.6455  -7.4885  -7.4870  -7.2521  -7.2511  -7.2355  -7.2337
    -7.2114  -7.2077  -7.1694  -7.1687  -7.1027  -7.0995  -6.9855  -6.9850
    -6.9631  -6.9624  -6.9235  -6.9223  -6.6674  -6.6673  -6.5859  -6.5858
    -6.5327  -6.5319  -6.4211  -6.4207  -6.3767  -6.3757  -6.3281  -6.3275
    -6.2931  -6.2927  -6.2496  -6.2491  -6.1794  -6.1793  -6.1669  -6.1662
    -5.9730  -5.9712  -5.9282  -5.9264  -5.8864  -5.8853  -5.7966  -5.7953
    -5.2926  -5.2913  -5.2755  -5.2743  -5.2227  -5.2218  -5.1589  -5.1580
    -5.0510  -5.0508  -5.0281  -5.0277  -4.9046  -4.9043  -4.8213  -4.8212
    -4.1579  -4.1572  -4.1284  -4.1279  -4.0465  -4.0454  -3.9400  -3.9396
    -3.9181  -3.9174  -3.8346  -3.8343  -3.7513  -3.7501  -3.5868  -3.5866
    -3.5440  -3.5434  -3.4366  -3.4364  -3.2852  -3.2848  -3.2731  -3.2724
    -3.2547  -3.2542  -3.2128  -3.2125  -3.1073  -3.1070  -2.9925  -2.9917
    -2.9786  -2.9786  -2.8949  -2.8946  -2.8779  -2.8775  -2.7928  -2.7925
    -2.7767  -2.7765  -2.7407  -2.7405  -2.6544  -2.6538  -2.5726  -2.5723
    -2.5486  -2.5483  -2.5288  -2.5284  -2.4884  -2.4880  -2.4690  -2.4689
    -2.3493  -2.3492  -2.2735  -2.2733  -2.2028  -2.2027  -2.1870  -2.1869
    -2.0607  -2.0604  -2.0277  -2.0275  -1.6385  -1.6368  -1.6312  -1.6308
    -1.5942  -1.5938  -1.5853  -1.5833  -1.5170  -1.5160  -1.5058  -1.5045
    -1.4883  -1.4871  -1.4518  -1.4507  -1.3117  -1.3103  -1.1219  -1.1208
    -1.0950  -1.0940  -1.0892  -1.0876  -1.0602  -1.0590  -1.0230  -1.0221
    -0.6677  -0.6655  -0.6544  -0.6521  -0.6317  -0.6295  -0.6174  -0.6155
    -0.4523  -0.4516  -0.4009  -0.4002  -0.3104  -0.3097  -0.2709  -0.2702
    -0.2040  -0.2037  -0.1171  -0.1168   0.2849   0.2855   0.3217   0.3222
     0.3418   0.3423   0.3798   0.3803   0.7856   0.7861   0.8597   0.8603
     3.0772   3.0775   3.1279   3.1282   3.2065   3.2078   3.2450   3.2463
     3.3822   3.3823   3.4389   3.4391   6.3640   6.3647   6.5430   6.5432
     6.7533   6.7536   6.8171   6.8179   6.9489   6.9491   7.1032   7.1036
     7.3020   7.3029   7.3276   7.3280   7.5142   7.5151   7.5763   7.5764
     7.6944   7.6948   7.7219   7.7220   7.7992   7.7994   7.8093   7.8096
     7.9269   7.9273   8.1872   8.1873   8.2545   8.2551   8.3656   8.3658
     8.4348   8.4350   8.5104   8.5108   8.5708   8.5713   8.6178   8.6181
     8.7582   8.7586   8.8758

          k =-0.5000-0.7290-0.6926 (193736 PWs)   bands (ev):

   -24.8657 -24.8627 -24.8580 -24.8557 -24.7937 -24.7906 -24.7854 -24.7831
   -23.8931 -23.8910 -23.8899 -23.8879 -21.7478 -21.7451 -21.7439 -21.7417
   -20.7993 -20.7987 -20.7979 -20.7973 -20.7750 -20.7743 -20.7722 -20.7715
   -20.4653 -20.4633 -20.4579 -20.4568 -20.4508 -20.4489 -20.4434 -20.4423
   -18.9320 -18.9317 -18.9313 -18.9310 -18.8847 -18.8843 -18.8839 -18.8835
   -16.6645 -16.6632 -16.6631 -16.6610 -15.9328 -15.9326 -15.9266 -15.9263
   -14.4993 -14.4990 -14.4988 -14.4985 -13.0447 -13.0442 -13.0432 -13.0427
   -12.6856 -12.6852 -12.6850 -12.6846 -11.2875 -11.2871 -11.2330 -11.2327
   -11.2171 -11.2168 -11.1775 -11.1773 -11.0747 -11.0744 -11.0718 -11.0715
   -10.6675 -10.6669 -10.6324 -10.6319 -10.5374 -10.5370 -10.5011 -10.5006
   -10.3903 -10.3899 -10.3853 -10.3849 -10.3632 -10.3629 -10.3615 -10.3611
    -9.3437  -9.3434  -9.3433  -9.3428  -8.2983  -8.2976  -8.2414  -8.2410
    -8.0287  -8.0279  -8.0207  -8.0200  -7.9459  -7.9457  -7.9211  -7.9196
    -7.6472  -7.6453  -7.4777  -7.4763  -7.2374  -7.2353  -7.2295  -7.2262
    -7.2114  -7.2080  -7.1405  -7.1400  -7.0715  -7.0701  -7.0671  -7.0658
    -6.9708  -6.9701  -6.9393  -6.9383  -6.6413  -6.6412  -6.5730  -6.5723
    -6.5457  -6.5454  -6.4259  -6.4250  -6.3536  -6.3532  -6.3256  -6.3249
    -6.3000  -6.2990  -6.2573  -6.2565  -6.1879  -6.1873  -6.1824  -6.1820
    -5.9698  -5.9681  -5.9323  -5.9304  -5.8816  -5.8805  -5.8010  -5.7996
    -5.2905  -5.2898  -5.2744  -5.2740  -5.2235  -5.2226  -5.1445  -5.1434
    -5.0080  -5.0075  -4.9483  -4.9477  -4.9466  -4.9462  -4.9257  -4.9253
    -4.1583  -4.1577  -4.1156  -4.1152  -4.0151  -4.0142  -3.9679  -3.9676
    -3.9369  -3.9360  -3.8053  -3.8050  -3.7579  -3.7568  -3.5700  -3.5695
    -3.5133  -3.5128  -3.4988  -3.4979  -3.2794  -3.2793  -3.2544  -3.2540
    -3.2435  -3.2429  -3.2267  -3.2263  -3.1021  -3.1017  -3.0090  -3.0082
    -2.9540  -2.9537  -2.8777  -2.8775  -2.8438  -2.8435  -2.8313  -2.8312
    -2.7772  -2.7769  -2.7537  -2.7535  -2.6057  -2.6054  -2.5978  -2.5978
    -2.5804  -2.5801  -2.5417  -2.5413  -2.5337  -2.5336  -2.4505  -2.4504
    -2.3085  -2.3084  -2.2814  -2.2813  -2.1793  -2.1791  -2.1294  -2.1292
    -2.1182  -2.1181  -2.0807  -2.0807  -1.6251  -1.6234  -1.6208  -1.6190
    -1.5925  -1.5904  -1.5865  -1.5843  -1.5073  -1.5068  -1.4991  -1.4988
    -1.4825  -1.4817  -1.4674  -1.4667  -1.3127  -1.3113  -1.1216  -1.1204
    -1.0966  -1.0953  -1.0947  -1.0934  -1.0551  -1.0540  -1.0259  -1.0249
    -0.6707  -0.6694  -0.6584  -0.6573  -0.6326  -0.6309  -0.6154  -0.6136
    -0.4465  -0.4455  -0.4163  -0.4154  -0.3075  -0.3069  -0.2601  -0.2596
    -0.1845  -0.1837  -0.1355  -0.1348   0.2918   0.2924   0.3206   0.3211
     0.3435   0.3441   0.3782   0.3787   0.8046   0.8057   0.8359   0.8370
     3.0983   3.0996   3.1051   3.1065   3.2105   3.2124   3.2371   3.2390
     3.4061   3.4075   3.4142   3.4157   6.4622   6.4624   6.5010   6.5014
     6.7258   6.7261   6.8309   6.8316   6.8489   6.8491   7.1316   7.1317
     7.3140   7.3148   7.4195   7.4199   7.4355   7.4355   7.5209   7.5214
     7.7102   7.7104   7.7730   7.7732   7.7735   7.7736   7.9047   7.9047
     8.0200   8.0202   8.1460   8.1463   8.2966   8.2967   8.3183   8.3187
     8.4503   8.4507   8.5438   8.5439   8.6013   8.6013   8.6074   8.6076
     8.6524   8.6525   8.8199

     highest occupied, lowest unoccupied level (ev):     0.8603    3.0721

!    total energy              =   -3095.20513128 Ry
     Harris-Foulkes estimate   =   -3095.20513128 Ry
     estimated scf accuracy    <          1.7E-09 Ry

     total all-electron energy =    -11522.538167 Ry

     The total energy is the sum of the following terms:

     one-electron contribution =   -2208.07421874 Ry
     hartree contribution      =    1333.67198170 Ry
     xc contribution           =    -638.17289832 Ry
     ewald contribution        =    -749.32253071 Ry
     Dispersion Correction     =      -0.81624193 Ry
     one-center paw contrib.   =    -832.49122329 Ry

     convergence has been achieved in  22 iterations

     Forces acting on atoms (cartesian axes, Ry/au):

     atom    1 type  1   force =    -0.00036647    0.00014079   -0.00000916
     atom    2 type  1   force =     0.00036647    0.00014079    0.00000916
     atom    3 type  1   force =    -0.00037595    0.00015841   -0.00002988
     atom    4 type  1   force =     0.00037595    0.00015841    0.00002988
     atom    5 type  1   force =     0.00036647   -0.00014079    0.00000916
     atom    6 type  1   force =    -0.00036647   -0.00014079   -0.00000916
     atom    7 type  1   force =     0.00037595   -0.00015841    0.00002988
     atom    8 type  1   force =    -0.00037595   -0.00015841   -0.00002988
     atom    9 type  3   force =    -0.00049588    0.00037973    0.00003603
     atom   10 type  3   force =     0.00049588    0.00037973   -0.00003603
     atom   11 type  3   force =    -0.00048969    0.00038306    0.00003907
     atom   12 type  3   force =     0.00048969    0.00038306   -0.00003907
     atom   13 type  3   force =     0.00049588   -0.00037973   -0.00003603
     atom   14 type  3   force =    -0.00049588   -0.00037973    0.00003603
     atom   15 type  3   force =     0.00048969   -0.00038306   -0.00003907
     atom   16 type  3   force =    -0.00048969   -0.00038306    0.00003907
     atom   17 type  3   force =    -0.00028115   -0.00014902    0.00014331
     atom   18 type  3   force =     0.00028115   -0.00014902   -0.00014331
     atom   19 type  3   force =    -0.00026843   -0.00015177    0.00014298
     atom   20 type  3   force =     0.00026843   -0.00015177   -0.00014298
     atom   21 type  3   force =     0.00028115    0.00014902   -0.00014331
     atom   22 type  3   force =    -0.00028115    0.00014902    0.00014331
     atom   23 type  3   force =     0.00026843    0.00015177   -0.00014298
     atom   24 type  3   force =    -0.00026843    0.00015177    0.00014298
     atom   25 type  1   force =    -0.00038863    0.00013217    0.00005070
     atom   26 type  1   force =     0.00038863    0.00013217   -0.00005070
     atom   27 type  1   force =    -0.00051902    0.00012455    0.00005190
     atom   28 type  1   force =     0.00051902    0.00012455   -0.00005190
     atom   29 type  1   force =     0.00038863   -0.00013217   -0.00005070
     atom   30 type  1   force =    -0.00038863   -0.00013217    0.00005070
     atom   31 type  1   force =     0.00051902   -0.00012455   -0.00005190
     atom   32 type  1   force =    -0.00051902   -0.00012455    0.00005190
     atom   33 type  1   force =    -0.00029611    0.00006236   -0.00011682
     atom   34 type  1   force =     0.00029611    0.00006236    0.00011682
     atom   35 type  1   force =    -0.00034689    0.00005657   -0.00012322
     atom   36 type  1   force =     0.00034689    0.00005657    0.00012322
     atom   37 type  1   force =     0.00029611   -0.00006236    0.00011682
     atom   38 type  1   force =    -0.00029611   -0.00006236   -0.00011682
     atom   39 type  1   force =     0.00034689   -0.00005657    0.00012322
     atom   40 type  1   force =    -0.00034689   -0.00005657   -0.00012322
     atom   41 type  1   force =     0.00000208   -0.00019610   -0.00014012
     atom   42 type  1   force =    -0.00000208   -0.00019610    0.00014012
     atom   43 type  1   force =    -0.00011341   -0.00018573   -0.00015644
     atom   44 type  1   force =     0.00011341   -0.00018573    0.00015644
     atom   45 type  1   force =    -0.00000208    0.00019610    0.00014012
     atom   46 type  1   force =     0.00000208    0.00019610   -0.00014012
     atom   47 type  1   force =     0.00011341    0.00018573    0.00015644
     atom   48 type  1   force =    -0.00011341    0.00018573   -0.00015644
     atom   49 type  3   force =     0.00027274   -0.00033455    0.00008332
     atom   50 type  3   force =    -0.00027274   -0.00033455   -0.00008332
     atom   51 type  3   force =     0.00027749   -0.00033010    0.00008834
     atom   52 type  3   force =    -0.00027749   -0.00033010   -0.00008834
     atom   53 type  3   force =    -0.00027274    0.00033455   -0.00008332
     atom   54 type  3   force =     0.00027274    0.00033455    0.00008332
     atom   55 type  3   force =    -0.00027749    0.00033010   -0.00008834
     atom   56 type  3   force =     0.00027749    0.00033010    0.00008834
     atom   57 type  3   force =     0.00004210    0.00007455   -0.00017697
     atom   58 type  3   force =    -0.00004210    0.00007455    0.00017697
     atom   59 type  3   force =     0.00006399    0.00007977   -0.00018596
     atom   60 type  3   force =    -0.00006399    0.00007977    0.00018596
     atom   61 type  3   force =    -0.00004210   -0.00007455    0.00017697
     atom   62 type  3   force =     0.00004210   -0.00007455   -0.00017697
     atom   63 type  3   force =    -0.00006399   -0.00007977    0.00018596
     atom   64 type  3   force =     0.00006399   -0.00007977   -0.00018596
     atom   65 type  1   force =    -0.00002359   -0.00000290    0.00019461
     atom   66 type  1   force =     0.00002359   -0.00000290   -0.00019461
     atom   67 type  1   force =     0.00002394   -0.00000405    0.00019903
     atom   68 type  1   force =    -0.00002394   -0.00000405   -0.00019903
     atom   69 type  1   force =     0.00002359    0.00000290   -0.00019461
     atom   70 type  1   force =    -0.00002359    0.00000290    0.00019461
     atom   71 type  1   force =    -0.00002394    0.00000405   -0.00019903
     atom   72 type  1   force =     0.00002394    0.00000405    0.00019903
     atom   73 type  3   force =     0.00008889   -0.00017899    0.00020222
     atom   74 type  3   force =    -0.00008889   -0.00017899   -0.00020222
     atom   75 type  3   force =     0.00008292   -0.00017920    0.00019961
     atom   76 type  3   force =    -0.00008292   -0.00017920   -0.00019961
     atom   77 type  3   force =    -0.00008889    0.00017899   -0.00020222
     atom   78 type  3   force =     0.00008889    0.00017899    0.00020222
     atom   79 type  3   force =    -0.00008292    0.00017920   -0.00019961
     atom   80 type  3   force =     0.00008292    0.00017920    0.00019961
     atom   81 type  3   force =     0.00044896    0.00003805   -0.00017960
     atom   82 type  3   force =    -0.00044896    0.00003805    0.00017960
     atom   83 type  3   force =     0.00044495    0.00003587   -0.00017618
     atom   84 type  3   force =    -0.00044495    0.00003587    0.00017618
     atom   85 type  3   force =    -0.00044896   -0.00003805    0.00017960
     atom   86 type  3   force =     0.00044896   -0.00003805   -0.00017960
     atom   87 type  3   force =    -0.00044495   -0.00003587    0.00017618
     atom   88 type  3   force =     0.00044495   -0.00003587   -0.00017618
     atom   89 type  3   force =    -0.00015359    0.00008031    0.00006676
     atom   90 type  3   force =     0.00015359    0.00008031   -0.00006676
     atom   91 type  3   force =    -0.00015808    0.00007631    0.00006730
     atom   92 type  3   force =     0.00015808    0.00007631   -0.00006730
     atom   93 type  3   force =     0.00015359   -0.00008031   -0.00006676
     atom   94 type  3   force =    -0.00015359   -0.00008031    0.00006676
     atom   95 type  3   force =     0.00015808   -0.00007631   -0.00006730
     atom   96 type  3   force =    -0.00015808   -0.00007631    0.00006730
     atom   97 type  1   force =     0.00010719   -0.00020289   -0.00012051
     atom   98 type  1   force =    -0.00010719   -0.00020289    0.00012051
     atom   99 type  1   force =     0.00001505   -0.00020988   -0.00013551
     atom  100 type  1   force =    -0.00001505   -0.00020988    0.00013551
     atom  101 type  1   force =    -0.00010719    0.00020289    0.00012051
     atom  102 type  1   force =     0.00010719    0.00020289   -0.00012051
     atom  103 type  1   force =    -0.00001505    0.00020988    0.00013551
     atom  104 type  1   force =     0.00001505    0.00020988   -0.00013551
     atom  105 type  3   force =    -0.00009783   -0.00026633   -0.00001536
     atom  106 type  3   force =     0.00009783   -0.00026633    0.00001536
     atom  107 type  3   force =    -0.00007991   -0.00026651   -0.00001331
     atom  108 type  3   force =     0.00007991   -0.00026651    0.00001331
     atom  109 type  3   force =     0.00009783    0.00026633    0.00001536
     atom  110 type  3   force =    -0.00009783    0.00026633   -0.00001536
     atom  111 type  3   force =     0.00007991    0.00026651    0.00001331
     atom  112 type  3   force =    -0.00007991    0.00026651   -0.00001331
     atom  113 type  3   force =     0.00006728   -0.00022571    0.00042390
     atom  114 type  3   force =    -0.00006728   -0.00022571   -0.00042390
     atom  115 type  3   force =     0.00007551   -0.00023253    0.00042890
     atom  116 type  3   force =    -0.00007551   -0.00023253   -0.00042890
     atom  117 type  3   force =    -0.00006728    0.00022571   -0.00042390
     atom  118 type  3   force =     0.00006728    0.00022571    0.00042390
     atom  119 type  3   force =    -0.00007551    0.00023253   -0.00042890
     atom  120 type  3   force =     0.00007551    0.00023253    0.00042890
     atom  121 type  3   force =    -0.00009471   -0.00025358   -0.00015823
     atom  122 type  3   force =     0.00009471   -0.00025358    0.00015823
     atom  123 type  3   force =    -0.00008266   -0.00025985   -0.00015630
     atom  124 type  3   force =     0.00008266   -0.00025985    0.00015630
     atom  125 type  3   force =     0.00009471    0.00025358    0.00015823
     atom  126 type  3   force =    -0.00009471    0.00025358   -0.00015823
     atom  127 type  3   force =     0.00008266    0.00025985    0.00015630
     atom  128 type  3   force =    -0.00008266    0.00025985   -0.00015630
     atom  129 type  2   force =     0.00001241    0.00005031   -0.00043523
     atom  130 type  2   force =    -0.00001241    0.00005031    0.00043523
     atom  131 type  2   force =     0.00006287    0.00019192   -0.00064967
     atom  132 type  2   force =    -0.00006287    0.00019192    0.00064967
     atom  133 type  2   force =    -0.00001241   -0.00005031    0.00043523
     atom  134 type  2   force =     0.00001241   -0.00005031   -0.00043523
     atom  135 type  2   force =    -0.00006287   -0.00019192    0.00064967
     atom  136 type  2   force =     0.00006287   -0.00019192   -0.00064967
     atom  137 type  2   force =    -0.00058671   -0.00008238    0.00030150
     atom  138 type  2   force =     0.00058671   -0.00008238   -0.00030150
     atom  139 type  2   force =    -0.00058701   -0.00018745    0.00033572
     atom  140 type  2   force =     0.00058701   -0.00018745   -0.00033572
     atom  141 type  2   force =     0.00058671    0.00008238   -0.00030150
     atom  142 type  2   force =    -0.00058671    0.00008238    0.00030150
     atom  143 type  2   force =     0.00058701    0.00018745   -0.00033572
     atom  144 type  2   force =    -0.00058701    0.00018745    0.00033572
     atom  145 type  4   force =     0.00002046   -0.00001281    0.00007837
     atom  146 type  4   force =    -0.00002046   -0.00001281   -0.00007837
     atom  147 type  4   force =    -0.00002014   -0.00010626    0.00021197
     atom  148 type  4   force =     0.00002014   -0.00010626   -0.00021197
     atom  149 type  4   force =    -0.00002046    0.00001281   -0.00007837
     atom  150 type  4   force =     0.00002046    0.00001281    0.00007837
     atom  151 type  4   force =     0.00002014    0.00010626   -0.00021197
     atom  152 type  4   force =    -0.00002014    0.00010626    0.00021197
     atom  153 type  4   force =     0.00020874    0.00059764   -0.00006287
     atom  154 type  4   force =    -0.00020874    0.00059764    0.00006287
     atom  155 type  4   force =     0.00019173    0.00060349   -0.00007738
     atom  156 type  4   force =    -0.00019173    0.00060349    0.00007738
     atom  157 type  4   force =    -0.00020874   -0.00059764    0.00006287
     atom  158 type  4   force =     0.00020874   -0.00059764   -0.00006287
     atom  159 type  4   force =    -0.00019173   -0.00060349    0.00007738
     atom  160 type  4   force =     0.00019173   -0.00060349   -0.00007738
     atom  161 type  4   force =     0.00019718   -0.00028687    0.00043172
     atom  162 type  4   force =    -0.00019718   -0.00028687   -0.00043172
     atom  163 type  4   force =     0.00018609   -0.00028747    0.00042325
     atom  164 type  4   force =    -0.00018609   -0.00028747   -0.00042325
     atom  165 type  4   force =    -0.00019718    0.00028687   -0.00043172
     atom  166 type  4   force =     0.00019718    0.00028687    0.00043172
     atom  167 type  4   force =    -0.00018609    0.00028747   -0.00042325
     atom  168 type  4   force =     0.00018609    0.00028747    0.00042325
     atom  169 type  4   force =     0.00027801    0.00009198    0.00049167
     atom  170 type  4   force =    -0.00027801    0.00009198   -0.00049167
     atom  171 type  4   force =     0.00034071    0.00012041    0.00054424
     atom  172 type  4   force =    -0.00034071    0.00012041   -0.00054424
     atom  173 type  4   force =    -0.00027801   -0.00009198   -0.00049167
     atom  174 type  4   force =     0.00027801   -0.00009198    0.00049167
     atom  175 type  4   force =    -0.00034071   -0.00012041   -0.00054424
     atom  176 type  4   force =     0.00034071   -0.00012041    0.00054424
     atom  177 type  4   force =    -0.00003436    0.00020465   -0.00026917
     atom  178 type  4   force =     0.00003436    0.00020465    0.00026917
     atom  179 type  4   force =    -0.00003133    0.00028799   -0.00034515
     atom  180 type  4   force =     0.00003133    0.00028799    0.00034515
     atom  181 type  4   force =     0.00003436   -0.00020465    0.00026917
     atom  182 type  4   force =    -0.00003436   -0.00020465   -0.00026917
     atom  183 type  4   force =     0.00003133   -0.00028799    0.00034515
     atom  184 type  4   force =    -0.00003133   -0.00028799   -0.00034515

     Total force =     0.005838     Total SCF correction =     0.000090


     Computing stress (Cartesian axis) and pressure

          total   stress  (Ry/bohr**3)                   (kbar)     P=   -2.29
  -0.00001274   0.00000000   0.00000485         -1.87      0.00      0.71
   0.00000000  -0.00001674   0.00000000          0.00     -2.46      0.00
   0.00000485   0.00000000  -0.00001721          0.71      0.00     -2.53


     Writing output data file scf.save
 
     init_run     :    203.20s CPU    209.04s WALL (       1 calls)
     electrons    :  10732.57s CPU  11034.02s WALL (       1 calls)
     forces       :    111.26s CPU    111.87s WALL (       1 calls)
     stress       :    564.28s CPU    565.30s WALL (       1 calls)

     Called by init_run:
     wfcinit      :    184.97s CPU    190.52s WALL (       1 calls)
     potinit      :      6.42s CPU      6.47s WALL (       1 calls)

     Called by electrons:
     c_bands      :   9816.92s CPU  10073.86s WALL (      22 calls)
     sum_band     :    877.31s CPU    917.14s WALL (      22 calls)
     v_of_rho     :      4.63s CPU      5.10s WALL (      23 calls)
     newd         :     16.60s CPU     20.66s WALL (      23 calls)
     PAW_pot      :     16.03s CPU     16.06s WALL (      23 calls)
     mix_rho      :      1.20s CPU      1.33s WALL (      22 calls)

     Called by c_bands:
     init_us_2    :     31.27s CPU     31.37s WALL (     376 calls)
     cegterg      :   9682.63s CPU   9939.44s WALL (     176 calls)

     Called by sum_band:
     sum_band:bec :      0.43s CPU      0.43s WALL (     176 calls)
     addusdens    :     16.73s CPU     20.63s WALL (      22 calls)

     Called by *egterg:
     h_psi        :   4501.36s CPU   4700.19s WALL (     855 calls)
     s_psi        :   1372.04s CPU   1372.32s WALL (     855 calls)
     g_psi        :     16.18s CPU     16.20s WALL (     671 calls)
     cdiaghg      :    644.14s CPU    644.27s WALL (     847 calls)

     Called by h_psi:
     h_psi:pot    :   4477.65s CPU   4676.18s WALL (     855 calls)
     h_psi:calbec :   1353.05s CPU   1354.55s WALL (     855 calls)
     vloc_psi     :   1753.28s CPU   1950.03s WALL (     855 calls)
     add_vuspsi   :   1371.31s CPU   1371.60s WALL (     855 calls)

     General routines
     calbec       :   1961.03s CPU   1963.18s WALL (    1071 calls)
     fft          :      3.60s CPU      4.42s WALL (     323 calls)
     fftw         :   1871.32s CPU   2102.78s WALL (  400912 calls)
 
     Parallel routines
     fft_scatter  :    318.94s CPU    549.78s WALL (  401235 calls)
 
     PWSCF        :     3h14m CPU        3h20m WALL

 
   This run was terminated on:  15:44:24  13Nov2017            

=------------------------------------------------------------------------------=
   JOB DONE.
=------------------------------------------------------------------------------=
