
     Program PWSCF v.6.1 (svn rev. 13369) starts on 13Nov2017 at 12:24: 4 

     This program is part of the open-source Quantum ESPRESSO suite
     for quantum simulation of materials; please cite
         "P. Giannozzi et al., J. Phys.:Condens. Matter 21 395502 (2009);
          URL http://www.quantum-espresso.org", 
     in publications or presentations arising from this work. More details at
     http://www.quantum-espresso.org/quote

     Parallel version (MPI), running on     8 processors
     R & G space division:  proc/nbgrp/npool/nimage =       8
     Waiting for input...
     Reading input from standard input

     Current dimensions of program PWSCF are:
     Max number of different atomic species (ntypx) = 10
     Max number of k-points (npk) =  40000
     Max angular momentum in pseudopotentials (lmaxx) =  3
               file C.pbe-n-kjpaw_psl.0.1.UPF: wavefunction(s)  2P renormalized
               file N.pbe-n-kjpaw_psl.0.1.UPF: wavefunction(s)  2P renormalized
               file H.pbe-kjpaw_psl.0.1.UPF: wavefunction(s)  1S renormalized
               file O.pbe-n-kjpaw_psl.0.1.UPF: wavefunction(s)  2P renormalized

     -------------------------------------
     Parameters for Dispersion Correction:
     -------------------------------------
       atom      VdW radius       C_6     

        C          2.744         60.710
        N          2.640         42.670
        H          1.892          4.857
        O          2.536         24.284

     Subspace diagonalization in iterative solution of the eigenvalue problem:
     a serial algorithm will be used

 
     Parallelization info
     --------------------
     sticks:   dense  smooth     PW     G-vecs:    dense   smooth      PW
     Min         923     923    239               138926   138926   18395
     Max         924     924    240               138931   138931   18401
     Sum        7389    7389   1913              1111427  1111427  147175
 


     bravais-lattice index     =            0
     lattice parameter (alat)  =      15.3363  a.u.
     unit-cell volume          =    8226.4783 (a.u.)^3
     number of atoms/cell      =          128
     number of atomic types    =            4
     number of electrons       =       464.00
     number of Kohn-Sham states=          278
     kinetic-energy cutoff     =     100.0000  Ry
     charge density cutoff     =     400.0000  Ry
     convergence threshold     =      1.0E-08
     mixing beta               =       0.5000
     number of iterations used =            8  plain     mixing
     Exchange-correlation      =  SLA  PW   PBX  PBC ( 1  4  3  4 0 0)

     celldm(1)=  15.336261  celldm(2)=   0.000000  celldm(3)=   0.000000
     celldm(4)=   0.000000  celldm(5)=   0.000000  celldm(6)=   0.000000

     crystal axes: (cart. coord. in units of alat)
               a(1) = (   1.000000   0.000000   0.000000 )  
               a(2) = (   0.000000   0.987333   0.000000 )  
               a(3) = (  -0.124331   0.000000   2.309893 )  

     reciprocal axes: (cart. coord. in units 2 pi/alat)
               b(1) = (  1.000000  0.000000  0.053825 )  
               b(2) = (  0.000000  1.012829  0.000000 )  
               b(3) = (  0.000000  0.000000  0.432921 )  


     PseudoPot. # 1 for  C read from file:
     /scratch/ahofstet/pseudo/C.pbe-n-kjpaw_psl.0.1.UPF
     MD5 check sum: 430fe95172b1e11ef3f8ed03bac87931
     Pseudo is Projector augmented-wave + core cor, Zval =  4.0
     Generated using "atomic" code by A. Dal Corso  v.5.0.99 svn rev. 10869
     Shape of augmentation charge: BESSEL
     Using radial grid of 1073 points,  4 beta functions with: 
                l(1) =   0
                l(2) =   0
                l(3) =   1
                l(4) =   1
     Q(r) pseudized with 0 coefficients 


     PseudoPot. # 2 for  N read from file:
     /scratch/ahofstet/pseudo/N.pbe-n-kjpaw_psl.0.1.UPF
     MD5 check sum: f73187c8b701007e77325f868c9291d7
     Pseudo is Projector augmented-wave + core cor, Zval =  5.0
     Generated using "atomic" code by A. Dal Corso  v.5.0.99 svn rev. 10869
     Shape of augmentation charge: PSQ
     Using radial grid of 1085 points,  4 beta functions with: 
                l(1) =   0
                l(2) =   0
                l(3) =   1
                l(4) =   1
     Q(r) pseudized with 0 coefficients 


     PseudoPot. # 3 for  H read from file:
     /scratch/ahofstet/pseudo/H.pbe-kjpaw_psl.0.1.UPF
     MD5 check sum: 94e484f906d9e9773b2f6e52662335b2
     Pseudo is Projector augmented-wave, Zval =  1.0
     Generated using "atomic" code by A. Dal Corso  v.5.0.99 svn rev. 10869
     Shape of augmentation charge: PSQ
     Using radial grid of  929 points,  2 beta functions with: 
                l(1) =   0
                l(2) =   0
     Q(r) pseudized with 0 coefficients 


     PseudoPot. # 4 for  O read from file:
     /scratch/ahofstet/pseudo/O.pbe-n-kjpaw_psl.0.1.UPF
     MD5 check sum: 3f94a2996a3169367d6eb21d9b593f20
     Pseudo is Projector augmented-wave + core cor, Zval =  6.0
     Generated using "atomic" code by A. Dal Corso  v.5.0.99 svn rev. 10869
     Shape of augmentation charge: BESSEL
     Using radial grid of 1095 points,  4 beta functions with: 
                l(1) =   0
                l(2) =   0
                l(3) =   1
                l(4) =   1
     Q(r) pseudized with 0 coefficients 


     atomic species   valence    mass     pseudopotential
        C              4.00    12.01070      C( 1.00)
        N              5.00    14.00670      N( 1.00)
        H              1.00     1.00794      H( 1.00)
        O              6.00    15.99940      O( 1.00)

      2 Sym. Ops., with inversion, found



   Cartesian axes

     site n.     atom                  positions (alat units)
         1           C   tau(   1) = (   0.7893456   0.1505710   0.9197374  )
         2           C   tau(   2) = (   0.1484702   0.6442910   0.2351784  )
         3           C   tau(   3) = (   0.0863233   0.8367621   1.3901552  )
         4           C   tau(   4) = (   0.7271987   0.3430421   2.0747142  )
         5           C   tau(   5) = (   0.9367063   0.2480951   0.8882658  )
         6           C   tau(   6) = (   0.0011058   0.7417933   0.2667097  )
         7           C   tau(   7) = (  -0.0610374   0.7392379   1.4216268  )
         8           C   tau(   8) = (   0.8745631   0.2455398   2.0431829  )
         9           C   tau(   9) = (   0.0247588   0.2946091   1.0350829  )
        10           C   tau(  10) = (   0.9130353   0.7883505   0.1198980  )
        11           C   tau(  11) = (   0.8509101   0.6927239   1.2748097  )
        12           C   tau(  12) = (  -0.0373664   0.1989825   2.1899946  )
        13           C   tau(  13) = (  -0.0243463   0.2615593   1.2021804  )
        14           C   tau(  14) = (   0.8378403   0.7554232   2.2626895  )
        15           C   tau(  15) = (   0.9000152   0.7257737   1.1077122  )
        16           C   tau(  16) = (   0.0378287   0.2319098   0.0472030  )
        17           C   tau(  17) = (   0.8225358   0.1683389   1.2164042  )
        18           C   tau(  18) = (  -0.0090302   0.6622581   2.2484112  )
        19           C   tau(  19) = (   0.0531331   0.8189942   1.0934883  )
        20           C   tau(  20) = (   0.8846991   0.3250749   0.0614813  )
        21           C   tau(  21) = (   0.7370256   0.1145539   1.0783566  )
        22           C   tau(  22) = (   0.2008307   0.6084146   0.0765536  )
        23           C   tau(  23) = (   0.1386433   0.8727791   1.2315359  )
        24           C   tau(  24) = (   0.6748382   0.3789184   2.2333390  )
        25           H   tau(  25) = (   0.6250478   0.0425964   1.0953946  )
        26           H   tau(  26) = (   0.3128049   0.5364767   0.0594697  )
        27           H   tau(  27) = (   0.2506211   0.9447366   1.2144980  )
        28           H   tau(  28) = (   0.5628640   0.4508563   2.2504228  )
        29           N   tau(  29) = (   0.6965121   0.0844387   0.7848674  )
        30           N   tau(  30) = (   0.2412667   0.5780241   0.3700077  )
        31           N   tau(  31) = (   0.1791568   0.9028943   1.5250252  )
        32           N   tau(  32) = (   0.6344022   0.4093090   1.9398849  )
        33           N   tau(  33) = (   0.1742343   0.3846424   1.0095055  )
        34           N   tau(  34) = (   0.7635911   0.8784088   0.1455207  )
        35           N   tau(  35) = (   0.7014346   0.6026907   1.3003871  )
        36           N   tau(  36) = (   0.1120778   0.1089242   2.1643719  )
        37           N   tau(  37) = (   0.7529165   0.1280429   1.3738497  )
        38           N   tau(  38) = (   0.0605556   0.6219345   2.0909542  )
        39           N   tau(  39) = (   0.1227524   0.8592901   0.9360428  )
        40           N   tau(  40) = (   0.8151134   0.3653986   0.2189384  )
        41           O   tau(  41) = (   0.6099642   0.9469642   0.8089947  )
        42           O   tau(  42) = (   0.3278154   0.4532359   0.3457892  )
        43           O   tau(  43) = (   0.2657047   0.0403688   1.5008978  )
        44           O   tau(  44) = (   0.5478535   0.5340972   1.9641034  )
        45           O   tau(  45) = (   0.7036987   0.1538299   0.6477175  )
        46           O   tau(  46) = (   0.2340448   0.6472938   0.5072241  )
        47           O   tau(  47) = (   0.1719702   0.8335031   1.6621750  )
        48           O   tau(  48) = (   0.6416241   0.3400392   1.8026685  )
        49           O   tau(  49) = (   0.1751645   0.4988130   0.9071984  )
        50           O   tau(  50) = (   0.7627066   0.0051772   0.2479408  )
        51           O   tau(  51) = (   0.7005044   0.4885201   1.4026942  )
        52           O   tau(  52) = (   0.1129623   0.9821558   2.0619518  )
        53           O   tau(  53) = (   0.3013315   0.3438808   1.0870171  )
        54           O   tau(  54) = (   0.6364944   0.8377785   0.0679778  )
        55           O   tau(  55) = (   0.5743374   0.6434522   1.2228755  )
        56           O   tau(  56) = (   0.2391745   0.1495545   2.2419147  )
        57           O   tau(  57) = (   0.6030901   0.0906681   1.3798804  )
        58           O   tau(  58) = (   0.2103888   0.5846612   2.0848647  )
        59           O   tau(  59) = (   0.2725788   0.8966650   0.9300122  )
        60           O   tau(  60) = (   0.6652801   0.4026718   0.2250279  )
        61           O   tau(  61) = (   0.8416008   0.1280112   1.4988759  )
        62           O   tau(  62) = (  -0.0282105   0.6217637   1.9659820  )
        63           O   tau(  63) = (   0.0340681   0.8593218   0.8110167  )
        64           O   tau(  64) = (   0.9038794   0.3655693   0.3439106  )
        65           O   tau(  65) = (  -0.0110048   0.2820907   0.7453613  )
        66           O   tau(  66) = (   0.9488247   0.7757299   0.4096157  )
        67           O   tau(  67) = (   0.8866737   0.7052423   1.5645312  )
        68           O   tau(  68) = (  -0.0731558   0.2116031   1.9002769  )
        69           O   tau(  69) = (   0.0526096   0.3204718   1.3243360  )
        70           O   tau(  70) = (   0.7609073   0.8143984   2.1405339  )
        71           O   tau(  71) = (   0.8230593   0.6668612   0.9855566  )
        72           O   tau(  72) = (   0.1147616   0.1729346   0.1693587  )
        73           C   tau(  73) = (   0.3258771   0.4725344   1.5845777  )
        74           C   tau(  74) = (   0.4876663   0.9663387   1.8802543  )
        75           C   tau(  75) = (   0.5497919   0.5147987   0.7253149  )
        76           C   tau(  76) = (   0.3880026   0.0209944   0.4296383  )
        77           H   tau(  77) = (   0.2786334   0.5918116   1.5427837  )
        78           H   tau(  78) = (   0.5349719   0.0982716   1.9220055  )
        79           H   tau(  79) = (   0.5970355   0.3955214   0.7671088  )
        80           H   tau(  80) = (   0.3406971   0.8890615   0.3878870  )
        81           H   tau(  81) = (   0.4437393   0.4910073   1.6478824  )
        82           H   tau(  82) = (   0.3697968   0.9848314   1.8169701  )
        83           H   tau(  83) = (   0.4319296   0.4963258   0.6620102  )
        84           H   tau(  84) = (   0.5058721   0.0025016   0.4929225  )
        85           C   tau(  85) = (   0.2060347   0.3922415   1.7036431  )
        86           C   tau(  86) = (   0.6074489   0.8859416   1.7611957  )
        87           C   tau(  87) = (   0.6696342   0.5950916   0.6062495  )
        88           C   tau(  88) = (   0.2682200   0.1013914   0.5486969  )
        89           H   tau(  89) = (   0.2347580   0.2612043   1.7206571  )
        90           H   tau(  90) = (   0.5786788   0.7548988   1.7442849  )
        91           H   tau(  91) = (   0.6409109   0.7261287   0.5892355  )
        92           H   tau(  92) = (   0.2969901   0.2324342   0.5656076  )
        93           H   tau(  93) = (   0.2160193   0.4544748   1.8232401  )
        94           H   tau(  94) = (   0.5974576   0.9480859   1.6415547  )
        95           H   tau(  95) = (   0.6596496   0.5328582   0.4866525  )
        96           H   tau(  96) = (   0.2782113   0.0392472   0.6683379  )
        97           N   tau(  97) = (   0.3603334   0.3715816   1.4347096  )
        98           N   tau(  98) = (   0.4532219   0.8654244   2.0301538  )
        99           N   tau(  99) = (   0.5153355   0.6157514   0.8751829  )
       100           N   tau( 100) = (   0.4224470   0.1219086   0.2797388  )
       101           H   tau( 101) = (   0.4144274   0.2604788   1.4639023  )
       102           H   tau( 102) = (   0.3990097   0.7543651   2.0009997  )
       103           H   tau( 103) = (   0.4612415   0.7268542   0.8459903  )
       104           H   tau( 104) = (   0.4766592   0.2329680   0.3088929  )
       105           H   tau( 105) = (   0.4431512   0.4338550   1.3609132  )
       106           H   tau( 106) = (   0.3705182   0.9277617   2.1040229  )
       107           H   tau( 107) = (   0.4325177   0.5534780   0.9489793  )
       108           H   tau( 108) = (   0.5051507   0.0595714   0.2058697  )
       109           H   tau( 109) = (   0.2516044   0.3467364   1.3672109  )
       110           H   tau( 110) = (   0.5619746   0.8405177   2.0975946  )
       111           H   tau( 111) = (   0.6240645   0.6405966   0.9426816  )
       112           H   tau( 112) = (   0.3136943   0.1468153   0.2122979  )
       113           N   tau( 113) = (   0.0305596   0.4030638   1.6508624  )
       114           N   tau( 114) = (   0.7829408   0.8967218   1.8139331  )
       115           N   tau( 115) = (   0.8451094   0.5842692   0.6590302  )
       116           N   tau( 116) = (   0.0927281   0.0906113   0.4959595  )
       117           H   tau( 117) = (  -0.0112357   0.5244420   1.6447447  )
       118           H   tau( 118) = (   0.8247737   0.0307582   1.8200102  )
       119           H   tau( 119) = (   0.8869046   0.4628910   0.6651479  )
       120           H   tau( 120) = (   0.0508952   0.9565748   0.4898823  )
       121           H   tau( 121) = (  -0.0404508   0.3391827   1.7382106  )
       122           H   tau( 122) = (   0.8539177   0.8327940   1.7265921  )
       123           H   tau( 123) = (   0.9161197   0.6481504   0.5716820  )
       124           H   tau( 124) = (   0.0217512   0.1545390   0.5833005  )
       125           H   tau( 125) = (   0.0115349   0.3505054   1.5343165  )
       126           H   tau( 126) = (   0.8019655   0.8442077   1.9304963  )
       127           H   tau( 127) = (   0.8641340   0.6368277   0.7755760  )
       128           H   tau( 128) = (   0.0737034   0.1431254   0.3793963  )

     number of k points=     5
                       cart. coord. in units 2pi/alat
        k(    1) = (   0.0000000   0.0000000   0.0000000), wk =   0.2222222
        k(    2) = (   0.0000000   0.3376098   0.0000000), wk =   0.4444444
        k(    3) = (   0.3333333   0.0000000   0.0179418), wk =   0.4444444
        k(    4) = (   0.3333333   0.3376098   0.0179418), wk =   0.4444444
        k(    5) = (  -0.3333333   0.3376098  -0.0179418), wk =   0.4444444

     Dense  grid:  1111427 G-vectors     FFT dimensions: ( 100, 100, 225)

     Estimated max dynamical RAM per process >    1355.44MB

     Estimated total allocated dynamical RAM >   10843.55MB

     Check: negative/imaginary core charge=   -0.000003    0.000000

     Initial potential from superposition of free atoms

     starting charge  463.99806, renormalised to  464.00000
     Starting wfc are  380 randomized atomic wfcs
     Checking if some PAW data can be deallocated... 

     total cpu time spent up to now is       59.9 secs

     per-process dynamical memory:   806.6 Mb

     Self-consistent Calculation

     iteration #  1     ecut=   100.00 Ry     beta=0.50
     Davidson diagonalization with overlap
     ethr =  1.00E-02,  avg # of iterations =  4.0

     total cpu time spent up to now is      221.8 secs

     total energy              =   -2535.04314432 Ry
     Harris-Foulkes estimate   =   -2542.15502885 Ry
     estimated scf accuracy    <      12.95409240 Ry

     iteration #  2     ecut=   100.00 Ry     beta=0.50
     Davidson diagonalization with overlap
     ethr =  2.79E-03,  avg # of iterations =  3.0

     total cpu time spent up to now is      337.5 secs

     total energy              =   -2537.09902817 Ry
     Harris-Foulkes estimate   =   -2538.93374799 Ry
     estimated scf accuracy    <       3.91501279 Ry

     iteration #  3     ecut=   100.00 Ry     beta=0.50
     Davidson diagonalization with overlap
     ethr =  8.44E-04,  avg # of iterations =  5.8

     total cpu time spent up to now is      450.6 secs

     total energy              =   -2537.92388409 Ry
     Harris-Foulkes estimate   =   -2538.21161781 Ry
     estimated scf accuracy    <       0.71064474 Ry

     iteration #  4     ecut=   100.00 Ry     beta=0.50
     Davidson diagonalization with overlap
     ethr =  1.53E-04,  avg # of iterations =  9.8

     total cpu time spent up to now is      577.1 secs

     total energy              =   -2538.03555993 Ry
     Harris-Foulkes estimate   =   -2538.12278181 Ry
     estimated scf accuracy    <       0.21805428 Ry

     iteration #  5     ecut=   100.00 Ry     beta=0.50
     Davidson diagonalization with overlap
     ethr =  4.70E-05,  avg # of iterations =  7.0

     total cpu time spent up to now is      683.4 secs

     total energy              =   -2538.07524010 Ry
     Harris-Foulkes estimate   =   -2538.10120857 Ry
     estimated scf accuracy    <       0.07404057 Ry

     iteration #  6     ecut=   100.00 Ry     beta=0.50
     Davidson diagonalization with overlap
     c_bands:  1 eigenvalues not converged
     ethr =  1.60E-05,  avg # of iterations =  7.6

     total cpu time spent up to now is      785.3 secs

     total energy              =   -2538.09001106 Ry
     Harris-Foulkes estimate   =   -2538.09269684 Ry
     estimated scf accuracy    <       0.00775344 Ry

     iteration #  7     ecut=   100.00 Ry     beta=0.50
     Davidson diagonalization with overlap
     ethr =  1.67E-06,  avg # of iterations =  9.4

     total cpu time spent up to now is      981.3 secs

     total energy              =   -2538.09329222 Ry
     Harris-Foulkes estimate   =   -2538.09393058 Ry
     estimated scf accuracy    <       0.00159152 Ry

     iteration #  8     ecut=   100.00 Ry     beta=0.50
     Davidson diagonalization with overlap
     ethr =  3.43E-07,  avg # of iterations =  2.2

     total cpu time spent up to now is     1071.5 secs

     total energy              =   -2538.09352166 Ry
     Harris-Foulkes estimate   =   -2538.09362470 Ry
     estimated scf accuracy    <       0.00028908 Ry

     iteration #  9     ecut=   100.00 Ry     beta=0.50
     Davidson diagonalization with overlap
     ethr =  6.23E-08,  avg # of iterations =  3.0

     total cpu time spent up to now is     1199.9 secs

     total energy              =   -2538.09359768 Ry
     Harris-Foulkes estimate   =   -2538.09364431 Ry
     estimated scf accuracy    <       0.00013656 Ry

     iteration # 10     ecut=   100.00 Ry     beta=0.50
     Davidson diagonalization with overlap
     ethr =  2.94E-08,  avg # of iterations =  2.0

     total cpu time spent up to now is     1286.2 secs

     total energy              =   -2538.09361176 Ry
     Harris-Foulkes estimate   =   -2538.09362253 Ry
     estimated scf accuracy    <       0.00002859 Ry

     iteration # 11     ecut=   100.00 Ry     beta=0.50
     Davidson diagonalization with overlap
     ethr =  6.16E-09,  avg # of iterations =  3.0

     total cpu time spent up to now is     1413.2 secs

     total energy              =   -2538.09362150 Ry
     Harris-Foulkes estimate   =   -2538.09362265 Ry
     estimated scf accuracy    <       0.00000484 Ry

     iteration # 12     ecut=   100.00 Ry     beta=0.50
     Davidson diagonalization with overlap
     ethr =  1.04E-09,  avg # of iterations =  2.0

     total cpu time spent up to now is     1497.7 secs

     total energy              =   -2538.09362167 Ry
     Harris-Foulkes estimate   =   -2538.09362221 Ry
     estimated scf accuracy    <       0.00000139 Ry

     iteration # 13     ecut=   100.00 Ry     beta=0.50
     Davidson diagonalization with overlap
     ethr =  3.00E-10,  avg # of iterations =  3.6

     total cpu time spent up to now is     1627.8 secs

     total energy              =   -2538.09362209 Ry
     Harris-Foulkes estimate   =   -2538.09362224 Ry
     estimated scf accuracy    <       0.00000045 Ry

     iteration # 14     ecut=   100.00 Ry     beta=0.50
     Davidson diagonalization with overlap
     ethr =  9.80E-11,  avg # of iterations =  2.0

     total cpu time spent up to now is     1715.1 secs

     total energy              =   -2538.09362215 Ry
     Harris-Foulkes estimate   =   -2538.09362219 Ry
     estimated scf accuracy    <       0.00000010 Ry

     iteration # 15     ecut=   100.00 Ry     beta=0.50
     Davidson diagonalization with overlap
     ethr =  2.18E-11,  avg # of iterations =  3.0

     total cpu time spent up to now is     1818.9 secs

     total energy              =   -2538.09362217 Ry
     Harris-Foulkes estimate   =   -2538.09362218 Ry
     estimated scf accuracy    <       0.00000002 Ry

     iteration # 16     ecut=   100.00 Ry     beta=0.50
     Davidson diagonalization with overlap
     ethr =  4.13E-12,  avg # of iterations =  3.0

     total cpu time spent up to now is     1918.7 secs

     End of self-consistent calculation

          k = 0.0000 0.0000 0.0000 (138951 PWs)   bands (ev):

   -23.5251 -23.5244 -23.5187 -23.5179 -23.4098 -23.4086 -23.4085 -23.4075
   -23.3426 -23.3415 -23.3412 -23.3400 -19.0506 -19.0432 -19.0285 -19.0261
   -18.9307 -18.9299 -18.9275 -18.9215 -18.8670 -18.8647 -18.8536 -18.8524
   -18.6459 -18.6386 -18.6118 -18.6109 -18.4760 -18.4618 -18.4504 -18.4476
   -17.2276 -17.2230 -17.2156 -17.2129 -16.5231 -16.5221 -16.4928 -16.4889
   -14.8257 -14.8170 -14.7554 -14.7542 -13.4084 -13.4078 -13.4037 -13.4032
   -13.2557 -13.2551 -13.2547 -13.2494 -11.7271 -11.7141 -11.7011 -11.6866
   -10.9315 -10.9272 -10.9243 -10.9045  -9.9894  -9.9795  -9.9550  -9.9422
    -9.3391  -9.3373  -9.3246  -9.2871  -8.8667  -8.8571  -8.8195  -8.8097
    -7.5987  -7.5309  -7.5198  -7.5186  -7.4847  -7.4799  -7.4143  -7.3362
    -7.0746  -7.0224  -6.9674  -6.9153  -6.8734  -6.8666  -6.7096  -6.7036
    -6.6487  -6.5485  -6.5374  -6.4895  -6.4848  -6.4731  -6.4558  -6.4171
    -6.3065  -6.2918  -6.2404  -6.2224  -6.1696  -6.1618  -6.0170  -5.9834
    -5.9804  -5.8825  -5.8767  -5.8493  -5.7684  -5.7482  -5.7351  -5.7299
    -5.6709  -5.6335  -5.6180  -5.6151  -5.5677  -5.5478  -5.5427  -5.5094
    -5.4953  -5.4899  -5.4758  -5.4410  -5.2418  -5.1782  -5.1250  -5.1007
    -5.0852  -5.0715  -5.0286  -4.9697  -4.8205  -4.7993  -4.7585  -4.7374
    -4.4930  -4.4737  -4.4645  -4.4532  -4.3836  -4.3612  -4.2865  -4.2862
    -4.1341  -4.0996  -4.0304  -3.9600  -3.4700  -3.4350  -3.2367  -3.2367
    -3.2214  -3.1758  -3.1674  -3.1075  -3.0492  -3.0446  -2.9886  -2.9213
    -2.6692  -2.5766  -2.5477  -2.5203  -2.4289  -2.3799  -2.3363  -2.2884
    -2.1705  -2.1542  -2.1520  -2.1290  -1.9949  -1.9475  -1.9030  -1.8812
    -1.1082  -1.0624  -0.9712  -0.9090  -0.7594  -0.7187  -0.6934  -0.6576
    -0.5571  -0.5147  -0.4834  -0.4662  -0.4638  -0.4432  -0.3977  -0.3968
    -0.3562  -0.3421  -0.3318  -0.3122  -0.3107  -0.2878  -0.2524  -0.2320
    -0.1622  -0.1567  -0.1482  -0.1184   0.1969   0.1986   0.2766   0.3000
     0.3532   0.3810   0.4316   0.4560   0.4602   0.5262   0.5365   0.5616
     0.9338   0.9437   0.9495   0.9666   1.2030   1.2451   1.2659   1.3152
     1.3252   1.3253   1.3427   1.3548   1.4598   1.4714   1.4814   1.4934
     3.6303   3.6428   3.7502   3.7860   3.8183   3.8347   3.9234   3.9652
     4.1424   4.1802   4.3174   4.3259   6.2027   6.2318   6.3635   6.3733
     6.6596   6.6691   6.6777   6.7107   7.1726   7.3079   7.7030   7.9154
     7.9161   8.0628   8.2154   8.2961   8.3932   8.4266   8.5489   8.5574
     8.6307   8.6911   8.6951   8.7897   9.0932   9.1690   9.2120   9.2672
     9.3333   9.3422   9.3644   9.4163   9.4524   9.5174

          k = 0.0000 0.3376 0.0000 (138984 PWs)   bands (ev):

   -23.5243 -23.5235 -23.5183 -23.5175 -23.4100 -23.4091 -23.4085 -23.4077
   -23.3427 -23.3418 -23.3417 -23.3408 -19.0506 -19.0470 -19.0265 -19.0251
   -18.9325 -18.9321 -18.9254 -18.9228 -18.8652 -18.8637 -18.8547 -18.8537
   -18.6411 -18.6370 -18.6144 -18.6135 -18.4700 -18.4579 -18.4574 -18.4503
   -17.2251 -17.2225 -17.2144 -17.2127 -16.5156 -16.5138 -16.5004 -16.4972
   -14.8316 -14.8275 -14.7480 -14.7471 -13.4141 -13.4140 -13.3949 -13.3943
   -13.2575 -13.2563 -13.2507 -13.2487 -11.7205 -11.7094 -11.7074 -11.6957
   -10.9421 -10.9379 -10.9175 -10.9097 -10.0057 -10.0003  -9.9311  -9.9251
    -9.3407  -9.3402  -9.2963  -9.2778  -8.8685  -8.8585  -8.8402  -8.8397
    -7.6356  -7.6096  -7.5416  -7.5271  -7.4074  -7.4019  -7.3270  -7.2952
    -7.0962  -7.0786  -6.9554  -6.9427  -6.8769  -6.8399  -6.7080  -6.6841
    -6.6146  -6.6019  -6.5609  -6.5280  -6.4458  -6.4327  -6.3981  -6.3682
    -6.3462  -6.3453  -6.2848  -6.2537  -6.0823  -6.0625  -6.0287  -6.0262
    -5.9280  -5.9250  -5.9058  -5.8574  -5.7990  -5.7743  -5.7539  -5.7144
    -5.6590  -5.6562  -5.6226  -5.6103  -5.5754  -5.5492  -5.5128  -5.4988
    -5.4700  -5.4632  -5.4564  -5.4426  -5.2378  -5.1866  -5.1791  -5.1650
    -5.0854  -5.0582  -5.0237  -4.9788  -4.7975  -4.7892  -4.7560  -4.7382
    -4.5868  -4.5787  -4.4751  -4.4582  -4.3815  -4.3525  -4.3259  -4.2726
    -4.0692  -4.0201  -4.0169  -3.9606  -3.4168  -3.4155  -3.3017  -3.2963
    -3.2170  -3.2164  -3.1400  -3.1072  -3.0818  -3.0241  -3.0133  -2.9746
    -2.6162  -2.5791  -2.5256  -2.4937  -2.4102  -2.3966  -2.3428  -2.3042
    -2.1741  -2.1650  -2.1618  -2.1552  -1.9557  -1.8968  -1.8937  -1.8792
    -1.0391  -1.0150  -0.9665  -0.9331  -0.7635  -0.7520  -0.6716  -0.6571
    -0.5244  -0.5032  -0.4755  -0.4626  -0.4544  -0.4510  -0.4178  -0.4035
    -0.3917  -0.3863  -0.3363  -0.3329  -0.3151  -0.3145  -0.2397  -0.2293
    -0.1655  -0.1527  -0.1261  -0.1042   0.1926   0.2021   0.2964   0.3027
     0.3724   0.4056   0.4369   0.4457   0.4706   0.5255   0.5389   0.5408
     0.9307   0.9337   0.9678   0.9777   1.2088   1.2332   1.2719   1.2987
     1.3359   1.3436   1.3993   1.4048   1.4162   1.4354   1.4784   1.4912
     3.5876   3.5906   3.7593   3.7603   3.8756   3.8878   3.9138   3.9198
     4.1771   4.2159   4.2681   4.2886   6.2175   6.2369   6.3149   6.3153
     6.5507   6.5512   6.7799   6.7905   7.3927   7.5572   7.7802   7.8050
     7.9812   8.1497   8.2477   8.2639   8.3464   8.3577   8.4201   8.4353
     8.5728   8.6551   8.6808   8.8050   8.9250   9.1075   9.2743   9.2841
     9.3119   9.3314   9.3791   9.4275   9.5063   9.5352

          k = 0.3333 0.0000 0.0179 (138857 PWs)   bands (ev):

   -23.5234 -23.5227 -23.5202 -23.5194 -23.4087 -23.4080 -23.4077 -23.4071
   -23.3432 -23.3422 -23.3421 -23.3411 -19.0509 -19.0440 -19.0290 -19.0272
   -18.9390 -18.9349 -18.9205 -18.9151 -18.8778 -18.8747 -18.8484 -18.8445
   -18.6414 -18.6342 -18.6117 -18.6106 -18.4760 -18.4616 -18.4499 -18.4470
   -17.2266 -17.2202 -17.2115 -17.2110 -16.5229 -16.5216 -16.4983 -16.4941
   -14.8250 -14.8171 -14.7597 -14.7570 -13.4047 -13.4015 -13.4006 -13.3991
   -13.2702 -13.2632 -13.2457 -13.2415 -11.7221 -11.7209 -11.6942 -11.6900
   -10.9527 -10.9511 -10.9062 -10.8909 -10.0154 -10.0036  -9.9392  -9.9262
    -9.3697  -9.3436  -9.3002  -9.2537  -8.8748  -8.8656  -8.8300  -8.7952
    -7.5520  -7.5273  -7.5034  -7.4837  -7.4231  -7.4202  -7.3861  -7.3466
    -7.0780  -7.0658  -7.0068  -6.9476  -6.9157  -6.8079  -6.7335  -6.7326
    -6.6404  -6.6082  -6.5742  -6.5283  -6.4978  -6.4609  -6.4562  -6.4453
    -6.3230  -6.2750  -6.2657  -6.2246  -6.1424  -6.0464  -5.9964  -5.9944
    -5.9438  -5.8649  -5.8582  -5.8412  -5.8048  -5.7778  -5.7423  -5.7218
    -5.6978  -5.6651  -5.6189  -5.6002  -5.5812  -5.5794  -5.5395  -5.5108
    -5.5033  -5.4988  -5.4635  -5.4548  -5.2510  -5.2220  -5.1972  -5.1295
    -5.0432  -5.0320  -5.0230  -4.9581  -4.8195  -4.8024  -4.7715  -4.7577
    -4.5046  -4.4723  -4.4556  -4.4374  -4.4014  -4.3754  -4.2853  -4.2365
    -4.1400  -4.0585  -3.9712  -3.9693  -3.5019  -3.4593  -3.2163  -3.2155
    -3.1949  -3.1764  -3.1540  -3.1229  -3.0371  -3.0298  -3.0110  -2.9044
    -2.5842  -2.5726  -2.5664  -2.5153  -2.4728  -2.3435  -2.3313  -2.2829
    -2.1759  -2.1709  -2.1517  -2.1512  -1.9740  -1.9669  -1.9159  -1.8313
    -1.0957  -1.0639  -0.9578  -0.8951  -0.7475  -0.7256  -0.7052  -0.6953
    -0.5143  -0.5109  -0.4952  -0.4517  -0.4496  -0.4339  -0.4000  -0.3972
    -0.3598  -0.3367  -0.3343  -0.3224  -0.3070  -0.2901  -0.2608  -0.2420
    -0.2282  -0.2189  -0.1569  -0.1150   0.1886   0.1897   0.2837   0.3056
     0.3680   0.3858   0.3886   0.4324   0.5034   0.5051   0.5573   0.5631
     0.9205   0.9336   0.9569   0.9573   1.2229   1.2435   1.2637   1.2943
     1.3014   1.3140   1.3360   1.3816   1.4502   1.4777   1.4926   1.5062
     3.6385   3.6582   3.7632   3.7836   3.8332   3.8380   3.9580   3.9945
     4.1578   4.1732   4.3223   4.3407   6.1709   6.1815   6.2992   6.3063
     6.6662   6.6742   6.6783   6.7014   7.3026   7.4452   7.7360   7.7698
     7.8082   8.1416   8.1500   8.1703   8.2890   8.3362   8.3497   8.5180
     8.7433   8.7978   8.9328   8.9548   9.0800   9.1276   9.2012   9.2529
     9.3782   9.4122   9.4282   9.5114   9.5194   9.5512

          k = 0.3333 0.3376 0.0179 (138930 PWs)   bands (ev):

   -23.5227 -23.5222 -23.5199 -23.5189 -23.4088 -23.4080 -23.4079 -23.4071
   -23.3438 -23.3427 -23.3424 -23.3418 -19.0520 -19.0488 -19.0261 -19.0237
   -18.9430 -18.9406 -18.9192 -18.9172 -18.8706 -18.8659 -18.8531 -18.8488
   -18.6411 -18.6369 -18.6112 -18.6086 -18.4705 -18.4585 -18.4563 -18.4482
   -17.2227 -17.2177 -17.2140 -17.2106 -16.5169 -16.5149 -16.5046 -16.5011
   -14.8299 -14.8256 -14.7524 -14.7505 -13.4139 -13.4117 -13.3928 -13.3907
   -13.2662 -13.2615 -13.2462 -13.2432 -11.7173 -11.7146 -11.7026 -11.6987
   -10.9491 -10.9292 -10.9160 -10.9013 -10.0150  -9.9997  -9.9481  -9.9289
    -9.3517  -9.3191  -9.3060  -9.2622  -8.8758  -8.8665  -8.8502  -8.8313
    -7.5762  -7.5549  -7.5138  -7.4791  -7.4374  -7.4122  -7.3625  -7.3552
    -7.0619  -7.0476  -6.9858  -6.9514  -6.9003  -6.8220  -6.7359  -6.7079
    -6.6084  -6.5773  -6.5542  -6.5211  -6.4993  -6.4358  -6.4172  -6.4146
    -6.3443  -6.2892  -6.2433  -6.2231  -6.0789  -6.0639  -6.0321  -6.0109
    -5.9422  -5.8980  -5.8675  -5.8473  -5.8123  -5.7945  -5.7569  -5.7365
    -5.6998  -5.6435  -5.6228  -5.6088  -5.5945  -5.5563  -5.5285  -5.5025
    -5.4878  -5.4840  -5.4604  -5.4290  -5.2983  -5.2735  -5.1532  -5.1290
    -5.0716  -5.0593  -5.0110  -4.9795  -4.8174  -4.8080  -4.7619  -4.7477
    -4.5724  -4.5532  -4.4700  -4.4455  -4.3890  -4.3667  -4.3000  -4.2549
    -4.0756  -4.0213  -3.9873  -3.9723  -3.4356  -3.4187  -3.2887  -3.2699
    -3.2042  -3.1837  -3.1183  -3.1148  -3.0684  -3.0291  -3.0187  -2.9532
    -2.6434  -2.6412  -2.5203  -2.4832  -2.4492  -2.3738  -2.3195  -2.3116
    -2.1559  -2.1541  -2.1349  -2.1246  -1.9383  -1.9232  -1.8986  -1.8635
    -1.0245  -1.0038  -0.9612  -0.9264  -0.7480  -0.7379  -0.7019  -0.6817
    -0.4987  -0.4961  -0.4752  -0.4577  -0.4442  -0.4345  -0.4095  -0.4003
    -0.3871  -0.3620  -0.3453  -0.3367  -0.3199  -0.3147  -0.2519  -0.2437
    -0.2354  -0.2183  -0.1314  -0.1065   0.1851   0.1973   0.3017   0.3146
     0.3549   0.3782   0.4019   0.4266   0.4861   0.5272   0.5517   0.5665
     0.9272   0.9419   0.9543   0.9643   1.2209   1.2438   1.2816   1.2956
     1.3341   1.3552   1.3847   1.4052   1.4183   1.4315   1.4768   1.4950
     3.6095   3.6137   3.7511   3.7698   3.8841   3.9045   3.9372   3.9461
     4.1801   4.2096   4.2774   4.3038   6.1810   6.1877   6.2572   6.2668
     6.5355   6.5523   6.7882   6.7992   7.3641   7.5376   7.7262   7.8712
     7.9018   7.9641   8.1327   8.2794   8.3345   8.4339   8.4549   8.5994
     8.6691   8.7984   8.8565   8.9509   8.9994   9.0817   9.2322   9.2346
     9.3168   9.3660   9.3862   9.4512   9.4974   9.5419

          k =-0.3333 0.3376-0.0179 (138930 PWs)   bands (ev):

   -23.5229 -23.5219 -23.5197 -23.5191 -23.4087 -23.4082 -23.4078 -23.4072
   -23.3435 -23.3428 -23.3428 -23.3415 -19.0521 -19.0486 -19.0258 -19.0240
   -18.9432 -18.9403 -18.9193 -18.9170 -18.8713 -18.8652 -18.8525 -18.8493
   -18.6413 -18.6367 -18.6109 -18.6090 -18.4705 -18.4584 -18.4564 -18.4481
   -17.2226 -17.2181 -17.2131 -17.2111 -16.5169 -16.5148 -16.5046 -16.5011
   -14.8298 -14.8257 -14.7524 -14.7506 -13.4138 -13.4117 -13.3927 -13.3908
   -13.2661 -13.2616 -13.2462 -13.2431 -11.7172 -11.7148 -11.7025 -11.6988
   -10.9489 -10.9295 -10.9161 -10.9011 -10.0149 -10.0000  -9.9480  -9.9289
    -9.3517  -9.3192  -9.3060  -9.2622  -8.8759  -8.8664  -8.8502  -8.8313
    -7.5759  -7.5552  -7.5141  -7.4790  -7.4372  -7.4120  -7.3623  -7.3553
    -7.0620  -7.0472  -6.9860  -6.9512  -6.9000  -6.8224  -6.7364  -6.7074
    -6.6085  -6.5774  -6.5541  -6.5215  -6.4993  -6.4356  -6.4172  -6.4145
    -6.3441  -6.2895  -6.2435  -6.2228  -6.0791  -6.0637  -6.0321  -6.0109
    -5.9419  -5.8983  -5.8673  -5.8475  -5.8127  -5.7940  -5.7570  -5.7369
    -5.6997  -5.6432  -5.6227  -5.6088  -5.5945  -5.5565  -5.5287  -5.5026
    -5.4876  -5.4838  -5.4605  -5.4288  -5.2985  -5.2733  -5.1536  -5.1286
    -5.0714  -5.0593  -5.0111  -4.9795  -4.8175  -4.8080  -4.7620  -4.7476
    -4.5725  -4.5530  -4.4698  -4.4457  -4.3893  -4.3664  -4.2999  -4.2551
    -4.0756  -4.0212  -3.9874  -3.9722  -3.4356  -3.4187  -3.2889  -3.2696
    -3.2040  -3.1839  -3.1184  -3.1146  -3.0686  -3.0287  -3.0189  -2.9533
    -2.6435  -2.6411  -2.5201  -2.4834  -2.4493  -2.3738  -2.3195  -2.3116
    -2.1555  -2.1539  -2.1352  -2.1249  -1.9382  -1.9233  -1.8986  -1.8636
    -1.0244  -1.0037  -0.9612  -0.9265  -0.7481  -0.7378  -0.7017  -0.6819
    -0.4987  -0.4960  -0.4752  -0.4575  -0.4441  -0.4346  -0.4098  -0.4002
    -0.3870  -0.3620  -0.3451  -0.3368  -0.3199  -0.3148  -0.2521  -0.2435
    -0.2354  -0.2184  -0.1314  -0.1065   0.1850   0.1973   0.3020   0.3144
     0.3549   0.3781   0.4022   0.4265   0.4864   0.5268   0.5518   0.5666
     0.9271   0.9420   0.9543   0.9643   1.2209   1.2438   1.2816   1.2955
     1.3342   1.3551   1.3848   1.4054   1.4185   1.4311   1.4768   1.4950
     3.6100   3.6132   3.7512   3.7698   3.8840   3.9046   3.9368   3.9465
     4.1802   4.2096   4.2774   4.3036   6.1813   6.1872   6.2578   6.2663
     6.5357   6.5522   6.7880   6.7994   7.3644   7.5379   7.7254   7.8711
     7.9020   7.9642   8.1327   8.2792   8.3344   8.4339   8.4548   8.5997
     8.6691   8.7981   8.8569   8.9520   8.9988   9.0818   9.2315   9.2349
     9.3172   9.3659   9.3860   9.4514   9.4976   9.5414

     highest occupied, lowest unoccupied level (ev):     1.5062    3.5876

!    total energy              =   -2538.09362218 Ry
     Harris-Foulkes estimate   =   -2538.09362218 Ry
     estimated scf accuracy    <          3.9E-09 Ry

     total all-electron energy =     -9495.621256 Ry

     The total energy is the sum of the following terms:

     one-electron contribution =   -1341.51297357 Ry
     hartree contribution      =     863.81155803 Ry
     xc contribution           =    -508.63937422 Ry
     ewald contribution        =    -868.10265339 Ry
     Dispersion Correction     =      -0.59785898 Ry
     one-center paw contrib.   =    -683.05232004 Ry

     convergence has been achieved in  16 iterations

     Forces acting on atoms (cartesian axes, Ry/au):

     atom    1 type  1   force =    -0.00058280    0.00080988    0.00012619
     atom    2 type  1   force =     0.00058155    0.00084306    0.00003419
     atom    3 type  1   force =     0.00058280   -0.00080988   -0.00012619
     atom    4 type  1   force =    -0.00058155   -0.00084306   -0.00003419
     atom    5 type  1   force =    -0.00040439    0.00068576    0.00073462
     atom    6 type  1   force =     0.00040809    0.00062838   -0.00099341
     atom    7 type  1   force =     0.00040439   -0.00068576   -0.00073462
     atom    8 type  1   force =    -0.00040809   -0.00062838    0.00099341
     atom    9 type  1   force =     0.00013484   -0.00125054   -0.00118272
     atom   10 type  1   force =    -0.00009255   -0.00119163    0.00128485
     atom   11 type  1   force =    -0.00013484    0.00125054    0.00118272
     atom   12 type  1   force =     0.00009255    0.00119163   -0.00128485
     atom   13 type  1   force =     0.00024154    0.00084287   -0.00056346
     atom   14 type  1   force =    -0.00034036    0.00085288    0.00032454
     atom   15 type  1   force =    -0.00024154   -0.00084287    0.00056346
     atom   16 type  1   force =     0.00034036   -0.00085288   -0.00032454
     atom   17 type  1   force =    -0.00027737   -0.00056326    0.00078389
     atom   18 type  1   force =     0.00049993   -0.00078757   -0.00052920
     atom   19 type  1   force =     0.00027737    0.00056326   -0.00078389
     atom   20 type  1   force =    -0.00049993    0.00078757    0.00052920
     atom   21 type  1   force =    -0.00102242    0.00032564   -0.00033063
     atom   22 type  1   force =     0.00082006    0.00035255   -0.00000033
     atom   23 type  1   force =     0.00102242   -0.00032564    0.00033063
     atom   24 type  1   force =    -0.00082006   -0.00035255    0.00000033
     atom   25 type  3   force =     0.00045871   -0.00027265   -0.00041705
     atom   26 type  3   force =    -0.00038903   -0.00031123    0.00042369
     atom   27 type  3   force =    -0.00045871    0.00027265    0.00041705
     atom   28 type  3   force =     0.00038903    0.00031123   -0.00042369
     atom   29 type  2   force =    -0.00052066   -0.00120912   -0.00141563
     atom   30 type  2   force =     0.00055084   -0.00117184    0.00149579
     atom   31 type  2   force =     0.00052066    0.00120912    0.00141563
     atom   32 type  2   force =    -0.00055084    0.00117184   -0.00149579
     atom   33 type  2   force =     0.00101153   -0.00151941   -0.00031132
     atom   34 type  2   force =    -0.00071716   -0.00112801    0.00075541
     atom   35 type  2   force =    -0.00101153    0.00151941    0.00031132
     atom   36 type  2   force =     0.00071716    0.00112801   -0.00075541
     atom   37 type  2   force =     0.00029022   -0.00030250   -0.00071481
     atom   38 type  2   force =    -0.00056128   -0.00021920    0.00068724
     atom   39 type  2   force =    -0.00029022    0.00030250    0.00071481
     atom   40 type  2   force =     0.00056128    0.00021920   -0.00068724
     atom   41 type  4   force =     0.00015050    0.00123743    0.00037358
     atom   42 type  4   force =    -0.00016212    0.00125894   -0.00037710
     atom   43 type  4   force =    -0.00015050   -0.00123743   -0.00037358
     atom   44 type  4   force =     0.00016212   -0.00125894    0.00037710
     atom   45 type  4   force =     0.00058227   -0.00073897    0.00086136
     atom   46 type  4   force =    -0.00058642   -0.00077884   -0.00091593
     atom   47 type  4   force =    -0.00058227    0.00073897   -0.00086136
     atom   48 type  4   force =     0.00058642    0.00077884    0.00091593
     atom   49 type  4   force =     0.00006248    0.00052868    0.00079269
     atom   50 type  4   force =    -0.00008313    0.00022512   -0.00104757
     atom   51 type  4   force =    -0.00006248   -0.00052868   -0.00079269
     atom   52 type  4   force =     0.00008313   -0.00022512    0.00104757
     atom   53 type  4   force =    -0.00057842    0.00175457   -0.00008277
     atom   54 type  4   force =     0.00029945    0.00165947   -0.00008273
     atom   55 type  4   force =     0.00057842   -0.00175457    0.00008277
     atom   56 type  4   force =    -0.00029945   -0.00165947    0.00008273
     atom   57 type  4   force =     0.00011139    0.00049497   -0.00000437
     atom   58 type  4   force =     0.00006205    0.00042528    0.00000854
     atom   59 type  4   force =    -0.00011139   -0.00049497    0.00000437
     atom   60 type  4   force =    -0.00006205   -0.00042528   -0.00000854
     atom   61 type  4   force =     0.00033844   -0.00078899   -0.00048553
     atom   62 type  4   force =    -0.00028057   -0.00081005    0.00050090
     atom   63 type  4   force =    -0.00033844    0.00078899    0.00048553
     atom   64 type  4   force =     0.00028057    0.00081005   -0.00050090
     atom   65 type  4   force =    -0.00020949    0.00043440    0.00105259
     atom   66 type  4   force =     0.00018378    0.00045444   -0.00090751
     atom   67 type  4   force =     0.00020949   -0.00043440   -0.00105259
     atom   68 type  4   force =    -0.00018378   -0.00045444    0.00090751
     atom   69 type  4   force =     0.00033102   -0.00022624    0.00029806
     atom   70 type  4   force =    -0.00028561   -0.00026763   -0.00014753
     atom   71 type  4   force =    -0.00033102    0.00022624   -0.00029806
     atom   72 type  4   force =     0.00028561    0.00026763    0.00014753
     atom   73 type  1   force =    -0.00025395    0.00007774    0.00001984
     atom   74 type  1   force =     0.00025997   -0.00000551    0.00001765
     atom   75 type  1   force =     0.00025395   -0.00007774   -0.00001984
     atom   76 type  1   force =    -0.00025997    0.00000551   -0.00001765
     atom   77 type  3   force =     0.00004396    0.00055497   -0.00017859
     atom   78 type  3   force =    -0.00003952    0.00056911    0.00017591
     atom   79 type  3   force =    -0.00004396   -0.00055497    0.00017859
     atom   80 type  3   force =     0.00003952   -0.00056911   -0.00017591
     atom   81 type  3   force =    -0.00043011   -0.00009612   -0.00010717
     atom   82 type  3   force =     0.00042876   -0.00009302    0.00011309
     atom   83 type  3   force =     0.00043011    0.00009612    0.00010717
     atom   84 type  3   force =    -0.00042876    0.00009302   -0.00011309
     atom   85 type  1   force =     0.00062759   -0.00011692   -0.00085544
     atom   86 type  1   force =    -0.00062441   -0.00017312    0.00084683
     atom   87 type  1   force =    -0.00062759    0.00011692    0.00085544
     atom   88 type  1   force =     0.00062441    0.00017312   -0.00084683
     atom   89 type  3   force =     0.00046529    0.00019777   -0.00029460
     atom   90 type  3   force =    -0.00047759    0.00021722    0.00028859
     atom   91 type  3   force =    -0.00046529   -0.00019777    0.00029460
     atom   92 type  3   force =     0.00047759   -0.00021722   -0.00028859
     atom   93 type  3   force =     0.00012922    0.00019464   -0.00077575
     atom   94 type  3   force =    -0.00012846    0.00021199    0.00078300
     atom   95 type  3   force =    -0.00012922   -0.00019464    0.00077575
     atom   96 type  3   force =     0.00012846   -0.00021199   -0.00078300
     atom   97 type  2   force =     0.00024778   -0.00020777    0.00025352
     atom   98 type  2   force =    -0.00028734   -0.00022091   -0.00027052
     atom   99 type  2   force =    -0.00024778    0.00020777   -0.00025352
     atom  100 type  2   force =     0.00028734    0.00022091    0.00027052
     atom  101 type  3   force =     0.00081376    0.00009402   -0.00053825
     atom  102 type  3   force =    -0.00080456    0.00013850    0.00055095
     atom  103 type  3   force =    -0.00081376   -0.00009402    0.00053825
     atom  104 type  3   force =     0.00080456   -0.00013850   -0.00055095
     atom  105 type  3   force =     0.00000776   -0.00005293   -0.00048420
     atom  106 type  3   force =    -0.00001375   -0.00004227    0.00047229
     atom  107 type  3   force =    -0.00000776    0.00005293    0.00048420
     atom  108 type  3   force =     0.00001375    0.00004227   -0.00047229
     atom  109 type  3   force =    -0.00081418    0.00017393    0.00029530
     atom  110 type  3   force =     0.00084539    0.00017532   -0.00028581
     atom  111 type  3   force =     0.00081418   -0.00017393   -0.00029530
     atom  112 type  3   force =    -0.00084539   -0.00017532    0.00028581
     atom  113 type  2   force =     0.00019244    0.00021439   -0.00003569
     atom  114 type  2   force =    -0.00020150    0.00032049    0.00004195
     atom  115 type  2   force =    -0.00019244   -0.00021439    0.00003569
     atom  116 type  2   force =     0.00020150   -0.00032049   -0.00004195
     atom  117 type  3   force =     0.00028735    0.00017145   -0.00024062
     atom  118 type  3   force =    -0.00031254    0.00011818    0.00023515
     atom  119 type  3   force =    -0.00028735   -0.00017145    0.00024062
     atom  120 type  3   force =     0.00031254   -0.00011818   -0.00023515
     atom  121 type  3   force =    -0.00055282   -0.00028409   -0.00042662
     atom  122 type  3   force =     0.00056144   -0.00029442    0.00041225
     atom  123 type  3   force =     0.00055282    0.00028409    0.00042662
     atom  124 type  3   force =    -0.00056144    0.00029442   -0.00041225
     atom  125 type  3   force =     0.00083176   -0.00008257    0.00074844
     atom  126 type  3   force =    -0.00081720   -0.00008319   -0.00072734
     atom  127 type  3   force =    -0.00083176    0.00008257   -0.00074844
     atom  128 type  3   force =     0.00081720    0.00008319    0.00072734

     Total force =     0.011616     Total SCF correction =     0.000152


     Computing stress (Cartesian axis) and pressure

          total   stress  (Ry/bohr**3)                   (kbar)     P=   -0.06
  -0.00000485  -0.00000009  -0.00000006         -0.71     -0.01     -0.01
  -0.00000009   0.00001090  -0.00000008         -0.01      1.60     -0.01
  -0.00000006  -0.00000008  -0.00000725         -0.01     -0.01     -1.07


     Writing output data file scf.save
 
     init_run     :     56.62s CPU     59.18s WALL (       1 calls)
     electrons    :   1765.49s CPU   1859.02s WALL (       1 calls)
     forces       :     31.67s CPU     32.01s WALL (       1 calls)
     stress       :    215.10s CPU    215.60s WALL (       1 calls)

     Called by init_run:
     wfcinit      :     40.09s CPU     42.41s WALL (       1 calls)
     potinit      :      5.81s CPU      5.87s WALL (       1 calls)

     Called by electrons:
     c_bands      :   1586.98s CPU   1664.44s WALL (      16 calls)
     sum_band     :    160.33s CPU    174.19s WALL (      16 calls)
     v_of_rho     :      2.63s CPU      2.92s WALL (      17 calls)
     newd         :      7.40s CPU      9.22s WALL (      17 calls)
     PAW_pot      :      7.28s CPU      7.28s WALL (      17 calls)
     mix_rho      :      0.66s CPU      0.79s WALL (      16 calls)

     Called by c_bands:
     init_us_2    :      8.86s CPU      8.92s WALL (     175 calls)
     cegterg      :   1542.72s CPU   1620.10s WALL (      80 calls)

     Called by sum_band:
     sum_band:bec :      0.10s CPU      0.10s WALL (      80 calls)
     addusdens    :      7.44s CPU      9.21s WALL (      16 calls)

     Called by *egterg:
     h_psi        :    789.99s CPU    852.55s WALL (     437 calls)
     s_psi        :    157.88s CPU    157.92s WALL (     437 calls)
     g_psi        :      4.30s CPU      4.30s WALL (     352 calls)
     cdiaghg      :    109.03s CPU    109.08s WALL (     432 calls)

     Called by h_psi:
     h_psi:pot    :    783.93s CPU    846.38s WALL (     437 calls)
     h_psi:calbec :    179.83s CPU    180.24s WALL (     437 calls)
     vloc_psi     :    446.56s CPU    508.57s WALL (     437 calls)
     add_vuspsi   :    157.54s CPU    157.57s WALL (     437 calls)

     General routines
     calbec       :    274.05s CPU    274.66s WALL (     542 calls)
     fft          :      8.63s CPU      9.18s WALL (     245 calls)
     fftw         :    479.21s CPU    552.58s WALL (  144510 calls)
 
     Parallel routines
     fft_scatter  :    136.04s CPU    209.02s WALL (  144755 calls)
 
     PWSCF        : 34m40.51s CPU    37m 4.14s WALL

 
   This run was terminated on:  13: 1: 8  13Nov2017            

=------------------------------------------------------------------------------=
   JOB DONE.
=------------------------------------------------------------------------------=
