
     Program PWSCF v.6.1 (svn rev. 13369) starts on 21Dec2017 at 14:47: 0 

     This program is part of the open-source Quantum ESPRESSO suite
     for quantum simulation of materials; please cite
         "P. Giannozzi et al., J. Phys.:Condens. Matter 21 395502 (2009);
          URL http://www.quantum-espresso.org", 
     in publications or presentations arising from this work. More details at
     http://www.quantum-espresso.org/quote

     Parallel version (MPI), running on     8 processors
     R & G space division:  proc/nbgrp/npool/nimage =       8
     Waiting for input...
     Reading input from standard input

     Current dimensions of program PWSCF are:
     Max number of different atomic species (ntypx) = 10
     Max number of k-points (npk) =  40000
     Max angular momentum in pseudopotentials (lmaxx) =  3
               file C.pbe-n-kjpaw_psl.0.1.UPF: wavefunction(s)  2P renormalized
               file N.pbe-n-kjpaw_psl.0.1.UPF: wavefunction(s)  2P renormalized
               file H.pbe-kjpaw_psl.0.1.UPF: wavefunction(s)  1S renormalized
               file O.pbe-n-kjpaw_psl.0.1.UPF: wavefunction(s)  2P renormalized

     -------------------------------------
     Parameters for Dispersion Correction:
     -------------------------------------
       atom      VdW radius       C_6     

        C          2.744         60.710
        N          2.640         42.670
        H          1.892          4.857
        O          2.536         24.284

     Subspace diagonalization in iterative solution of the eigenvalue problem:
     a serial algorithm will be used

 
     Parallelization info
     --------------------
     sticks:   dense  smooth     PW     G-vecs:    dense   smooth      PW
     Min         976     976    260                92619    92619   12636
     Max         977     977    261                92622    92622   12639
     Sum        7815    7815   2081               740969   740969  101105
 


     bravais-lattice index     =            0
     lattice parameter (alat)  =      22.9830  a.u.
     unit-cell volume          =    5485.3628 (a.u.)^3
     number of atoms/cell      =           80
     number of atomic types    =            4
     number of electrons       =       280.00
     number of Kohn-Sham states=          168
     kinetic-energy cutoff     =     100.0000  Ry
     charge density cutoff     =     400.0000  Ry
     convergence threshold     =      1.0E-08
     mixing beta               =       0.5000
     number of iterations used =            8  plain     mixing
     Exchange-correlation      =  SLA  PW   PBX  PBC ( 1  4  3  4 0 0)

     celldm(1)=  22.983038  celldm(2)=   0.000000  celldm(3)=   0.000000
     celldm(4)=   0.000000  celldm(5)=   0.000000  celldm(6)=   0.000000

     crystal axes: (cart. coord. in units of alat)
               a(1) = (   1.000000   0.000000   0.000000 )  
               a(2) = (   0.000000   0.465101   0.000000 )  
               a(3) = (  -0.200089   0.000000   0.971485 )  

     reciprocal axes: (cart. coord. in units 2 pi/alat)
               b(1) = (  1.000000  0.000000  0.205962 )  
               b(2) = (  0.000000  2.150072  0.000000 )  
               b(3) = (  0.000000  0.000000  1.029352 )  


     PseudoPot. # 1 for  C read from file:
     /scratch/ahofstet/pseudo/C.pbe-n-kjpaw_psl.0.1.UPF
     MD5 check sum: 430fe95172b1e11ef3f8ed03bac87931
     Pseudo is Projector augmented-wave + core cor, Zval =  4.0
     Generated using "atomic" code by A. Dal Corso  v.5.0.99 svn rev. 10869
     Shape of augmentation charge: BESSEL
     Using radial grid of 1073 points,  4 beta functions with: 
                l(1) =   0
                l(2) =   0
                l(3) =   1
                l(4) =   1
     Q(r) pseudized with 0 coefficients 


     PseudoPot. # 2 for  N read from file:
     /scratch/ahofstet/pseudo/N.pbe-n-kjpaw_psl.0.1.UPF
     MD5 check sum: f73187c8b701007e77325f868c9291d7
     Pseudo is Projector augmented-wave + core cor, Zval =  5.0
     Generated using "atomic" code by A. Dal Corso  v.5.0.99 svn rev. 10869
     Shape of augmentation charge: PSQ
     Using radial grid of 1085 points,  4 beta functions with: 
                l(1) =   0
                l(2) =   0
                l(3) =   1
                l(4) =   1
     Q(r) pseudized with 0 coefficients 


     PseudoPot. # 3 for  H read from file:
     /scratch/ahofstet/pseudo/H.pbe-kjpaw_psl.0.1.UPF
     MD5 check sum: 94e484f906d9e9773b2f6e52662335b2
     Pseudo is Projector augmented-wave, Zval =  1.0
     Generated using "atomic" code by A. Dal Corso  v.5.0.99 svn rev. 10869
     Shape of augmentation charge: PSQ
     Using radial grid of  929 points,  2 beta functions with: 
                l(1) =   0
                l(2) =   0
     Q(r) pseudized with 0 coefficients 


     PseudoPot. # 4 for  O read from file:
     /scratch/ahofstet/pseudo/O.pbe-n-kjpaw_psl.0.1.UPF
     MD5 check sum: 3f94a2996a3169367d6eb21d9b593f20
     Pseudo is Projector augmented-wave + core cor, Zval =  6.0
     Generated using "atomic" code by A. Dal Corso  v.5.0.99 svn rev. 10869
     Shape of augmentation charge: BESSEL
     Using radial grid of 1095 points,  4 beta functions with: 
                l(1) =   0
                l(2) =   0
                l(3) =   1
                l(4) =   1
     Q(r) pseudized with 0 coefficients 


     atomic species   valence    mass     pseudopotential
        C              4.00    12.01070      C( 1.00)
        N              5.00    14.00670      N( 1.00)
        H              1.00     1.00794      H( 1.00)
        O              6.00    15.99940      O( 1.00)

      4 Sym. Ops., with inversion, found ( 2 have fractional translation)



   Cartesian axes

     site n.     atom                  positions (alat units)
         1           O   tau(   1) = (   0.0878201   0.2407436   0.4743890  )
         2           O   tau(   2) = (   0.8121355   0.0081933   0.0113536  )
         3           O   tau(   3) = (   0.7120911   0.2243570   0.4970961  )
         4           O   tau(   4) = (  -0.0122243   0.4569073   0.9601315  )
         5           N   tau(   5) = (   0.1734372   0.2534274   0.3955919  )
         6           N   tau(   6) = (   0.7265184   0.0208771   0.0901506  )
         7           N   tau(   7) = (   0.6264740   0.2116732   0.5758931  )
         8           N   tau(   8) = (   0.0733928   0.4442235   0.8813345  )
         9           C   tau(   9) = (   0.1624189   0.1713096   0.3256955  )
        10           C   tau(  10) = (   0.7375367   0.4038599   0.1600471  )
        11           C   tau(  11) = (   0.6374923   0.2937910   0.6457896  )
        12           C   tau(  12) = (   0.0623745   0.0612407   0.8114380  )
        13           C   tau(  13) = (   0.0709804   0.1041493   0.3567629  )
        14           C   tau(  14) = (   0.8289752   0.3366996   0.1289796  )
        15           C   tau(  15) = (   0.7289308   0.3609513   0.6147221  )
        16           C   tau(  16) = (  -0.0290640   0.1284010   0.8425055  )
        17           C   tau(  17) = (   0.0286365   0.1523760   0.4497062  )
        18           C   tau(  18) = (   0.8713191   0.3849263   0.0360363  )
        19           C   tau(  19) = (   0.7712747   0.3127246   0.5217789  )
        20           C   tau(  20) = (  -0.0714079   0.0801743   0.9354487  )
        21           H   tau(  21) = (  -0.0397689   0.1315175   0.5031761  )
        22           H   tau(  22) = (   0.9397245   0.3640678  -0.0174335  )
        23           H   tau(  23) = (   0.8396801   0.3335831   0.4683090  )
        24           H   tau(  24) = (  -0.1398133   0.1010328   0.9889186  )
        25           N   tau(  25) = (   0.0238000   0.0127678   0.2999949  )
        26           N   tau(  26) = (   0.8761556   0.2453181   0.1857476  )
        27           N   tau(  27) = (   0.7761112   0.4523328   0.6714902  )
        28           N   tau(  28) = (  -0.0762444   0.2197825   0.7857375  )
        29           O   tau(  29) = (   0.0664503   0.4484983   0.2124107  )
        30           O   tau(  30) = (   0.8335053   0.2159480   0.2733318  )
        31           O   tau(  31) = (   0.7334609   0.0166023   0.7590743  )
        32           O   tau(  32) = (  -0.0335941   0.2491526   0.6981533  )
        33           O   tau(  33) = (  -0.0595114   0.4350284   0.3406619  )
        34           O   tau(  34) = (   0.9594670   0.2024781   0.1450806  )
        35           O   tau(  35) = (   0.8594226   0.0300722   0.6308232  )
        36           O   tau(  36) = (  -0.1595558   0.2626225   0.8264045  )
        37           C   tau(  37) = (   0.2440187   0.1562895   0.2374036  )
        38           C   tau(  38) = (   0.6559369   0.3888398   0.2483390  )
        39           C   tau(  39) = (   0.5558925   0.3088111   0.7340815  )
        40           C   tau(  40) = (   0.1439743   0.0762608   0.7231461  )
        41           C   tau(  41) = (   0.2560017   0.2344986   0.1537267  )
        42           C   tau(  42) = (   0.6439539   0.0019483   0.3320158  )
        43           C   tau(  43) = (   0.5439095   0.2306020   0.8177584  )
        44           C   tau(  44) = (   0.1559573   0.4631523   0.6394693  )
        45           H   tau(  45) = (   0.2007120   0.3047397   0.1492121  )
        46           H   tau(  46) = (   0.6992436   0.0721894   0.3365304  )
        47           H   tau(  47) = (   0.5991992   0.1603609   0.8222730  )
        48           H   tau(  48) = (   0.1006676   0.3929112   0.6349546  )
        49           C   tau(  49) = (   0.3380211   0.2197483   0.0741859  )
        50           C   tau(  50) = (   0.5619345   0.4522986   0.4115566  )
        51           C   tau(  51) = (   0.4618901   0.2453523   0.8972992  )
        52           C   tau(  52) = (   0.2379767   0.0128020   0.5599285  )
        53           H   tau(  53) = (   0.3458741   0.2803932   0.0086524  )
        54           H   tau(  54) = (   0.5540815   0.0478429   0.4770901  )
        55           H   tau(  55) = (   0.4540371   0.1847074   0.9628326  )
        56           H   tau(  56) = (   0.2458297   0.4172577   0.4943950  )
        57           C   tau(  57) = (   0.4084189   0.1294011   0.0795714  )
        58           C   tau(  58) = (   0.4915367   0.3619514   0.4061711  )
        59           C   tau(  59) = (   0.3914923   0.3356995   0.8919137  )
        60           C   tau(  60) = (   0.3083745   0.1031492   0.5653140  )
        61           H   tau(  61) = (   0.4726510   0.1189502   0.0178288  )
        62           H   tau(  62) = (   0.4273046   0.3515005   0.4679137  )
        63           H   tau(  63) = (   0.3272602   0.3461504   0.9536562  )
        64           H   tau(  64) = (   0.3726066   0.1136001   0.5035714  )
        65           C   tau(  65) = (   0.3965839   0.0516077   0.1635764  )
        66           C   tau(  66) = (   0.5033717   0.2841580   0.3221661  )
        67           C   tau(  67) = (   0.4033273   0.4134929   0.8079087  )
        68           C   tau(  68) = (   0.2965395   0.1809426   0.6493189  )
        69           H   tau(  69) = (   0.4521538   0.4467953   0.1699331  )
        70           H   tau(  70) = (   0.4478018   0.2142450   0.3158094  )
        71           H   tau(  71) = (   0.3477574   0.0183053   0.8015519  )
        72           H   tau(  72) = (   0.3521094   0.2508556   0.6556757  )
        73           C   tau(  73) = (   0.3133622   0.0643470   0.2415107  )
        74           C   tau(  74) = (   0.5865934   0.2968973   0.2442319  )
        75           C   tau(  75) = (   0.4865489   0.4007536   0.7299744  )
        76           C   tau(  76) = (   0.2133178   0.1682033   0.7272532  )
        77           H   tau(  77) = (   0.3035148   0.0029185   0.3060305  )
        78           H   tau(  78) = (   0.5964408   0.2354688   0.1797120  )
        79           H   tau(  79) = (   0.4963963   0.4621821   0.6654545  )
        80           H   tau(  80) = (   0.2034704   0.2296318   0.7917731  )

     number of k points=     8
                       cart. coord. in units 2pi/alat
        k(    1) = (   0.0000000   0.0000000   0.0000000), wk =   0.1666667
        k(    2) = (   0.0000000   0.0000000  -0.5146759), wk =   0.1666667
        k(    3) = (   0.0000000   0.7166908   0.0000000), wk =   0.3333333
        k(    4) = (   0.0000000   0.7166908  -0.5146759), wk =   0.3333333
        k(    5) = (  -0.5000000   0.0000000  -0.1029809), wk =   0.1666667
        k(    6) = (  -0.5000000   0.0000000  -0.6176568), wk =   0.1666667
        k(    7) = (  -0.5000000   0.7166908  -0.1029809), wk =   0.3333333
        k(    8) = (  -0.5000000   0.7166908  -0.6176568), wk =   0.3333333

     Dense  grid:   740969 G-vectors     FFT dimensions: ( 150,  72, 150)

     Estimated max dynamical RAM per process >     662.67MB

     Estimated total allocated dynamical RAM >    5301.33MB

     Check: negative/imaginary core charge=   -0.000002    0.000000

     Initial potential from superposition of free atoms

     starting charge  279.99820, renormalised to  280.00000
     Starting wfc are  248 randomized atomic wfcs
     Checking if some PAW data can be deallocated... 

     total cpu time spent up to now is       42.0 secs

     per-process dynamical memory:   464.5 Mb

     Self-consistent Calculation

     iteration #  1     ecut=   100.00 Ry     beta=0.50
     Davidson diagonalization with overlap
     ethr =  1.00E-02,  avg # of iterations =  3.0

     total cpu time spent up to now is      151.6 secs

     total energy              =   -1415.19122290 Ry
     Harris-Foulkes estimate   =   -1419.50523964 Ry
     estimated scf accuracy    <       8.15296347 Ry

     iteration #  2     ecut=   100.00 Ry     beta=0.50
     Davidson diagonalization with overlap
     ethr =  2.91E-03,  avg # of iterations =  3.0

     total cpu time spent up to now is      215.1 secs

     total energy              =   -1415.54222732 Ry
     Harris-Foulkes estimate   =   -1416.27975437 Ry
     estimated scf accuracy    <       1.44389327 Ry

     iteration #  3     ecut=   100.00 Ry     beta=0.50
     Davidson diagonalization with overlap
     ethr =  5.16E-04,  avg # of iterations =  6.5

     total cpu time spent up to now is      345.8 secs

     total energy              =   -1416.45579221 Ry
     Harris-Foulkes estimate   =   -1416.88664945 Ry
     estimated scf accuracy    <       1.09003372 Ry

     iteration #  4     ecut=   100.00 Ry     beta=0.50
     Davidson diagonalization with overlap
     ethr =  3.89E-04,  avg # of iterations =  1.4

     total cpu time spent up to now is      400.8 secs

     total energy              =   -1416.35915445 Ry
     Harris-Foulkes estimate   =   -1416.53263616 Ry
     estimated scf accuracy    <       0.28458197 Ry

     iteration #  5     ecut=   100.00 Ry     beta=0.50
     Davidson diagonalization with overlap
     ethr =  1.02E-04,  avg # of iterations =  5.8

     total cpu time spent up to now is      512.2 secs

     total energy              =   -1416.56330814 Ry
     Harris-Foulkes estimate   =   -1416.64618420 Ry
     estimated scf accuracy    <       0.24879225 Ry

     iteration #  6     ecut=   100.00 Ry     beta=0.50
     Davidson diagonalization with overlap
     ethr =  8.89E-05,  avg # of iterations =  1.0

     total cpu time spent up to now is      565.9 secs

     total energy              =   -1416.53619156 Ry
     Harris-Foulkes estimate   =   -1416.57428355 Ry
     estimated scf accuracy    <       0.10720025 Ry

     iteration #  7     ecut=   100.00 Ry     beta=0.50
     Davidson diagonalization with overlap
     ethr =  3.83E-05,  avg # of iterations =  4.0

     total cpu time spent up to now is      644.4 secs

     total energy              =   -1416.56215559 Ry
     Harris-Foulkes estimate   =   -1416.56459249 Ry
     estimated scf accuracy    <       0.00466487 Ry

     iteration #  8     ecut=   100.00 Ry     beta=0.50
     Davidson diagonalization with overlap
     ethr =  1.67E-06,  avg # of iterations =  6.6

     total cpu time spent up to now is      771.6 secs

     total energy              =   -1416.56427231 Ry
     Harris-Foulkes estimate   =   -1416.56563582 Ry
     estimated scf accuracy    <       0.00315103 Ry

     iteration #  9     ecut=   100.00 Ry     beta=0.50
     Davidson diagonalization with overlap
     ethr =  1.13E-06,  avg # of iterations =  2.2

     total cpu time spent up to now is      828.6 secs

     total energy              =   -1416.56402497 Ry
     Harris-Foulkes estimate   =   -1416.56445886 Ry
     estimated scf accuracy    <       0.00080008 Ry

     iteration # 10     ecut=   100.00 Ry     beta=0.50
     Davidson diagonalization with overlap
     ethr =  2.86E-07,  avg # of iterations =  4.0

     total cpu time spent up to now is      926.5 secs

     total energy              =   -1416.56466709 Ry
     Harris-Foulkes estimate   =   -1416.56484413 Ry
     estimated scf accuracy    <       0.00044087 Ry

     iteration # 11     ecut=   100.00 Ry     beta=0.50
     Davidson diagonalization with overlap
     ethr =  1.57E-07,  avg # of iterations =  2.0

     total cpu time spent up to now is      982.9 secs

     total energy              =   -1416.56461550 Ry
     Harris-Foulkes estimate   =   -1416.56468555 Ry
     estimated scf accuracy    <       0.00013756 Ry

     iteration # 12     ecut=   100.00 Ry     beta=0.50
     Davidson diagonalization with overlap
     ethr =  4.91E-08,  avg # of iterations =  4.0

     total cpu time spent up to now is     1077.1 secs

     total energy              =   -1416.56469812 Ry
     Harris-Foulkes estimate   =   -1416.56470846 Ry
     estimated scf accuracy    <       0.00002549 Ry

     iteration # 13     ecut=   100.00 Ry     beta=0.50
     Davidson diagonalization with overlap
     ethr =  9.10E-09,  avg # of iterations =  1.4

     total cpu time spent up to now is     1132.3 secs

     total energy              =   -1416.56469527 Ry
     Harris-Foulkes estimate   =   -1416.56469920 Ry
     estimated scf accuracy    <       0.00000823 Ry

     iteration # 14     ecut=   100.00 Ry     beta=0.50
     Davidson diagonalization with overlap
     ethr =  2.94E-09,  avg # of iterations =  4.0

     total cpu time spent up to now is     1227.2 secs

     total energy              =   -1416.56470020 Ry
     Harris-Foulkes estimate   =   -1416.56470078 Ry
     estimated scf accuracy    <       0.00000122 Ry

     iteration # 15     ecut=   100.00 Ry     beta=0.50
     Davidson diagonalization with overlap
     ethr =  4.37E-10,  avg # of iterations =  3.4

     total cpu time spent up to now is     1288.4 secs

     total energy              =   -1416.56470020 Ry
     Harris-Foulkes estimate   =   -1416.56470030 Ry
     estimated scf accuracy    <       0.00000019 Ry

     iteration # 16     ecut=   100.00 Ry     beta=0.50
     Davidson diagonalization with overlap
     ethr =  6.91E-11,  avg # of iterations =  4.0

     total cpu time spent up to now is     1399.6 secs

     total energy              =   -1416.56470042 Ry
     Harris-Foulkes estimate   =   -1416.56470046 Ry
     estimated scf accuracy    <       0.00000015 Ry

     iteration # 17     ecut=   100.00 Ry     beta=0.50
     Davidson diagonalization with overlap
     ethr =  5.23E-11,  avg # of iterations =  1.0

     total cpu time spent up to now is     1454.7 secs

     total energy              =   -1416.56470040 Ry
     Harris-Foulkes estimate   =   -1416.56470043 Ry
     estimated scf accuracy    <       0.00000008 Ry

     iteration # 18     ecut=   100.00 Ry     beta=0.50
     Davidson diagonalization with overlap
     ethr =  2.69E-11,  avg # of iterations =  3.9

     total cpu time spent up to now is     1521.9 secs

     total energy              =   -1416.56470041 Ry
     Harris-Foulkes estimate   =   -1416.56470041 Ry
     estimated scf accuracy    <       0.00000002 Ry

     iteration # 19     ecut=   100.00 Ry     beta=0.50
     Davidson diagonalization with overlap
     ethr =  5.42E-12,  avg # of iterations =  4.8

     total cpu time spent up to now is     1610.9 secs

     End of self-consistent calculation

          k = 0.0000 0.0000 0.0000 ( 92547 PWs)   bands (ev):

   -24.0159 -24.0138 -23.9441 -23.9435 -22.2989 -22.2967 -22.2957 -22.2953
   -19.5313 -19.5260 -19.4716 -19.4678 -15.6961 -15.6928 -15.6899 -15.6890
   -14.3341 -14.3085 -14.2386 -14.2382 -14.2127 -14.2073 -14.1365 -14.1173
   -11.9456 -11.9431 -11.9061 -11.8559 -11.4818 -11.4565 -11.4474 -11.4231
   -11.1791 -11.1680 -11.1224 -11.1197  -8.9853  -8.9474  -8.9344  -8.9167
    -8.4417  -8.3655  -8.3348  -8.3209  -7.8826  -7.8630  -7.8323  -7.8310
    -7.5548  -7.5363  -7.4972  -7.3531  -7.1321  -6.9761  -6.9517  -6.8814
    -6.4229  -6.4110  -6.3976  -6.3824  -6.1867  -6.1226  -6.0949  -5.9230
    -5.8883  -5.7738  -5.6159  -5.6028  -5.1592  -5.1497  -5.1334  -5.1098
    -5.0474  -5.0474  -5.0224  -5.0177  -4.3461  -4.2474  -4.1770  -4.1712
    -4.0952  -4.0799  -4.0738  -4.0550  -3.6329  -3.5795  -3.5201  -3.4494
    -3.2375  -3.2169  -3.1620  -3.1485  -3.0697  -3.0304  -3.0224  -2.9313
    -2.1490  -2.0929  -2.0170  -1.8809  -1.5608  -1.5151  -1.4778  -1.4621
    -1.4391  -1.3439  -1.3154  -1.3097  -1.1417  -1.1338  -1.0448  -1.0438
    -1.0326  -0.9448  -0.9020  -0.8301  -0.7887  -0.7848  -0.7602  -0.6138
    -0.5322  -0.5204  -0.5199  -0.4970  -0.3187  -0.2058  -0.1367  -0.1151
     0.0132   0.0763   0.1337   0.1805   0.3512   0.3892   0.6139   0.7267
     0.7631   0.7949   0.8191   0.8397   3.4655   3.5008   3.5070   3.5451
     4.7308   4.8812   4.9507   5.0001   5.2815   5.5556   5.6655   5.7294
     5.8115   5.8139   5.8254   5.9351   7.1458   7.2286   7.2323   7.2791
     7.5399   7.5418   7.6096   7.6934   7.7993   8.0949   8.2937   8.5621

          k = 0.0000 0.0000-0.5147 ( 92614 PWs)   bands (ev):

   -24.0149 -24.0149 -23.9438 -23.9438 -22.2979 -22.2979 -22.2953 -22.2953
   -19.5288 -19.5288 -19.4696 -19.4696 -15.6945 -15.6945 -15.6894 -15.6894
   -14.3224 -14.3224 -14.2387 -14.2387 -14.2094 -14.2094 -14.1262 -14.1262
   -11.9353 -11.9353 -11.8907 -11.8907 -11.4696 -11.4696 -11.4351 -11.4351
   -11.1637 -11.1637 -11.1302 -11.1302  -8.9726  -8.9726  -8.9233  -8.9233
    -8.4067  -8.4067  -8.3176  -8.3176  -7.8785  -7.8785  -7.8368  -7.8368
    -7.5306  -7.5306  -7.4080  -7.4080  -7.1035  -7.1035  -6.9008  -6.9008
    -6.4172  -6.4172  -6.3864  -6.3864  -6.1564  -6.1564  -5.9998  -5.9998
    -5.8537  -5.8537  -5.5772  -5.5772  -5.2437  -5.2437  -5.0970  -5.0970
    -5.0354  -5.0354  -4.9848  -4.9848  -4.2822  -4.2822  -4.1525  -4.1525
    -4.0956  -4.0956  -4.0732  -4.0732  -3.5824  -3.5824  -3.3882  -3.3882
    -3.3564  -3.3564  -3.2236  -3.2236  -3.0085  -3.0085  -2.9724  -2.9724
    -2.1140  -2.1140  -1.9285  -1.9285  -1.5502  -1.5502  -1.4874  -1.4874
    -1.3711  -1.3711  -1.3225  -1.3225  -1.1447  -1.1447  -1.0504  -1.0504
    -0.9724  -0.9724  -0.8811  -0.8811  -0.7849  -0.7849  -0.6715  -0.6715
    -0.5558  -0.5558  -0.4645  -0.4645  -0.2545  -0.2545  -0.1670  -0.1670
     0.0317   0.0317   0.1667   0.1667   0.4365   0.4365   0.6810   0.6810
     0.7418   0.7418   0.8181   0.8181   3.4785   3.4785   3.5310   3.5310
     4.8249   4.8249   4.9317   4.9317   5.4009   5.4009   5.6636   5.6636
     5.8079   5.8079   5.9632   5.9632   7.1574   7.1574   7.2382   7.2382
     7.5742   7.5742   7.7377   7.7377   7.8264   7.8264   8.3558   8.3558

          k = 0.0000 0.7167 0.0000 ( 92702 PWs)   bands (ev):

   -23.9971 -23.9953 -23.9611 -23.9601 -22.2996 -22.2985 -22.2966 -22.2962
   -19.5162 -19.5113 -19.4864 -19.4822 -15.6941 -15.6930 -15.6901 -15.6887
   -14.3000 -14.2729 -14.2614 -14.2320 -14.2020 -14.1789 -14.1689 -14.1356
   -11.9262 -11.9206 -11.8913 -11.8731 -11.5285 -11.5159 -11.5141 -11.5014
   -11.1628 -11.1522 -11.1255 -11.1203  -8.9564  -8.9271  -8.9226  -8.9062
    -8.4896  -8.4739  -8.3316  -8.3004  -7.9082  -7.8940  -7.8562  -7.8422
    -7.5910  -7.4576  -7.4549  -7.3880  -7.0372  -6.9909  -6.8607  -6.8264
    -6.4702  -6.4661  -6.4529  -6.4510  -6.1332  -6.0334  -5.9844  -5.9618
    -5.8902  -5.8246  -5.6202  -5.6031  -5.2406  -5.2256  -5.0454  -5.0342
    -4.9733  -4.9695  -4.9568  -4.9412  -4.2464  -4.1942  -4.1750  -4.1368
    -4.0824  -4.0637  -4.0489  -4.0161  -3.5761  -3.5371  -3.4891  -3.4593
    -3.3878  -3.3507  -3.2480  -3.1911  -3.0339  -3.0125  -2.9946  -2.9803
    -2.2472  -2.1141  -2.0713  -2.0063  -1.6616  -1.6490  -1.4455  -1.4364
    -1.4223  -1.3510  -1.3383  -1.3271  -1.1656  -1.1291  -1.0716  -1.0292
    -0.9738  -0.9450  -0.9014  -0.8832  -0.7866  -0.7323  -0.7006  -0.6766
    -0.5700  -0.5509  -0.4652  -0.4444  -0.2110  -0.1572  -0.1394  -0.1103
     0.0306   0.0795   0.0952   0.1622   0.5956   0.6553   0.6757   0.6924
     0.7570   0.8086   0.8649   0.9367   3.4006   3.4267   3.4754   3.4973
     4.8760   4.9316   4.9702   4.9962   5.5466   5.5562   5.6188   5.6376
     5.6518   5.8187   5.8513   5.9938   7.1370   7.1562   7.2838   7.2880
     7.5122   7.5835   7.6934   7.7179   8.0377   8.2058   8.2274   8.4071

          k = 0.0000 0.7167-0.5147 ( 92666 PWs)   bands (ev):

   -23.9962 -23.9962 -23.9606 -23.9606 -22.2990 -22.2990 -22.2964 -22.2964
   -19.5139 -19.5139 -19.4841 -19.4841 -15.6931 -15.6931 -15.6898 -15.6898
   -14.2896 -14.2896 -14.2487 -14.2487 -14.1905 -14.1905 -14.1470 -14.1470
   -11.9176 -11.9176 -11.8847 -11.8847 -11.5278 -11.5278 -11.5104 -11.5104
   -11.1549 -11.1549 -11.1209 -11.1209  -8.9442  -8.9442  -8.9104  -8.9104
    -8.4702  -8.4702  -8.3243  -8.3243  -7.9108  -7.9108  -7.8600  -7.8600
    -7.5071  -7.5071  -7.4267  -7.4267  -7.0089  -7.0089  -6.8509  -6.8509
    -6.4704  -6.4704  -6.4487  -6.4487  -6.0683  -6.0683  -5.9502  -5.9502
    -5.8929  -5.8929  -5.6149  -5.6149  -5.2037  -5.2037  -5.0449  -5.0449
    -4.9962  -4.9962  -4.9452  -4.9452  -4.2656  -4.2656  -4.1191  -4.1191
    -4.0617  -4.0617  -4.0373  -4.0373  -3.5589  -3.5589  -3.4534  -3.4534
    -3.3217  -3.3217  -3.2283  -3.2283  -3.1080  -3.1080  -2.9680  -2.9680
    -2.1764  -2.1764  -2.0388  -2.0388  -1.5937  -1.5937  -1.5112  -1.5112
    -1.3890  -1.3890  -1.3361  -1.3361  -1.1301  -1.1301  -1.0371  -1.0371
    -0.9399  -0.9399  -0.9116  -0.9116  -0.7666  -0.7666  -0.6998  -0.6998
    -0.5424  -0.5424  -0.4656  -0.4656  -0.1889  -0.1889  -0.1261  -0.1261
     0.0376   0.0376   0.1445   0.1445   0.6514   0.6514   0.7029   0.7029
     0.7668   0.7668   0.8855   0.8855   3.4159   3.4159   3.4824   3.4824
     4.9260   4.9260   4.9706   4.9706   5.4784   5.4784   5.5786   5.5786
     5.7959   5.7959   5.9800   5.9800   7.1352   7.1352   7.2495   7.2495
     7.6105   7.6105   7.7126   7.7126   8.0701   8.0701   8.3226   8.3226

          k =-0.5000 0.0000-0.1030 ( 92620 PWs)   bands (ev):

   -24.0159 -24.0138 -23.9441 -23.9435 -22.2989 -22.2967 -22.2957 -22.2953
   -19.5313 -19.5260 -19.4716 -19.4678 -15.7009 -15.6960 -15.6866 -15.6841
   -14.3320 -14.3099 -14.2342 -14.2314 -14.2205 -14.2175 -14.1352 -14.1132
   -11.9358 -11.9283 -11.9229 -11.8640 -11.4812 -11.4557 -11.4494 -11.4255
   -11.1666 -11.1601 -11.1389 -11.1198  -8.9994  -8.9341  -8.9300  -8.9203
    -8.4314  -8.3906  -8.3350  -8.3080  -7.8949  -7.8685  -7.8544  -7.7872
    -7.5468  -7.5347  -7.5035  -7.3228  -7.1957  -6.9581  -6.9429  -6.8833
    -6.4215  -6.4115  -6.3972  -6.3855  -6.2220  -6.0658  -6.0338  -6.0332
    -5.7965  -5.7739  -5.6358  -5.6019  -5.2911  -5.1929  -5.1621  -5.0583
    -5.0372  -5.0084  -4.9956  -4.9932  -4.3108  -4.2252  -4.2088  -4.1737
    -4.1020  -4.0902  -4.0705  -4.0488  -3.6778  -3.5300  -3.4876  -3.4686
    -3.2255  -3.2249  -3.1857  -3.1740  -3.0892  -3.0288  -2.9976  -2.9096
    -2.1389  -2.0982  -2.0376  -1.8802  -1.5661  -1.5156  -1.4478  -1.4305
    -1.4273  -1.3428  -1.3392  -1.3135  -1.1168  -1.1138  -1.0845  -1.0713
    -1.0327  -0.9353  -0.8940  -0.8710  -0.8169  -0.7979  -0.7591  -0.5977
    -0.5347  -0.5127  -0.5123  -0.4856  -0.2625  -0.2130  -0.1845  -0.1610
     0.0131   0.0692   0.1513   0.1895   0.4328   0.4383   0.5741   0.7071
     0.7089   0.7821   0.8441   0.8504   3.4589   3.5015   3.5124   3.5490
     4.7934   4.8079   4.9662   4.9713   5.2815   5.5511   5.6867   5.7279
     5.8107   5.8144   5.8184   5.9473   7.1183   7.1533   7.3033   7.3475
     7.5784   7.5922   7.5933   7.7762   7.8157   7.8491   8.1293   8.5653

          k =-0.5000 0.0000-0.6177 ( 92518 PWs)   bands (ev):

   -24.0149 -24.0149 -23.9438 -23.9438 -22.2979 -22.2979 -22.2954 -22.2954
   -19.5288 -19.5288 -19.4696 -19.4696 -15.6989 -15.6989 -15.6849 -15.6849
   -14.3221 -14.3221 -14.2346 -14.2346 -14.2167 -14.2167 -14.1235 -14.1235
   -11.9453 -11.9453 -11.8780 -11.8780 -11.4687 -11.4687 -11.4387 -11.4387
   -11.1744 -11.1744 -11.1194 -11.1194  -8.9772  -8.9772  -8.9186  -8.9186
    -8.4006  -8.4006  -8.3271  -8.3271  -7.8899  -7.8899  -7.8238  -7.8238
    -7.5162  -7.5162  -7.4269  -7.4269  -7.0944  -7.0944  -6.8977  -6.8977
    -6.4168  -6.4168  -6.3871  -6.3871  -6.1314  -6.1314  -6.0419  -6.0419
    -5.8600  -5.8600  -5.5781  -5.5781  -5.1661  -5.1661  -5.1141  -5.1141
    -5.0726  -5.0726  -4.9883  -4.9883  -4.3097  -4.3097  -4.1485  -4.1485
    -4.0831  -4.0831  -4.0662  -4.0662  -3.5497  -3.5497  -3.4114  -3.4114
    -3.3719  -3.3719  -3.2257  -3.2257  -3.0181  -3.0181  -2.9486  -2.9486
    -2.1190  -2.1190  -1.9324  -1.9324  -1.5602  -1.5602  -1.4523  -1.4523
    -1.3820  -1.3820  -1.3095  -1.3095  -1.1370  -1.1370  -1.0684  -1.0684
    -0.9590  -0.9590  -0.8932  -0.8932  -0.7898  -0.7898  -0.7167  -0.7167
    -0.5551  -0.5551  -0.4514  -0.4514  -0.2582  -0.2582  -0.1193  -0.1193
     0.0295   0.0295   0.1745   0.1745   0.3750   0.3750   0.6804   0.6804
     0.7697   0.7697   0.8286   0.8286   3.4814   3.4814   3.5260   3.5260
     4.8466   4.8466   4.9090   4.9090   5.3880   5.3880   5.6687   5.6687
     5.8106   5.8106   5.9656   5.9656   7.1293   7.1293   7.3258   7.3258
     7.5209   7.5209   7.6878   7.6878   8.0240   8.0240   8.0600   8.0600

          k =-0.5000 0.7167-0.1030 ( 92628 PWs)   bands (ev):

   -23.9971 -23.9953 -23.9611 -23.9601 -22.2996 -22.2985 -22.2966 -22.2962
   -19.5162 -19.5113 -19.4864 -19.4822 -15.6966 -15.6931 -15.6900 -15.6863
   -14.3017 -14.2739 -14.2545 -14.2321 -14.2037 -14.1881 -14.1671 -14.1307
   -11.9234 -11.9192 -11.8980 -11.8712 -11.5289 -11.5132 -11.5125 -11.5047
   -11.1566 -11.1557 -11.1300 -11.1183  -8.9677  -8.9269  -8.9107  -8.9094
    -8.4700  -8.4660  -8.3313  -8.3295  -7.9175  -7.8819  -7.8610  -7.8376
    -7.5826  -7.4608  -7.4409  -7.4042  -7.0581  -6.9781  -6.8612  -6.8269
    -6.4688  -6.4655  -6.4514  -6.4509  -6.1163  -6.0842  -5.9712  -5.9201
    -5.9064  -5.8177  -5.6277  -5.6054  -5.2675  -5.1346  -5.0871  -5.0326
    -5.0044  -4.9791  -4.9363  -4.9308  -4.2914  -4.2640  -4.1352  -4.1155
    -4.0700  -4.0447  -4.0392  -4.0137  -3.6320  -3.5019  -3.4855  -3.4287
    -3.3983  -3.3303  -3.2500  -3.1942  -3.0328  -3.0111  -3.0015  -2.9974
    -2.2460  -2.1138  -2.0714  -2.0094  -1.6572  -1.6543  -1.4406  -1.4350
    -1.4154  -1.3422  -1.3386  -1.3282  -1.1709  -1.1058  -1.0937  -1.0502
    -0.9752  -0.9422  -0.9110  -0.8750  -0.7828  -0.7337  -0.7054  -0.6674
    -0.5754  -0.5610  -0.4579  -0.4414  -0.1804  -0.1664  -0.1386  -0.1278
     0.0241   0.0771   0.0996   0.1685   0.5664   0.6727   0.6769   0.7175
     0.7636   0.7975   0.8621   0.9293   3.3985   3.4309   3.4752   3.4980
     4.8825   4.9136   4.9786   4.9941   5.5482   5.5496   5.6101   5.6202
     5.6672   5.8215   5.8654   5.9967   7.0832   7.1663   7.2575   7.3626
     7.5584   7.5642   7.6680   7.7496   7.9912   8.1694   8.3569   8.4693

          k =-0.5000 0.7167-0.6177 ( 92644 PWs)   bands (ev):

   -23.9962 -23.9962 -23.9606 -23.9606 -22.2990 -22.2990 -22.2964 -22.2964
   -19.5139 -19.5139 -19.4841 -19.4841 -15.6951 -15.6951 -15.6878 -15.6878
   -14.2903 -14.2903 -14.2472 -14.2472 -14.1930 -14.1930 -14.1453 -14.1453
   -11.9200 -11.9200 -11.8825 -11.8825 -11.5259 -11.5259 -11.5120 -11.5120
   -11.1543 -11.1543 -11.1217 -11.1217  -8.9435  -8.9435  -8.9110  -8.9110
    -8.4700  -8.4700  -8.3205  -8.3205  -7.9128  -7.9128  -7.8644  -7.8644
    -7.5145  -7.5145  -7.4161  -7.4161  -7.0156  -7.0156  -6.8467  -6.8467
    -6.4672  -6.4672  -6.4497  -6.4497  -6.0532  -6.0532  -5.9673  -5.9673
    -5.8881  -5.8881  -5.6182  -5.6182  -5.2113  -5.2113  -5.0441  -5.0441
    -4.9890  -4.9890  -4.9514  -4.9514  -4.2076  -4.2076  -4.1615  -4.1615
    -4.0801  -4.0801  -4.0244  -4.0244  -3.5652  -3.5652  -3.4647  -3.4647
    -3.3135  -3.3135  -3.2237  -3.2237  -3.1011  -3.1011  -2.9771  -2.9771
    -2.1739  -2.1739  -2.0387  -2.0387  -1.5923  -1.5923  -1.5119  -1.5119
    -1.3924  -1.3924  -1.3172  -1.3172  -1.1371  -1.1371  -1.0478  -1.0478
    -0.9665  -0.9665  -0.8936  -0.8936  -0.7662  -0.7662  -0.6886  -0.6886
    -0.5346  -0.5346  -0.4777  -0.4777  -0.1903  -0.1903  -0.1191  -0.1191
     0.0364   0.0364   0.1478   0.1478   0.6339   0.6339   0.7226   0.7226
     0.7440   0.7440   0.9011   0.9011   3.4174   3.4174   3.4824   3.4824
     4.9181   4.9181   4.9794   4.9794   5.4763   5.4763   5.5726   5.5726
     5.7945   5.7945   5.9852   5.9852   7.0927   7.0927   7.3120   7.3120
     7.6012   7.6012   7.6990   7.6990   8.0956   8.0956   8.3956   8.3956

     highest occupied, lowest unoccupied level (ev):     0.9367    3.3985

!    total energy              =   -1416.56470041 Ry
     Harris-Foulkes estimate   =   -1416.56470041 Ry
     estimated scf accuracy    <          3.0E-10 Ry

     total all-electron energy =     -5452.625365 Ry

     The total energy is the sum of the following terms:

     one-electron contribution =    -746.75824963 Ry
     hartree contribution      =     483.72716257 Ry
     xc contribution           =    -296.70539369 Ry
     ewald contribution        =    -436.31081491 Ry
     Dispersion Correction     =      -0.38894512 Ry
     one-center paw contrib.   =    -420.12845963 Ry

     convergence has been achieved in  19 iterations

     Forces acting on atoms (cartesian axes, Ry/au):

     atom    1 type  4   force =    -0.00375842   -0.00014265   -0.00122645
     atom    2 type  4   force =     0.00375842   -0.00014265    0.00122645
     atom    3 type  4   force =     0.00375842    0.00014265    0.00122645
     atom    4 type  4   force =    -0.00375842    0.00014265   -0.00122645
     atom    5 type  2   force =    -0.00042881    0.00059496   -0.00392963
     atom    6 type  2   force =     0.00042881    0.00059496    0.00392963
     atom    7 type  2   force =     0.00042881   -0.00059496    0.00392963
     atom    8 type  2   force =    -0.00042881   -0.00059496   -0.00392963
     atom    9 type  1   force =     0.00060847   -0.00277584    0.00050093
     atom   10 type  1   force =    -0.00060847   -0.00277584   -0.00050093
     atom   11 type  1   force =    -0.00060847    0.00277584   -0.00050093
     atom   12 type  1   force =     0.00060847    0.00277584    0.00050093
     atom   13 type  1   force =    -0.00263969    0.00318696    0.00086352
     atom   14 type  1   force =     0.00263969    0.00318696   -0.00086352
     atom   15 type  1   force =     0.00263969   -0.00318696   -0.00086352
     atom   16 type  1   force =    -0.00263969   -0.00318696    0.00086352
     atom   17 type  1   force =     0.00270265   -0.00276101   -0.00162932
     atom   18 type  1   force =    -0.00270265   -0.00276101    0.00162932
     atom   19 type  1   force =    -0.00270265    0.00276101    0.00162932
     atom   20 type  1   force =     0.00270265    0.00276101   -0.00162932
     atom   21 type  3   force =     0.00035298    0.00021724   -0.00032344
     atom   22 type  3   force =    -0.00035298    0.00021724    0.00032344
     atom   23 type  3   force =    -0.00035298   -0.00021724    0.00032344
     atom   24 type  3   force =     0.00035298   -0.00021724   -0.00032344
     atom   25 type  2   force =     0.00025639    0.00524989   -0.00054468
     atom   26 type  2   force =    -0.00025639    0.00524989    0.00054468
     atom   27 type  2   force =    -0.00025639   -0.00524989    0.00054468
     atom   28 type  2   force =     0.00025639   -0.00524989   -0.00054468
     atom   29 type  4   force =     0.00067071   -0.00140511    0.00219998
     atom   30 type  4   force =    -0.00067071   -0.00140511   -0.00219998
     atom   31 type  4   force =    -0.00067071    0.00140511   -0.00219998
     atom   32 type  4   force =     0.00067071    0.00140511    0.00219998
     atom   33 type  4   force =     0.00292102   -0.00172406    0.00190848
     atom   34 type  4   force =    -0.00292102   -0.00172406   -0.00190848
     atom   35 type  4   force =    -0.00292102    0.00172406   -0.00190848
     atom   36 type  4   force =     0.00292102    0.00172406    0.00190848
     atom   37 type  1   force =    -0.00257725    0.00249563   -0.00106021
     atom   38 type  1   force =     0.00257725    0.00249563    0.00106021
     atom   39 type  1   force =     0.00257725   -0.00249563    0.00106021
     atom   40 type  1   force =    -0.00257725   -0.00249563   -0.00106021
     atom   41 type  1   force =     0.00479961   -0.00524628   -0.00222710
     atom   42 type  1   force =    -0.00479961   -0.00524628    0.00222710
     atom   43 type  1   force =    -0.00479961    0.00524628    0.00222710
     atom   44 type  1   force =     0.00479961    0.00524628   -0.00222710
     atom   45 type  3   force =     0.00044810    0.00147163    0.00254487
     atom   46 type  3   force =    -0.00044810    0.00147163   -0.00254487
     atom   47 type  3   force =    -0.00044810   -0.00147163   -0.00254487
     atom   48 type  3   force =     0.00044810   -0.00147163    0.00254487
     atom   49 type  1   force =    -0.00467933    0.00307889    0.00491350
     atom   50 type  1   force =     0.00467933    0.00307889   -0.00491350
     atom   51 type  1   force =     0.00467933   -0.00307889   -0.00491350
     atom   52 type  1   force =    -0.00467933   -0.00307889    0.00491350
     atom   53 type  3   force =     0.00062785    0.00012684   -0.00052875
     atom   54 type  3   force =    -0.00062785    0.00012684    0.00052875
     atom   55 type  3   force =    -0.00062785   -0.00012684    0.00052875
     atom   56 type  3   force =     0.00062785   -0.00012684   -0.00052875
     atom   57 type  1   force =     0.00242192   -0.00331081    0.00181145
     atom   58 type  1   force =    -0.00242192   -0.00331081   -0.00181145
     atom   59 type  1   force =    -0.00242192    0.00331081   -0.00181145
     atom   60 type  1   force =     0.00242192    0.00331081    0.00181145
     atom   61 type  3   force =     0.00030555   -0.00004691    0.00033094
     atom   62 type  3   force =    -0.00030555   -0.00004691   -0.00033094
     atom   63 type  3   force =    -0.00030555    0.00004691   -0.00033094
     atom   64 type  3   force =     0.00030555    0.00004691    0.00033094
     atom   65 type  1   force =    -0.00420609    0.00545875    0.00112250
     atom   66 type  1   force =     0.00420609    0.00545875   -0.00112250
     atom   67 type  1   force =     0.00420609   -0.00545875   -0.00112250
     atom   68 type  1   force =    -0.00420609   -0.00545875    0.00112250
     atom   69 type  3   force =    -0.00098757   -0.00072097   -0.00188655
     atom   70 type  3   force =     0.00098757   -0.00072097    0.00188655
     atom   71 type  3   force =     0.00098757    0.00072097    0.00188655
     atom   72 type  3   force =    -0.00098757    0.00072097   -0.00188655
     atom   73 type  1   force =     0.00462876   -0.00314786   -0.00402629
     atom   74 type  1   force =    -0.00462876   -0.00314786    0.00402629
     atom   75 type  1   force =    -0.00462876    0.00314786    0.00402629
     atom   76 type  1   force =     0.00462876    0.00314786   -0.00402629
     atom   77 type  3   force =    -0.00098884    0.00074722    0.00064783
     atom   78 type  3   force =     0.00098884    0.00074722   -0.00064783
     atom   79 type  3   force =     0.00098884   -0.00074722   -0.00064783
     atom   80 type  3   force =    -0.00098884   -0.00074722    0.00064783

     Total force =     0.039202     Total SCF correction =     0.000025


     Computing stress (Cartesian axis) and pressure

          total   stress  (Ry/bohr**3)                   (kbar)     P=   -5.11
  -0.00002883   0.00000000   0.00000555         -4.24      0.00      0.82
   0.00000000  -0.00003437   0.00000000          0.00     -5.06      0.00
   0.00000555   0.00000000  -0.00004093          0.82      0.00     -6.02


     Writing output data file scf.save
 
     init_run     :     39.79s CPU     41.31s WALL (       1 calls)
     electrons    :   1507.44s CPU   1569.07s WALL (       1 calls)
     forces       :     20.66s CPU     20.88s WALL (       1 calls)
     stress       :     86.15s CPU     86.62s WALL (       1 calls)

     Called by init_run:
     wfcinit      :     30.30s CPU     31.67s WALL (       1 calls)
     potinit      :      3.32s CPU      3.35s WALL (       1 calls)

     Called by electrons:
     c_bands      :   1353.23s CPU   1405.95s WALL (      19 calls)
     sum_band     :    139.77s CPU    147.27s WALL (      19 calls)
     v_of_rho     :      2.29s CPU      2.48s WALL (      20 calls)
     newd         :      5.11s CPU      6.30s WALL (      20 calls)
     PAW_pot      :      6.41s CPU      6.42s WALL (      20 calls)
     mix_rho      :      0.61s CPU      0.67s WALL (      19 calls)

     Called by c_bands:
     init_us_2    :      8.19s CPU      8.27s WALL (     328 calls)
     cegterg      :   1320.80s CPU   1373.27s WALL (     152 calls)

     Called by sum_band:
     sum_band:bec :      0.10s CPU      0.10s WALL (     152 calls)
     addusdens    :      5.27s CPU      6.41s WALL (      19 calls)

     Called by *egterg:
     h_psi        :    712.05s CPU    751.65s WALL (     687 calls)
     s_psi        :    155.62s CPU    155.75s WALL (     687 calls)
     g_psi        :      3.60s CPU      3.60s WALL (     527 calls)
     cdiaghg      :     75.86s CPU     75.90s WALL (     679 calls)

     Called by h_psi:
     h_psi:pot    :    705.98s CPU    745.43s WALL (     687 calls)
     h_psi:calbec :    155.61s CPU    156.21s WALL (     687 calls)
     vloc_psi     :    394.42s CPU    433.15s WALL (     687 calls)
     add_vuspsi   :    155.95s CPU    156.06s WALL (     687 calls)

     General routines
     calbec       :    227.95s CPU    228.74s WALL (     879 calls)
     fft          :      2.12s CPU      2.46s WALL (     284 calls)
     fftw         :    416.32s CPU    458.35s WALL (  172100 calls)
 
     Parallel routines
     fft_scatter  :    105.80s CPU    140.94s WALL (  172384 calls)
 
     PWSCF        : 27m43.07s CPU    29m30.73s WALL

 
   This run was terminated on:  15:16:31  21Dec2017            

=------------------------------------------------------------------------------=
   JOB DONE.
=------------------------------------------------------------------------------=
