
     Program PWSCF v.6.1 (svn rev. 13369) starts on  4Nov2017 at  1: 1:13 

     This program is part of the open-source Quantum ESPRESSO suite
     for quantum simulation of materials; please cite
         "P. Giannozzi et al., J. Phys.:Condens. Matter 21 395502 (2009);
          URL http://www.quantum-espresso.org", 
     in publications or presentations arising from this work. More details at
     http://www.quantum-espresso.org/quote

     Parallel version (MPI), running on     8 processors
     R & G space division:  proc/nbgrp/npool/nimage =       8
     Waiting for input...
     Reading input from standard input

     Current dimensions of program PWSCF are:
     Max number of different atomic species (ntypx) = 10
     Max number of k-points (npk) =  40000
     Max angular momentum in pseudopotentials (lmaxx) =  3
               file C.pbe-n-kjpaw_psl.0.1.UPF: wavefunction(s)  2P renormalized
               file N.pbe-n-kjpaw_psl.0.1.UPF: wavefunction(s)  2P renormalized
               file H.pbe-kjpaw_psl.0.1.UPF: wavefunction(s)  1S renormalized
               file O.pbe-n-kjpaw_psl.0.1.UPF: wavefunction(s)  2P renormalized

     -------------------------------------
     Parameters for Dispersion Correction:
     -------------------------------------
       atom      VdW radius       C_6     

        C          2.744         60.710
        N          2.640         42.670
        H          1.892          4.857
        O          2.536         24.284

     Subspace diagonalization in iterative solution of the eigenvalue problem:
     a serial algorithm will be used

 
     Parallelization info
     --------------------
     sticks:   dense  smooth     PW     G-vecs:    dense   smooth      PW
     Min         934     934    245                99798    99798   13506
     Max         935     935    247                99801    99801   13508
     Sum        7477    7477   1967               798397   798397  108053
 


     bravais-lattice index     =            0
     lattice parameter (alat)  =      13.2466  a.u.
     unit-cell volume          =    5910.2151 (a.u.)^3
     number of atoms/cell      =           80
     number of atomic types    =            4
     number of electrons       =       352.00
     number of Kohn-Sham states=          211
     kinetic-energy cutoff     =     100.0000  Ry
     charge density cutoff     =     400.0000  Ry
     convergence threshold     =      1.0E-08
     mixing beta               =       0.5000
     number of iterations used =            8  plain     mixing
     Exchange-correlation      =  SLA  PW   PBX  PBC ( 1  4  3  4 0 0)

     celldm(1)=  13.246602  celldm(2)=   0.000000  celldm(3)=   0.000000
     celldm(4)=   0.000000  celldm(5)=   0.000000  celldm(6)=   0.000000

     crystal axes: (cart. coord. in units of alat)
               a(1) = (   1.000000   0.000000   0.000000 )  
               a(2) = (   0.000000   1.335701   0.000000 )  
               a(3) = (   0.000000   0.000000   1.903621 )  

     reciprocal axes: (cart. coord. in units 2 pi/alat)
               b(1) = (  1.000000  0.000000  0.000000 )  
               b(2) = (  0.000000  0.748670  0.000000 )  
               b(3) = (  0.000000  0.000000  0.525315 )  


     PseudoPot. # 1 for  C read from file:
     /scratch/ahofstet/pseudo/C.pbe-n-kjpaw_psl.0.1.UPF
     MD5 check sum: 430fe95172b1e11ef3f8ed03bac87931
     Pseudo is Projector augmented-wave + core cor, Zval =  4.0
     Generated using "atomic" code by A. Dal Corso  v.5.0.99 svn rev. 10869
     Shape of augmentation charge: BESSEL
     Using radial grid of 1073 points,  4 beta functions with: 
                l(1) =   0
                l(2) =   0
                l(3) =   1
                l(4) =   1
     Q(r) pseudized with 0 coefficients 


     PseudoPot. # 2 for  N read from file:
     /scratch/ahofstet/pseudo/N.pbe-n-kjpaw_psl.0.1.UPF
     MD5 check sum: f73187c8b701007e77325f868c9291d7
     Pseudo is Projector augmented-wave + core cor, Zval =  5.0
     Generated using "atomic" code by A. Dal Corso  v.5.0.99 svn rev. 10869
     Shape of augmentation charge: PSQ
     Using radial grid of 1085 points,  4 beta functions with: 
                l(1) =   0
                l(2) =   0
                l(3) =   1
                l(4) =   1
     Q(r) pseudized with 0 coefficients 


     PseudoPot. # 3 for  H read from file:
     /scratch/ahofstet/pseudo/H.pbe-kjpaw_psl.0.1.UPF
     MD5 check sum: 94e484f906d9e9773b2f6e52662335b2
     Pseudo is Projector augmented-wave, Zval =  1.0
     Generated using "atomic" code by A. Dal Corso  v.5.0.99 svn rev. 10869
     Shape of augmentation charge: PSQ
     Using radial grid of  929 points,  2 beta functions with: 
                l(1) =   0
                l(2) =   0
     Q(r) pseudized with 0 coefficients 


     PseudoPot. # 4 for  O read from file:
     /scratch/ahofstet/pseudo/O.pbe-n-kjpaw_psl.0.1.UPF
     MD5 check sum: 3f94a2996a3169367d6eb21d9b593f20
     Pseudo is Projector augmented-wave + core cor, Zval =  6.0
     Generated using "atomic" code by A. Dal Corso  v.5.0.99 svn rev. 10869
     Shape of augmentation charge: BESSEL
     Using radial grid of 1095 points,  4 beta functions with: 
                l(1) =   0
                l(2) =   0
                l(3) =   1
                l(4) =   1
     Q(r) pseudized with 0 coefficients 


     atomic species   valence    mass     pseudopotential
        C              4.00    12.01070      C( 1.00)
        N              5.00    14.00670      N( 1.00)
        H              1.00     1.00794      H( 1.00)
        O              6.00    15.99940      O( 1.00)

      2 Sym. Ops. (no inversion) found ( 1 have fractional translation)



   Cartesian axes

     site n.     atom                  positions (alat units)
         1           C   tau(   1) = (   0.9815577   0.1652104   1.0983059  )
         2           C   tau(   2) = (   0.0184423   0.8330612   0.8053147  )
         3           C   tau(   3) = (   0.0184361   0.1651851   0.1464589  )
         4           C   tau(   4) = (   0.9815639   0.8330358   1.7571617  )
         5           N   tau(   5) = (   0.0541324   0.2843529   0.9537606  )
         6           N   tau(   6) = (   0.9458676   0.9522037   0.9498600  )
         7           N   tau(   7) = (   0.9458585   0.2843434   0.0019275  )
         8           N   tau(   8) = (   0.0541415   0.9521941   1.9016932  )
         9           O   tau(   9) = (   0.9380072   0.3540630   0.8386729  )
        10           O   tau(  10) = (   0.0619928   1.0219138   1.0649477  )
        11           O   tau(  11) = (   0.0619758   0.3540740   1.7904678  )
        12           O   tau(  12) = (   0.9380242   1.0219247   0.1131529  )
        13           O   tau(  13) = (   0.2290287   0.3108959   0.9505946  )
        14           O   tau(  14) = (   0.7709713   0.9787466   0.9530260  )
        15           O   tau(  15) = (   0.7709593   0.3108791  -0.0012320  )
        16           O   tau(  16) = (   0.2290407   0.9787298   1.9048527  )
        17           C   tau(  17) = (   0.0650149   0.1079763   1.2683737  )
        18           C   tau(  18) = (   0.9349851   0.7758270   0.6352469  )
        19           C   tau(  19) = (   0.9349939   0.1079500   0.3165256  )
        20           C   tau(  20) = (   0.0650061   0.7758008   1.5870950  )
        21           H   tau(  21) = (   0.2033832   0.1510594   1.3227098  )
        22           H   tau(  22) = (   0.7966168   0.8189101   0.5809108  )
        23           H   tau(  23) = (   0.7966190   0.1510295   0.3708596  )
        24           H   tau(  24) = (   0.2033810   0.8188803   1.5327611  )
        25           C   tau(  25) = (   0.9283739   0.0031778   1.3657734  )
        26           C   tau(  26) = (   0.0716261   0.6710285   0.5378473  )
        27           C   tau(  27) = (   0.0716495   0.0031942   0.4139569  )
        28           C   tau(  28) = (   0.9283505   0.6710449   1.4896637  )
        29           N   tau(  29) = (   0.9280838   1.2975921   1.5624746  )
        30           N   tau(  30) = (   0.0719162   0.6297414   0.3411461  )
        31           N   tau(  31) = (   0.0719338   1.2976172   0.6106617  )
        32           N   tau(  32) = (   0.9280662   0.6297664   1.2929590  )
        33           O   tau(  33) = (   0.0870656   1.2785622   1.6394976  )
        34           O   tau(  34) = (   0.9129344   0.6107115   0.2641231  )
        35           O   tau(  35) = (   0.9129477   1.2785875   0.6876804  )
        36           O   tau(  36) = (   0.0870523   0.6107368   1.2159402  )
        37           O   tau(  37) = (   0.7723883   1.2898505   1.6472911  )
        38           O   tau(  38) = (   0.2276117   0.6219998   0.2563296  )
        39           O   tau(  39) = (   0.2276258   1.2898821   0.6954840  )
        40           O   tau(  40) = (   0.7723742   0.6220314   1.2081366  )
        41           C   tau(  41) = (   0.5890017   1.2461325   1.2384457  )
        42           C   tau(  42) = (   0.4109983   0.5782817   0.6651749  )
        43           C   tau(  43) = (   0.4110019   1.2461038   0.2865400  )
        44           C   tau(  44) = (   0.5889981   0.5782531   1.6170807  )
        45           N   tau(  45) = (   0.5348746   1.0878461   1.3498189  )
        46           N   tau(  46) = (   0.4651254   0.4199954   0.5538018  )
        47           N   tau(  47) = (   0.4651393   1.0878539   0.3979611  )
        48           N   tau(  48) = (   0.5348607   0.4200032   1.5056595  )
        49           O   tau(  49) = (   0.6610443   1.0031051   1.4409843  )
        50           O   tau(  50) = (   0.3389557   0.3352544   0.4626363  )
        51           O   tau(  51) = (   0.3389864   1.0031565   0.4891885  )
        52           O   tau(  52) = (   0.6610136   0.3353057   1.4144322  )
        53           O   tau(  53) = (   0.3642602   1.0387814   1.3424991  )
        54           O   tau(  54) = (   0.6357398   0.3709306   0.5611216  )
        55           O   tau(  55) = (   0.6357509   1.0387729   0.3906209  )
        56           O   tau(  56) = (   0.3642491   0.3709222   1.5129997  )
        57           C   tau(  57) = (   0.5042183   1.3144200   1.0705077  )
        58           C   tau(  58) = (   0.4957817   0.6465693   0.8331129  )
        59           C   tau(  59) = (   0.4957394   1.3143609   0.1185630  )
        60           C   tau(  60) = (   0.5042606   0.6465101   1.7850577  )
        61           H   tau(  61) = (   0.3641797   1.2760570   1.0175282  )
        62           H   tau(  62) = (   0.6358203   0.6082063   0.8860924  )
        63           H   tau(  63) = (   0.6357863   1.2759912   0.0655771  )
        64           H   tau(  64) = (   0.3642137   0.6081405   1.8380436  )
        65           C   tau(  65) = (   0.6363909   0.0925648   0.9797412  )
        66           C   tau(  66) = (   0.3636091   0.7604155   0.9238795  )
        67           C   tau(  67) = (   0.3635710   0.0925118   0.0278443  )
        68           C   tau(  68) = (   0.6364290   0.7603625   1.8757763  )
        69           H   tau(  69) = (   0.6348981   0.1670459   0.8444525  )
        70           H   tau(  70) = (   0.3651019   0.8348967   1.0591681  )
        71           H   tau(  71) = (   0.3650396   0.1670179   1.7961743  )
        72           H   tau(  72) = (   0.6349604   0.8348687   0.1074463  )
        73           N   tau(  73) = (   0.7966462   0.0950097   1.0913086  )
        74           N   tau(  74) = (   0.2033538   0.7628604   0.8123120  )
        75           N   tau(  75) = (   0.2033542   0.0950022   0.1394543  )
        76           N   tau(  76) = (   0.7966458   0.7628530   1.7641663  )
        77           N   tau(  77) = (   0.7678806   1.3242107   1.2513241  )
        78           N   tau(  78) = (   0.2321194   0.6563600   0.6522965  )
        79           N   tau(  79) = (   0.2321381   1.3242174   0.2994814  )
        80           N   tau(  80) = (   0.7678619   0.6563667   1.6041393  )

     number of k points=     8
                       cart. coord. in units 2pi/alat
        k(    1) = (   0.0000000   0.0000000   0.0000000), wk =   0.1666667
        k(    2) = (   0.0000000   0.0000000  -0.2626574), wk =   0.1666667
        k(    3) = (   0.0000000  -0.3743351   0.0000000), wk =   0.1666667
        k(    4) = (   0.0000000  -0.3743351  -0.2626574), wk =   0.1666667
        k(    5) = (   0.3333333   0.0000000   0.0000000), wk =   0.3333333
        k(    6) = (   0.3333333   0.0000000  -0.2626574), wk =   0.3333333
        k(    7) = (   0.3333333  -0.3743351   0.0000000), wk =   0.3333333
        k(    8) = (   0.3333333  -0.3743351  -0.2626574), wk =   0.3333333

     Dense  grid:   798397 G-vectors     FFT dimensions: (  90, 120, 162)

     Estimated max dynamical RAM per process >     874.60MB

     Estimated total allocated dynamical RAM >    6996.82MB

     Check: negative/imaginary core charge=   -0.000003    0.000000

     Initial potential from superposition of free atoms

     starting charge  351.99871, renormalised to  352.00000
     Starting wfc are  284 randomized atomic wfcs
     Checking if some PAW data can be deallocated... 

     total cpu time spent up to now is       46.1 secs

     per-process dynamical memory:   598.4 Mb

     Self-consistent Calculation

     iteration #  1     ecut=   100.00 Ry     beta=0.50
     Davidson diagonalization with overlap
     ethr =  1.00E-02,  avg # of iterations =  4.9

     total cpu time spent up to now is      204.2 secs

     total energy              =   -2015.77737224 Ry
     Harris-Foulkes estimate   =   -2020.57459430 Ry
     estimated scf accuracy    <       8.45099168 Ry

     iteration #  2     ecut=   100.00 Ry     beta=0.50
     Davidson diagonalization with overlap
     ethr =  2.40E-03,  avg # of iterations =  3.2

     total cpu time spent up to now is      315.5 secs

     total energy              =   -2017.26155635 Ry
     Harris-Foulkes estimate   =   -2018.76644053 Ry
     estimated scf accuracy    <       3.33088191 Ry

     iteration #  3     ecut=   100.00 Ry     beta=0.50
     Davidson diagonalization with overlap
     ethr =  9.46E-04,  avg # of iterations =  3.8

     total cpu time spent up to now is      405.9 secs

     total energy              =   -2017.84729142 Ry
     Harris-Foulkes estimate   =   -2018.00323158 Ry
     estimated scf accuracy    <       0.35528739 Ry

     iteration #  4     ecut=   100.00 Ry     beta=0.50
     Davidson diagonalization with overlap
     ethr =  1.01E-04,  avg # of iterations =  7.4

     total cpu time spent up to now is      584.3 secs

     total energy              =   -2017.96330589 Ry
     Harris-Foulkes estimate   =   -2018.08217916 Ry
     estimated scf accuracy    <       0.34082100 Ry

     iteration #  5     ecut=   100.00 Ry     beta=0.50
     Davidson diagonalization with overlap
     ethr =  9.68E-05,  avg # of iterations =  2.0

     total cpu time spent up to now is      667.4 secs

     total energy              =   -2018.00802196 Ry
     Harris-Foulkes estimate   =   -2018.02007518 Ry
     estimated scf accuracy    <       0.03196986 Ry

     iteration #  6     ecut=   100.00 Ry     beta=0.50
     Davidson diagonalization with overlap
     ethr =  9.08E-06,  avg # of iterations =  5.9

     total cpu time spent up to now is      805.5 secs

     total energy              =   -2018.01729314 Ry
     Harris-Foulkes estimate   =   -2018.02020613 Ry
     estimated scf accuracy    <       0.00809551 Ry

     iteration #  7     ecut=   100.00 Ry     beta=0.50
     Davidson diagonalization with overlap
     ethr =  2.30E-06,  avg # of iterations =  2.9

     total cpu time spent up to now is      893.3 secs

     total energy              =   -2018.01831497 Ry
     Harris-Foulkes estimate   =   -2018.01924690 Ry
     estimated scf accuracy    <       0.00275336 Ry

     iteration #  8     ecut=   100.00 Ry     beta=0.50
     Davidson diagonalization with overlap
     ethr =  7.82E-07,  avg # of iterations =  3.0

     total cpu time spent up to now is      983.9 secs

     total energy              =   -2018.01875963 Ry
     Harris-Foulkes estimate   =   -2018.01896645 Ry
     estimated scf accuracy    <       0.00053306 Ry

     iteration #  9     ecut=   100.00 Ry     beta=0.50
     Davidson diagonalization with overlap
     ethr =  1.51E-07,  avg # of iterations =  3.1

     total cpu time spent up to now is     1095.3 secs

     total energy              =   -2018.01892311 Ry
     Harris-Foulkes estimate   =   -2018.01893803 Ry
     estimated scf accuracy    <       0.00006487 Ry

     iteration # 10     ecut=   100.00 Ry     beta=0.50
     Davidson diagonalization with overlap
     ethr =  1.84E-08,  avg # of iterations =  3.0

     total cpu time spent up to now is     1184.0 secs

     total energy              =   -2018.01892514 Ry
     Harris-Foulkes estimate   =   -2018.01893522 Ry
     estimated scf accuracy    <       0.00002620 Ry

     iteration # 11     ecut=   100.00 Ry     beta=0.50
     Davidson diagonalization with overlap
     ethr =  7.44E-09,  avg # of iterations =  3.0

     total cpu time spent up to now is     1276.4 secs

     total energy              =   -2018.01892933 Ry
     Harris-Foulkes estimate   =   -2018.01893262 Ry
     estimated scf accuracy    <       0.00000896 Ry

     iteration # 12     ecut=   100.00 Ry     beta=0.50
     Davidson diagonalization with overlap
     ethr =  2.55E-09,  avg # of iterations =  2.5

     total cpu time spent up to now is     1362.6 secs

     total energy              =   -2018.01893141 Ry
     Harris-Foulkes estimate   =   -2018.01893186 Ry
     estimated scf accuracy    <       0.00000146 Ry

     iteration # 13     ecut=   100.00 Ry     beta=0.50
     Davidson diagonalization with overlap
     ethr =  4.14E-10,  avg # of iterations =  4.0

     total cpu time spent up to now is     1503.8 secs

     total energy              =   -2018.01893198 Ry
     Harris-Foulkes estimate   =   -2018.01893216 Ry
     estimated scf accuracy    <       0.00000057 Ry

     iteration # 14     ecut=   100.00 Ry     beta=0.50
     Davidson diagonalization with overlap
     ethr =  1.63E-10,  avg # of iterations =  2.0

     total cpu time spent up to now is     1586.8 secs

     total energy              =   -2018.01893203 Ry
     Harris-Foulkes estimate   =   -2018.01893207 Ry
     estimated scf accuracy    <       0.00000010 Ry

     iteration # 15     ecut=   100.00 Ry     beta=0.50
     Davidson diagonalization with overlap
     ethr =  2.98E-11,  avg # of iterations =  3.0

     total cpu time spent up to now is     1702.3 secs

     total energy              =   -2018.01893207 Ry
     Harris-Foulkes estimate   =   -2018.01893207 Ry
     estimated scf accuracy    <       0.00000002 Ry

     iteration # 16     ecut=   100.00 Ry     beta=0.50
     Davidson diagonalization with overlap
     ethr =  6.15E-12,  avg # of iterations =  2.0

     total cpu time spent up to now is     1783.6 secs

     End of self-consistent calculation

          k = 0.0000 0.0000 0.0000 ( 99687 PWs)   bands (ev):

   -23.3783 -23.3402 -23.3198 -23.3192 -23.2878 -23.2600 -23.2563 -23.2505
   -23.2104 -23.2045 -23.1931 -23.1821 -21.5071 -21.4996 -21.4945 -21.4812
   -18.8675 -18.8649 -18.8496 -18.8431 -18.7892 -18.7777 -18.7751 -18.7681
   -18.7212 -18.7062 -18.7051 -18.6984 -15.8633 -15.8542 -15.8539 -15.8422
   -15.6612 -15.6532 -15.6425 -15.6356 -13.2925 -13.2809 -13.2557 -13.2417
   -12.7486 -12.7457 -12.6909 -12.6797 -11.4594 -11.4565 -11.4501 -11.4471
   -11.2047 -11.1717 -11.1568 -11.1542  -9.2562  -9.2347  -9.1430  -9.1318
    -8.9017  -8.8884  -8.8701  -8.8614  -8.0507  -8.0400  -7.9637  -7.9536
    -7.0124  -6.9931  -6.8848  -6.7675  -6.6907  -6.5564  -6.5252  -6.3753
    -6.2299  -6.1722  -6.1639  -6.1398  -6.1079  -6.0783  -6.0121  -6.0056
    -5.9956  -5.9184  -5.8752  -5.8645  -5.7338  -5.7198  -5.6241  -5.5488
    -5.5215  -5.5085  -5.4971  -5.4517  -5.4405  -5.4248  -5.3396  -5.3273
    -5.2474  -5.1066  -5.0969  -5.0768  -5.0466  -4.9372  -4.9233  -4.8961
    -4.7979  -4.7523  -4.7392  -4.6006  -4.5474  -4.4853  -4.4323  -4.4098
    -4.2746  -4.2670  -4.2233  -4.1688  -3.5089  -3.5021  -3.4838  -3.4568
    -3.1823  -3.0890  -3.0669  -3.0353  -1.4833  -1.4529  -1.4469  -1.4280
    -1.3799  -1.3572  -1.3099  -1.2793  -0.5814  -0.5431  -0.4730  -0.4077
    -0.1696  -0.0937  -0.0889  -0.0454  -0.0373  -0.0120   0.0223   0.0292
     0.0377   0.0638   0.0724   0.1307   0.1536   0.1567   0.1581   0.1828
     0.2392   0.2758   0.3264   0.3574   0.4884   0.5384   0.5792   0.5872
     0.6503   0.6773   0.7338   0.7386   0.7481   0.7833   0.7968   0.8394
     0.9176   0.9756   0.9784   1.0082   1.8588   1.8779   1.8782   1.9410
     3.7741   3.7887   3.8200   3.9161   4.0280   4.0696   4.0786   4.1237
     4.9987   5.0743   5.1030   5.1433   6.4721   6.6804   6.6853   6.7159
     7.0462   7.1294   7.1299   7.1770   7.7992   7.8303   7.8360   8.0932
     8.1692   8.4347   8.4639   8.4750   8.4883   8.6906   9.0060   9.0117
     9.2249   9.4338   9.5597

          k = 0.0000 0.0000-0.2627 ( 99724 PWs)   bands (ev):

   -23.3636 -23.3635 -23.3185 -23.3184 -23.2672 -23.2671 -23.2567 -23.2567
   -23.2091 -23.2088 -23.1865 -23.1862 -21.5052 -21.5047 -21.4865 -21.4860
   -18.8672 -18.8670 -18.8446 -18.8445 -18.7889 -18.7889 -18.7670 -18.7670
   -18.7158 -18.7156 -18.7000 -18.6998 -15.8610 -15.8607 -15.8459 -15.8457
   -15.6519 -15.6518 -15.6448 -15.6446 -13.2879 -13.2877 -13.2478 -13.2475
   -12.7227 -12.7227 -12.7099 -12.7098 -11.4585 -11.4582 -11.4486 -11.4483
   -11.1913 -11.1912 -11.1527 -11.1527  -9.1995  -9.1993  -9.1855  -9.1852
    -8.8872  -8.8870  -8.8718  -8.8717  -8.0462  -8.0457  -7.9591  -7.9584
    -6.9763  -6.9762  -6.8776  -6.8774  -6.6325  -6.6324  -6.3759  -6.3759
    -6.2776  -6.2776  -6.1269  -6.1267  -6.1020  -6.1019  -5.9838  -5.9838
    -5.9250  -5.9249  -5.8648  -5.8647  -5.7789  -5.7788  -5.6211  -5.6210
    -5.5125  -5.5124  -5.4639  -5.4639  -5.4008  -5.4006  -5.3125  -5.3124
    -5.2334  -5.2334  -5.0541  -5.0540  -4.9831  -4.9830  -4.8972  -4.8972
    -4.7874  -4.7874  -4.7134  -4.7131  -4.4716  -4.4713  -4.4063  -4.4059
    -4.2540  -4.2539  -4.2403  -4.2401  -3.5071  -3.5071  -3.4660  -3.4659
    -3.1319  -3.1318  -3.0527  -3.0524  -1.4744  -1.4744  -1.4359  -1.4359
    -1.3522  -1.3520  -1.3068  -1.3067  -0.5729  -0.5729  -0.4206  -0.4205
    -0.1515  -0.1515  -0.0976  -0.0975  -0.0022  -0.0021   0.0339   0.0339
     0.0859   0.0860   0.0975   0.0976   0.1255   0.1255   0.2013   0.2013
     0.2302   0.2303   0.3445   0.3447   0.5168   0.5169   0.5857   0.5857
     0.6715   0.6715   0.7225   0.7226   0.7624   0.7624   0.8165   0.8167
     0.9555   0.9555   0.9916   0.9916   1.8603   1.8604   1.9168   1.9169
     3.7857   3.7858   3.8805   3.8805   4.0351   4.0352   4.0954   4.0955
     5.0241   5.0243   5.1397   5.1398   6.5490   6.5494   6.7279   6.7283
     7.0543   7.0549   7.1826   7.1831   7.8054   7.8055   8.0132   8.0136
     8.2485   8.2486   8.4596   8.4597   8.5282   8.5282   9.0747   9.0750
     9.4667   9.4673   9.5681

          k = 0.0000-0.3743 0.0000 ( 99768 PWs)   bands (ev):

   -23.3537 -23.3537 -23.3296 -23.3296 -23.2747 -23.2747 -23.2517 -23.2517
   -23.1964 -23.1964 -23.1951 -23.1951 -21.4970 -21.4970 -21.4941 -21.4941
   -18.8602 -18.8602 -18.8553 -18.8553 -18.7765 -18.7765 -18.7753 -18.7753
   -18.7096 -18.7096 -18.7061 -18.7061 -15.8543 -15.8543 -15.8531 -15.8531
   -15.6568 -15.6568 -15.6391 -15.6391 -13.2681 -13.2681 -13.2667 -13.2667
   -12.7471 -12.7471 -12.6862 -12.6862 -11.4532 -11.4532 -11.4521 -11.4521
   -11.1781 -11.1781 -11.1667 -11.1667  -9.2458  -9.2458  -9.1371  -9.1371
    -8.8925  -8.8925  -8.8680  -8.8680  -8.0097  -8.0097  -7.9967  -7.9967
    -7.0130  -7.0130  -6.8220  -6.8220  -6.5255  -6.5255  -6.5225  -6.5225
    -6.2680  -6.2680  -6.2177  -6.2177  -6.0549  -6.0549  -5.9733  -5.9733
    -5.9031  -5.9031  -5.8411  -5.8411  -5.7475  -5.7475  -5.6337  -5.6337
    -5.5097  -5.5097  -5.5055  -5.5055  -5.3735  -5.3735  -5.3680  -5.3680
    -5.1713  -5.1713  -5.0496  -5.0496  -4.9633  -4.9633  -4.9359  -4.9359
    -4.7989  -4.7989  -4.6620  -4.6620  -4.4898  -4.4898  -4.4484  -4.4484
    -4.2679  -4.2679  -4.1994  -4.1994  -3.4944  -3.4944  -3.4856  -3.4856
    -3.1240  -3.1240  -3.0579  -3.0579  -1.4839  -1.4839  -1.4379  -1.4379
    -1.3344  -1.3344  -1.3300  -1.3300  -0.4817  -0.4817  -0.4757  -0.4757
    -0.1349  -0.1349  -0.0984  -0.0984  -0.0199  -0.0199   0.0180   0.0180
     0.0615   0.0615   0.0816   0.0816   0.1634   0.1634   0.1673   0.1673
     0.2809   0.2809   0.3286   0.3286   0.5023   0.5023   0.5859   0.5859
     0.7308   0.7308   0.7366   0.7366   0.7575   0.7575   0.7733   0.7733
     0.9479   0.9479   0.9854   0.9854   1.8757   1.8757   1.9011   1.9011
     3.8080   3.8080   3.8594   3.8594   4.0645   4.0645   4.0695   4.0695
     5.0754   5.0754   5.0799   5.0799   6.6060   6.6060   6.7022   6.7022
     7.0773   7.0773   7.1382   7.1382   7.7936   7.7936   7.9742   7.9742
     8.4576   8.4576   8.4814   8.4814   8.5720   8.5720   9.0070   9.0070
     9.2776   9.2776   9.4204

          k = 0.0000-0.3743-0.2627 ( 99820 PWs)   bands (ev):

   -23.3436 -23.3436 -23.3433 -23.3433 -23.2614 -23.2614 -23.2613 -23.2613
   -23.1960 -23.1960 -23.1956 -23.1956 -21.4959 -21.4959 -21.4953 -21.4953
   -18.8579 -18.8579 -18.8576 -18.8576 -18.7759 -18.7759 -18.7759 -18.7759
   -18.7080 -18.7080 -18.7076 -18.7076 -15.8538 -15.8538 -15.8534 -15.8534
   -15.6481 -15.6481 -15.6480 -15.6480 -13.2676 -13.2676 -13.2673 -13.2673
   -12.7167 -12.7167 -12.7167 -12.7167 -11.4529 -11.4529 -11.4527 -11.4527
   -11.1724 -11.1724 -11.1724 -11.1724  -9.1926  -9.1926  -9.1923  -9.1923
    -8.8794  -8.8794  -8.8792  -8.8792  -8.0040  -8.0040  -8.0034  -8.0034
    -6.9211  -6.9211  -6.9210  -6.9210  -6.5458  -6.5458  -6.5455  -6.5455
    -6.1947  -6.1947  -6.1946  -6.1946  -6.0240  -6.0240  -6.0238  -6.0238
    -5.8843  -5.8843  -5.8841  -5.8841  -5.7079  -5.7079  -5.7078  -5.7078
    -5.4892  -5.4892  -5.4891  -5.4891  -5.3644  -5.3644  -5.3642  -5.3642
    -5.1415  -5.1415  -5.1413  -5.1413  -4.9317  -4.9317  -4.9317  -4.9317
    -4.7379  -4.7379  -4.7378  -4.7378  -4.4405  -4.4405  -4.4400  -4.4400
    -4.2508  -4.2508  -4.2506  -4.2506  -3.4914  -3.4914  -3.4912  -3.4912
    -3.0890  -3.0890  -3.0884  -3.0884  -1.4620  -1.4620  -1.4620  -1.4620
    -1.3315  -1.3315  -1.3313  -1.3313  -0.4780  -0.4780  -0.4778  -0.4778
    -0.1132  -0.1132  -0.1131  -0.1131  -0.0109  -0.0109  -0.0108  -0.0108
     0.0780   0.0780   0.0781   0.0781   0.1639   0.1639   0.1640   0.1640
     0.3024   0.3024   0.3026   0.3026   0.5454   0.5454   0.5456   0.5456
     0.7344   0.7344   0.7345   0.7345   0.7655   0.7655   0.7655   0.7655
     0.9667   0.9667   0.9670   0.9670   1.8887   1.8887   1.8889   1.8889
     3.8342   3.8342   3.8342   3.8342   4.0661   4.0661   4.0663   4.0663
     5.0780   5.0780   5.0782   5.0782   6.6511   6.6511   6.6516   6.6516
     7.1066   7.1066   7.1072   7.1072   7.8948   7.8948   7.8951   7.8951
     8.4554   8.4554   8.4555   8.4555   8.7156   8.7156   8.7157   8.7157
     9.4286   9.4287   9.4288

          k = 0.3333 0.0000 0.0000 ( 99782 PWs)   bands (ev):

   -23.3724 -23.3369 -23.3192 -23.3190 -23.2844 -23.2576 -23.2569 -23.2545
   -23.2140 -23.2084 -23.1965 -23.1823 -21.5073 -21.4997 -21.4947 -21.4819
   -18.8553 -18.8543 -18.8485 -18.8356 -18.7891 -18.7808 -18.7728 -18.7703
   -18.7303 -18.7157 -18.7143 -18.7004 -15.8681 -15.8594 -15.8565 -15.8432
   -15.6591 -15.6552 -15.6487 -15.6410 -13.2868 -13.2762 -13.2389 -13.2325
   -12.7264 -12.7255 -12.6948 -12.6900 -11.4838 -11.4604 -11.4430 -11.4279
   -11.1642 -11.1577 -11.1176 -11.1130  -9.2512  -9.2244  -9.1844  -9.1728
    -9.0040  -8.9752  -8.9509  -8.9189  -8.0233  -8.0216  -7.9537  -7.9528
    -6.9103  -6.9050  -6.8504  -6.7795  -6.6773  -6.5776  -6.4677  -6.3949
    -6.3030  -6.2453  -6.2228  -6.1489  -6.1480  -6.0838  -6.0540  -5.9924
    -5.9831  -5.9497  -5.8779  -5.8508  -5.7710  -5.6998  -5.6849  -5.6568
    -5.6349  -5.6096  -5.4919  -5.4883  -5.3536  -5.3407  -5.3218  -5.3170
    -5.1545  -5.1528  -5.0485  -4.9975  -4.9546  -4.9324  -4.9174  -4.8357
    -4.8030  -4.7247  -4.6939  -4.6770  -4.4939  -4.3953  -4.3272  -4.3178
    -4.2671  -4.2203  -4.1740  -4.1504  -3.5352  -3.5140  -3.4993  -3.4818
    -3.1916  -3.1843  -3.1786  -3.1024  -1.4420  -1.4102  -1.3943  -1.3552
    -1.3513  -1.3273  -1.2602  -1.2594  -0.5001  -0.4574  -0.4528  -0.3661
    -0.2239  -0.1001  -0.0723  -0.0543  -0.0508  -0.0317  -0.0119  -0.0106
     0.0391   0.0469   0.0642   0.0684   0.1294   0.1719   0.1810   0.2118
     0.2269   0.2525   0.2989   0.3322   0.4767   0.4879   0.5171   0.5399
     0.5979   0.6175   0.6443   0.6600   0.7615   0.8108   0.8476   0.8661
     0.8740   0.9144   0.9225   0.9680   1.8215   1.8752   1.8755   1.9238
     3.8281   3.8514   3.8886   3.9316   3.9966   4.0094   4.0584   4.1142
     5.0780   5.0909   5.1330   5.1823   6.6789   6.7148   6.8629   6.9500
     7.0330   7.0497   7.0910   7.1597   7.7338   7.8624   7.9692   8.0851
     8.3977   8.4439   8.4775   8.4844   8.5154   8.7650   8.8236   8.8731
     8.8918   9.2684   9.3831

          k = 0.3333 0.0000-0.2627 ( 99874 PWs)   bands (ev):

   -23.3587 -23.3586 -23.3174 -23.3173 -23.2680 -23.2679 -23.2563 -23.2563
   -23.2126 -23.2122 -23.1885 -23.1882 -21.5053 -21.5048 -21.4871 -21.4866
   -18.8534 -18.8531 -18.8448 -18.8445 -18.7822 -18.7821 -18.7733 -18.7733
   -18.7260 -18.7257 -18.7046 -18.7044 -15.8658 -15.8656 -15.8480 -15.8478
   -15.6543 -15.6541 -15.6479 -15.6477 -13.2820 -13.2818 -13.2354 -13.2352
   -12.7123 -12.7123 -12.7061 -12.7061 -11.4746 -11.4744 -11.4331 -11.4328
   -11.1447 -11.1446 -11.1323 -11.1322  -9.2176  -9.2176  -9.1987  -9.1986
    -8.9773  -8.9770  -8.9472  -8.9469  -8.0230  -8.0225  -7.9540  -7.9533
    -6.9145  -6.9144  -6.8035  -6.8034  -6.6404  -6.6404  -6.3892  -6.3892
    -6.3227  -6.3226  -6.1796  -6.1795  -6.0959  -6.0956  -6.0668  -6.0667
    -5.9550  -5.9549  -5.8518  -5.8517  -5.7531  -5.7529  -5.6983  -5.6982
    -5.5223  -5.5221  -5.4654  -5.4652  -5.3992  -5.3991  -5.3266  -5.3265
    -5.1638  -5.1637  -5.0593  -5.0593  -4.9453  -4.9451  -4.8810  -4.8810
    -4.7450  -4.7449  -4.6431  -4.6430  -4.4440  -4.4439  -4.3720  -4.3718
    -4.2383  -4.2381  -4.1375  -4.1373  -3.5296  -3.5295  -3.4880  -3.4880
    -3.1994  -3.1989  -3.1294  -3.1289  -1.4307  -1.4306  -1.3704  -1.3704
    -1.3243  -1.3242  -1.2746  -1.2744  -0.4942  -0.4941  -0.3926  -0.3924
    -0.1776  -0.1775  -0.0835  -0.0834  -0.0474  -0.0474   0.0247   0.0248
     0.0554   0.0556   0.0852   0.0852   0.1420   0.1421   0.1890   0.1892
     0.2106   0.2108   0.3281   0.3283   0.4837   0.4838   0.5360   0.5360
     0.6180   0.6181   0.6324   0.6325   0.7879   0.7880   0.8588   0.8590
     0.8917   0.8919   0.9492   0.9493   1.8446   1.8446   1.9032   1.9033
     3.8497   3.8498   3.9252   3.9253   3.9873   3.9874   4.0723   4.0725
     5.0879   5.0880   5.1586   5.1588   6.7109   6.7112   6.8857   6.8861
     7.0464   7.0466   7.1200   7.1204   7.8159   7.8163   8.0089   8.0095
     8.4415   8.4415   8.4990   8.4990   8.5984   8.5986   8.8346   8.8349
     8.9960   8.9962   9.5872

          k = 0.3333-0.3743 0.0000 ( 99856 PWs)   bands (ev):

   -23.3494 -23.3494 -23.3273 -23.3273 -23.2735 -23.2735 -23.2549 -23.2549
   -23.2002 -23.2002 -23.1958 -23.1958 -21.4972 -21.4972 -21.4946 -21.4946
   -18.8558 -18.8558 -18.8413 -18.8413 -18.7875 -18.7875 -18.7696 -18.7696
   -18.7177 -18.7177 -18.7117 -18.7117 -15.8585 -15.8585 -15.8556 -15.8556
   -15.6568 -15.6568 -15.6448 -15.6448 -13.2649 -13.2649 -13.2525 -13.2525
   -12.7258 -12.7258 -12.6925 -12.6925 -11.4589 -11.4589 -11.4477 -11.4477
   -11.1640 -11.1640 -11.1128 -11.1128  -9.2397  -9.2397  -9.1769  -9.1769
    -8.9918  -8.9918  -8.9326  -8.9326  -7.9990  -7.9990  -7.9777  -7.9777
    -6.9229  -6.9229  -6.8008  -6.8008  -6.5655  -6.5655  -6.4956  -6.4956
    -6.3010  -6.3010  -6.1962  -6.1962  -6.1071  -6.1071  -6.0479  -6.0479
    -5.9224  -5.9224  -5.8316  -5.8316  -5.7598  -5.7598  -5.7056  -5.7056
    -5.5650  -5.5650  -5.5064  -5.5064  -5.3484  -5.3484  -5.3152  -5.3152
    -5.1062  -5.1062  -5.0634  -5.0634  -4.9425  -4.9425  -4.9105  -4.9105
    -4.7555  -4.7555  -4.6746  -4.6746  -4.4478  -4.4478  -4.3269  -4.3269
    -4.2325  -4.2325  -4.1627  -4.1627  -3.5242  -3.5242  -3.4891  -3.4891
    -3.2080  -3.2080  -3.1227  -3.1227  -1.4407  -1.4407  -1.3552  -1.3552
    -1.3141  -1.3141  -1.2955  -1.2955  -0.4413  -0.4413  -0.4236  -0.4236
    -0.1560  -0.1560  -0.1220  -0.1220  -0.0378  -0.0378   0.0086   0.0086
     0.0625   0.0625   0.0767   0.0767   0.1410   0.1410   0.1743   0.1743
     0.2570   0.2570   0.3079   0.3079   0.4992   0.4992   0.5336   0.5336
     0.6188   0.6188   0.6369   0.6369   0.7924   0.7924   0.8506   0.8506
     0.8779   0.8779   0.9465   0.9465   1.8520   1.8520   1.8887   1.8887
     3.8614   3.8614   3.9055   3.9055   4.0059   4.0059   4.0755   4.0755
     5.0947   5.0947   5.1415   5.1415   6.7501   6.7501   6.8801   6.8801
     7.0572   7.0572   7.0978   7.0978   7.8246   7.8246   7.9428   7.9428
     8.4519   8.4519   8.4911   8.4911   8.7737   8.7737   8.8721   8.8721
     9.0676   9.0676   9.4430

          k = 0.3333-0.3743-0.2627 ( 99828 PWs)   bands (ev):

   -23.3409 -23.3409 -23.3388 -23.3388 -23.2643 -23.2643 -23.2609 -23.2609
   -23.1987 -23.1987 -23.1975 -23.1975 -21.4962 -21.4962 -21.4956 -21.4956
   -18.8527 -18.8527 -18.8454 -18.8454 -18.7838 -18.7838 -18.7726 -18.7726
   -18.7166 -18.7166 -18.7125 -18.7125 -15.8581 -15.8581 -15.8560 -15.8560
   -15.6514 -15.6514 -15.6502 -15.6502 -13.2649 -13.2649 -13.2525 -13.2525
   -12.7093 -12.7093 -12.7091 -12.7091 -11.4585 -11.4585 -11.4483 -11.4483
   -11.1488 -11.1488 -11.1285 -11.1285  -9.2158  -9.2158  -9.2008  -9.2008
    -8.9633  -8.9633  -8.9610  -8.9610  -7.9892  -7.9892  -7.9886  -7.9886
    -6.8698  -6.8698  -6.8577  -6.8577  -6.5406  -6.5406  -6.5241  -6.5241
    -6.2569  -6.2569  -6.2399  -6.2399  -6.0900  -6.0900  -6.0710  -6.0710
    -5.8815  -5.8815  -5.8803  -5.8803  -5.7303  -5.7303  -5.7105  -5.7105
    -5.5248  -5.5248  -5.4980  -5.4980  -5.3720  -5.3720  -5.3522  -5.3522
    -5.1178  -5.1178  -5.0844  -5.0844  -4.9209  -4.9209  -4.9128  -4.9128
    -4.6971  -4.6971  -4.6930  -4.6930  -4.4171  -4.4171  -4.3980  -4.3980
    -4.1902  -4.1902  -4.1817  -4.1817  -3.5184  -3.5184  -3.4950  -3.4950
    -3.2038  -3.2038  -3.1265  -3.1265  -1.4073  -1.4073  -1.3996  -1.3996
    -1.3062  -1.3062  -1.2931  -1.2931  -0.4365  -0.4365  -0.4300  -0.4300
    -0.1481  -0.1481  -0.1173  -0.1173  -0.0319  -0.0319  -0.0211  -0.0211
     0.0714   0.0714   0.0720   0.0720   0.1664   0.1664   0.1695   0.1695
     0.2616   0.2616   0.2860   0.2860   0.5023   0.5023   0.5332   0.5332
     0.6278   0.6278   0.6283   0.6283   0.8033   0.8033   0.8313   0.8313
     0.8946   0.8946   0.9408   0.9408   1.8693   1.8693   1.8720   1.8720
     3.8658   3.8658   3.9009   3.9009   4.0353   4.0353   4.0437   4.0437
     5.0965   5.0965   5.1419   5.1419   6.8001   6.8001   6.8220   6.8220
     7.0686   7.0686   7.0917   7.0917   7.8761   7.8761   7.8942   7.8942
     8.4659   8.4659   8.4703   8.4703   8.8175   8.8175   8.8439   8.8439
     9.1191   9.1191   9.2550

     highest occupied, lowest unoccupied level (ev):     1.9410    3.7741

!    total energy              =   -2018.01893206 Ry
     Harris-Foulkes estimate   =   -2018.01893207 Ry
     estimated scf accuracy    <          6.7E-09 Ry

     total all-electron energy =     -7642.658754 Ry

     The total energy is the sum of the following terms:

     one-electron contribution =   -1088.75531213 Ry
     hartree contribution      =     690.87325472 Ry
     xc contribution           =    -392.51406766 Ry
     ewald contribution        =    -673.45791393 Ry
     Dispersion Correction     =      -0.39289538 Ry
     one-center paw contrib.   =    -553.77199768 Ry

     convergence has been achieved in  16 iterations

     Forces acting on atoms (cartesian axes, Ry/au):

     atom    1 type  1   force =    -0.00161474    0.00056271   -0.00032549
     atom    2 type  1   force =     0.00161474    0.00056271    0.00032549
     atom    3 type  1   force =     0.00166531    0.00057513   -0.00037819
     atom    4 type  1   force =    -0.00166531    0.00057513    0.00037819
     atom    5 type  2   force =    -0.00036091   -0.00168974    0.00087848
     atom    6 type  2   force =     0.00036091   -0.00168974   -0.00087848
     atom    7 type  2   force =     0.00030806   -0.00170737    0.00089604
     atom    8 type  2   force =    -0.00030806   -0.00170737   -0.00089604
     atom    9 type  4   force =     0.00058199   -0.00025131   -0.00127376
     atom   10 type  4   force =    -0.00058199   -0.00025131    0.00127376
     atom   11 type  4   force =    -0.00056221   -0.00024793   -0.00128636
     atom   12 type  4   force =     0.00056221   -0.00024793    0.00128636
     atom   13 type  4   force =     0.00068247    0.00148705    0.00305881
     atom   14 type  4   force =    -0.00068247    0.00148705   -0.00305881
     atom   15 type  4   force =    -0.00067345    0.00147474    0.00305979
     atom   16 type  4   force =     0.00067345    0.00147474   -0.00305979
     atom   17 type  1   force =     0.00505317    0.00150618   -0.00246078
     atom   18 type  1   force =    -0.00505317    0.00150618    0.00246078
     atom   19 type  1   force =    -0.00512241    0.00153262   -0.00231946
     atom   20 type  1   force =     0.00512241    0.00153262    0.00231946
     atom   21 type  3   force =    -0.00057996    0.00072276   -0.00009939
     atom   22 type  3   force =     0.00057996    0.00072276    0.00009939
     atom   23 type  3   force =     0.00061610    0.00071301   -0.00010885
     atom   24 type  3   force =    -0.00061610    0.00071301    0.00010885
     atom   25 type  1   force =    -0.00126327   -0.00167129   -0.00264416
     atom   26 type  1   force =     0.00126327   -0.00167129    0.00264416
     atom   27 type  1   force =     0.00129779   -0.00169753   -0.00278717
     atom   28 type  1   force =    -0.00129779   -0.00169753    0.00278717
     atom   29 type  2   force =     0.00275419   -0.00034483    0.00140832
     atom   30 type  2   force =    -0.00275419   -0.00034483   -0.00140832
     atom   31 type  2   force =    -0.00276271   -0.00033763    0.00139121
     atom   32 type  2   force =     0.00276271   -0.00033763   -0.00139121
     atom   33 type  4   force =    -0.00185588    0.00027316    0.00049426
     atom   34 type  4   force =     0.00185588    0.00027316   -0.00049426
     atom   35 type  4   force =     0.00188059    0.00027836    0.00047713
     atom   36 type  4   force =    -0.00188059    0.00027836   -0.00047713
     atom   37 type  4   force =    -0.00016438   -0.00135125   -0.00131982
     atom   38 type  4   force =     0.00016438   -0.00135125    0.00131982
     atom   39 type  4   force =     0.00016603   -0.00134413   -0.00131596
     atom   40 type  4   force =    -0.00016603   -0.00134413    0.00131596
     atom   41 type  1   force =     0.00222146    0.00205231   -0.00066919
     atom   42 type  1   force =    -0.00222146    0.00205231    0.00066919
     atom   43 type  1   force =    -0.00229002    0.00205879   -0.00057546
     atom   44 type  1   force =     0.00229002    0.00205879    0.00057546
     atom   45 type  2   force =    -0.00147211   -0.00099788    0.00054214
     atom   46 type  2   force =     0.00147211   -0.00099788   -0.00054214
     atom   47 type  2   force =     0.00152101   -0.00098726    0.00050654
     atom   48 type  2   force =    -0.00152101   -0.00098726   -0.00050654
     atom   49 type  4   force =    -0.00057863    0.00139174    0.00045808
     atom   50 type  4   force =     0.00057863    0.00139174   -0.00045808
     atom   51 type  4   force =     0.00055991    0.00137320    0.00045830
     atom   52 type  4   force =    -0.00055991    0.00137320   -0.00045830
     atom   53 type  4   force =     0.00061048    0.00016847   -0.00080094
     atom   54 type  4   force =    -0.00061048    0.00016847    0.00080094
     atom   55 type  4   force =    -0.00063084    0.00017177   -0.00079861
     atom   56 type  4   force =     0.00063084    0.00017177    0.00079861
     atom   57 type  1   force =    -0.00507357   -0.00185657    0.00180498
     atom   58 type  1   force =     0.00507357   -0.00185657   -0.00180498
     atom   59 type  1   force =     0.00535660   -0.00201545    0.00195930
     atom   60 type  1   force =    -0.00535660   -0.00201545   -0.00195930
     atom   61 type  3   force =     0.00080059   -0.00161092   -0.00014581
     atom   62 type  3   force =    -0.00080059   -0.00161092    0.00014581
     atom   63 type  3   force =    -0.00090928   -0.00158485   -0.00012866
     atom   64 type  3   force =     0.00090928   -0.00158485    0.00012866
     atom   65 type  1   force =     0.00230923    0.00162223   -0.00110635
     atom   66 type  1   force =    -0.00230923    0.00162223    0.00110635
     atom   67 type  1   force =    -0.00239528    0.00183761   -0.00135766
     atom   68 type  1   force =     0.00239528    0.00183761    0.00135766
     atom   69 type  3   force =     0.00072618   -0.00080610    0.00089395
     atom   70 type  3   force =    -0.00072618   -0.00080610   -0.00089395
     atom   71 type  3   force =    -0.00072434   -0.00088128    0.00099776
     atom   72 type  3   force =     0.00072434   -0.00088128   -0.00099776
     atom   73 type  2   force =     0.00074797    0.00352068   -0.00277695
     atom   74 type  2   force =    -0.00074797    0.00352068    0.00277695
     atom   75 type  2   force =    -0.00085219    0.00349463   -0.00267559
     atom   76 type  2   force =     0.00085219    0.00349463    0.00267559
     atom   77 type  2   force =    -0.00074328   -0.00271636    0.00321602
     atom   78 type  2   force =     0.00074328   -0.00271636   -0.00321602
     atom   79 type  2   force =     0.00076374   -0.00271745    0.00319601
     atom   80 type  2   force =    -0.00076374   -0.00271745   -0.00319601

     Total force =     0.027571     Total SCF correction =     0.000225


     Computing stress (Cartesian axis) and pressure

          total   stress  (Ry/bohr**3)                   (kbar)     P=    2.67
   0.00002027   0.00000000   0.00000014          2.98      0.00      0.02
   0.00000000   0.00001830   0.00000000          0.00      2.69      0.00
   0.00000014   0.00000000   0.00001587          0.02      0.00      2.34


     Writing output data file scf.save
 
     init_run     :     43.63s CPU     45.42s WALL (       1 calls)
     electrons    :   1681.33s CPU   1737.74s WALL (       1 calls)
     forces       :     22.08s CPU     22.26s WALL (       1 calls)
     stress       :    103.39s CPU    103.71s WALL (       1 calls)

     Called by init_run:
     wfcinit      :     38.52s CPU     40.10s WALL (       1 calls)
     potinit      :      1.87s CPU      1.91s WALL (       1 calls)

     Called by electrons:
     c_bands      :   1516.80s CPU   1565.43s WALL (      16 calls)
     sum_band     :    153.42s CPU    160.03s WALL (      16 calls)
     v_of_rho     :      1.87s CPU      2.06s WALL (      17 calls)
     newd         :      3.69s CPU      4.56s WALL (      17 calls)
     PAW_pot      :      5.18s CPU      5.19s WALL (      17 calls)
     mix_rho      :      0.40s CPU      0.43s WALL (      16 calls)

     Called by c_bands:
     init_us_2    :      7.32s CPU      7.36s WALL (     280 calls)
     cegterg      :   1484.65s CPU   1533.21s WALL (     128 calls)

     Called by sum_band:
     sum_band:bec :      0.11s CPU      0.11s WALL (     128 calls)
     addusdens    :      3.66s CPU      4.52s WALL (      16 calls)

     Called by *egterg:
     h_psi        :    776.80s CPU    813.30s WALL (     581 calls)
     s_psi        :    185.26s CPU    185.31s WALL (     581 calls)
     g_psi        :      3.58s CPU      3.59s WALL (     445 calls)
     cdiaghg      :     99.30s CPU     99.34s WALL (     573 calls)

     Called by h_psi:
     h_psi:pot    :    771.88s CPU    808.29s WALL (     581 calls)
     h_psi:calbec :    178.07s CPU    178.39s WALL (     581 calls)
     vloc_psi     :    408.70s CPU    444.75s WALL (     581 calls)
     add_vuspsi   :    185.11s CPU    185.15s WALL (     581 calls)

     General routines
     calbec       :    263.21s CPU    263.66s WALL (     749 calls)
     fft          :      1.11s CPU      1.49s WALL (     245 calls)
     fftw         :    442.27s CPU    481.62s WALL (  173318 calls)
 
     Parallel routines
     fft_scatter  :     85.03s CPU    116.63s WALL (  173563 calls)
 
     PWSCF        : 31m 2.21s CPU    32m51.86s WALL

 
   This run was terminated on:   1:34: 5   4Nov2017            

=------------------------------------------------------------------------------=
   JOB DONE.
=------------------------------------------------------------------------------=
