
     Program PWSCF v.6.1 (svn rev. 13369) starts on 12Nov2017 at  9:49: 9 

     This program is part of the open-source Quantum ESPRESSO suite
     for quantum simulation of materials; please cite
         "P. Giannozzi et al., J. Phys.:Condens. Matter 21 395502 (2009);
          URL http://www.quantum-espresso.org", 
     in publications or presentations arising from this work. More details at
     http://www.quantum-espresso.org/quote

     Parallel version (MPI), running on     8 processors
     R & G space division:  proc/nbgrp/npool/nimage =       8
     Waiting for input...
     Reading input from standard input

     Current dimensions of program PWSCF are:
     Max number of different atomic species (ntypx) = 10
     Max number of k-points (npk) =  40000
     Max angular momentum in pseudopotentials (lmaxx) =  3
               file C.pbe-n-kjpaw_psl.0.1.UPF: wavefunction(s)  2P renormalized
               file N.pbe-n-kjpaw_psl.0.1.UPF: wavefunction(s)  2P renormalized
               file H.pbe-kjpaw_psl.0.1.UPF: wavefunction(s)  1S renormalized
               file O.pbe-n-kjpaw_psl.0.1.UPF: wavefunction(s)  2P renormalized

     -------------------------------------
     Parameters for Dispersion Correction:
     -------------------------------------
       atom      VdW radius       C_6     

        C          2.744         60.710
        N          2.640         42.670
        H          1.892          4.857
        O          2.536         24.284

     Subspace diagonalization in iterative solution of the eigenvalue problem:
     a serial algorithm will be used

 
     Parallelization info
     --------------------
     sticks:   dense  smooth     PW     G-vecs:    dense   smooth      PW
     Min        1823    1823    480               179798   179798   24340
     Max        1824    1824    481               179801   179801   24342
     Sum       14589   14589   3843              1438395  1438395  194725
 


     bravais-lattice index     =            0
     lattice parameter (alat)  =      21.3711  a.u.
     unit-cell volume          =   10646.2035 (a.u.)^3
     number of atoms/cell      =          136
     number of atomic types    =            4
     number of electrons       =       608.00
     number of Kohn-Sham states=          364
     kinetic-energy cutoff     =     100.0000  Ry
     charge density cutoff     =     400.0000  Ry
     convergence threshold     =      1.0E-08
     mixing beta               =       0.5000
     number of iterations used =            8  plain     mixing
     Exchange-correlation      =  SLA  PW   PBX  PBC ( 1  4  3  4 0 0)

     celldm(1)=  21.371102  celldm(2)=   0.000000  celldm(3)=   0.000000
     celldm(4)=   0.000000  celldm(5)=   0.000000  celldm(6)=   0.000000

     crystal axes: (cart. coord. in units of alat)
               a(1) = (   1.000000   0.000000   0.000000 )  
               a(2) = (   0.000000   1.002626   0.000000 )  
               a(3) = (  -0.286614   0.000000   1.087865 )  

     reciprocal axes: (cart. coord. in units 2 pi/alat)
               b(1) = (  1.000000  0.000000  0.263465 )  
               b(2) = (  0.000000  0.997381  0.000000 )  
               b(3) = (  0.000000  0.000000  0.919232 )  


     PseudoPot. # 1 for  C read from file:
     /scratch/ahofstet/pseudo/C.pbe-n-kjpaw_psl.0.1.UPF
     MD5 check sum: 430fe95172b1e11ef3f8ed03bac87931
     Pseudo is Projector augmented-wave + core cor, Zval =  4.0
     Generated using "atomic" code by A. Dal Corso  v.5.0.99 svn rev. 10869
     Shape of augmentation charge: BESSEL
     Using radial grid of 1073 points,  4 beta functions with: 
                l(1) =   0
                l(2) =   0
                l(3) =   1
                l(4) =   1
     Q(r) pseudized with 0 coefficients 


     PseudoPot. # 2 for  N read from file:
     /scratch/ahofstet/pseudo/N.pbe-n-kjpaw_psl.0.1.UPF
     MD5 check sum: f73187c8b701007e77325f868c9291d7
     Pseudo is Projector augmented-wave + core cor, Zval =  5.0
     Generated using "atomic" code by A. Dal Corso  v.5.0.99 svn rev. 10869
     Shape of augmentation charge: PSQ
     Using radial grid of 1085 points,  4 beta functions with: 
                l(1) =   0
                l(2) =   0
                l(3) =   1
                l(4) =   1
     Q(r) pseudized with 0 coefficients 


     PseudoPot. # 3 for  H read from file:
     /scratch/ahofstet/pseudo/H.pbe-kjpaw_psl.0.1.UPF
     MD5 check sum: 94e484f906d9e9773b2f6e52662335b2
     Pseudo is Projector augmented-wave, Zval =  1.0
     Generated using "atomic" code by A. Dal Corso  v.5.0.99 svn rev. 10869
     Shape of augmentation charge: PSQ
     Using radial grid of  929 points,  2 beta functions with: 
                l(1) =   0
                l(2) =   0
     Q(r) pseudized with 0 coefficients 


     PseudoPot. # 4 for  O read from file:
     /scratch/ahofstet/pseudo/O.pbe-n-kjpaw_psl.0.1.UPF
     MD5 check sum: 3f94a2996a3169367d6eb21d9b593f20
     Pseudo is Projector augmented-wave + core cor, Zval =  6.0
     Generated using "atomic" code by A. Dal Corso  v.5.0.99 svn rev. 10869
     Shape of augmentation charge: BESSEL
     Using radial grid of 1095 points,  4 beta functions with: 
                l(1) =   0
                l(2) =   0
                l(3) =   1
                l(4) =   1
     Q(r) pseudized with 0 coefficients 


     atomic species   valence    mass     pseudopotential
        C              4.00    12.01070      C( 1.00)
        N              5.00    14.00670      N( 1.00)
        H              1.00     1.00794      H( 1.00)
        O              6.00    15.99940      O( 1.00)

      4 Sym. Ops., with inversion, found ( 2 have fractional translation)



   Cartesian axes

     site n.     atom                  positions (alat units)
         1           C   tau(   1) = (   0.4528854   0.7489939   1.0802057  )
         2           C   tau(   2) = (   0.6171937   0.2476808   0.5515916  )
         3           C   tau(   3) = (   0.2605007   0.2536323   0.0076592  )
         4           C   tau(   4) = (   0.0961923   0.7549454   0.5362733  )
         5           N   tau(   5) = (   0.3966087   0.8410472   1.0324872  )
         6           N   tau(   6) = (   0.6734703   0.3397341   0.5993102  )
         7           N   tau(   7) = (   0.3167773   0.1615790   0.0553777  )
         8           N   tau(   8) = (   0.0399157   0.6628921   0.4885548  )
         9           H   tau(   9) = (   0.4441579   0.8990994   0.9808536  )
        10           H   tau(  10) = (   0.6259211   0.3977863   0.6509437  )
        11           H   tau(  11) = (   0.2692281   0.1035268   0.1070113  )
        12           H   tau(  12) = (   0.0874649   0.6048399   0.4369212  )
        13           H   tau(  13) = (   0.3070263   0.8356509   1.0224044  )
        14           H   tau(  14) = (   0.7630527   0.3343378   0.6093930  )
        15           H   tau(  15) = (   0.4063597   0.1669753   0.0654606  )
        16           H   tau(  16) = (  -0.0496667   0.6682884   0.4784719  )
        17           N   tau(  17) = (   0.5702791   0.7368115   1.0844967  )
        18           N   tau(  18) = (   0.4998000   0.2354983   0.5473007  )
        19           N   tau(  19) = (   0.1431070   0.2658148   0.0033682  )
        20           N   tau(  20) = (   0.2135860   0.7671279   0.5405642  )
        21           O   tau(  21) = (   0.8772017   0.6315773   0.0589684  )
        22           O   tau(  22) = (   0.4794913   0.1302642   0.4849640  )
        23           O   tau(  23) = (  -0.1638157   0.3710489   1.0288965  )
        24           O   tau(  24) = (   0.2338947   0.8723620   0.6029009  )
        25           N   tau(  25) = (   0.7760088   0.5789866   0.0927132  )
        26           N   tau(  26) = (   0.5806842   0.0776735   0.4512193  )
        27           N   tau(  27) = (  -0.0626227   0.4236396   0.9951517  )
        28           N   tau(  28) = (   0.1327018   0.9249527   0.6366456  )
        29           C   tau(  29) = (   0.6911090   0.6480743   0.0535226  )
        30           C   tau(  30) = (   0.6655840   0.1467612   0.4904099  )
        31           C   tau(  31) = (   0.0222770   0.3545519   1.0343423  )
        32           C   tau(  32) = (   0.0478020   0.8558650   0.5974550  )
        33           O   tau(  33) = (   0.5451053   0.5217910   0.1198716  )
        34           O   tau(  34) = (   0.8115877   0.0204779   0.4240608  )
        35           O   tau(  35) = (   0.1682807   0.4808352   0.9679933  )
        36           O   tau(  36) = (  -0.0982017   0.9821483   0.6638041  )
        37           N   tau(  37) = (   0.5705809   0.6184481   0.0738308  )
        38           N   tau(  38) = (   0.7861122   0.1171350   0.4701017  )
        39           N   tau(  39) = (   0.1428052   0.3841781   1.0140341  )
        40           N   tau(  40) = (  -0.0727261   0.8854912   0.6177632  )
        41           N   tau(  41) = (   0.4989836   0.7011908   0.0381599  )
        42           N   tau(  42) = (   0.8577094   0.1998777   0.5057726  )
        43           N   tau(  43) = (   0.2144024   0.3014355   1.0497051  )
        44           N   tau(  44) = (  -0.1443234   0.8027486   0.5820923  )
        45           C   tau(  45) = (   0.3799036   0.6846776   0.0506755  )
        46           C   tau(  46) = (  -0.0232106   0.1833645   0.4932570  )
        47           C   tau(  47) = (   0.3334824   0.3179486   1.0371894  )
        48           C   tau(  48) = (   0.7365966   0.8192617   0.5946079  )
        49           N   tau(  49) = (   0.3215222   0.5995272   0.1067048  )
        50           N   tau(  50) = (   0.0351708   0.0982141   0.4372276  )
        51           N   tau(  51) = (   0.3918638   0.4030990   0.9811601  )
        52           N   tau(  52) = (   0.6782152   0.9044121   0.6506373  )
        53           O   tau(  53) = (   0.2027004   0.6280156   0.0914426  )
        54           O   tau(  54) = (   0.1539926   0.1267025   0.4524898  )
        55           O   tau(  55) = (   0.5106857   0.3746106   0.9964223  )
        56           O   tau(  56) = (   0.5593934   0.8759237   0.6353751  )
        57           N   tau(  57) = (   0.1871823   0.7276323   0.0267314  )
        58           N   tau(  58) = (   0.1695107   0.2263192   0.5172011  )
        59           N   tau(  59) = (   0.5262038   0.2749939   1.0611335  )
        60           N   tau(  60) = (   0.5438753   0.7763070   0.5706638  )
        61           C   tau(  61) = (   0.0077791   0.7658604   1.0883043  )
        62           C   tau(  62) = (   0.0622999   0.2645473   0.5434931  )
        63           C   tau(  63) = (   0.7056069   0.2367659  -0.0004394  )
        64           C   tau(  64) = (   0.6510861   0.7380790   0.5443719  )
        65           N   tau(  65) = (   0.0144508   0.8676739   1.0205019  )
        66           N   tau(  66) = (   0.0556283   0.3663608   0.6112954  )
        67           N   tau(  67) = (   0.6989352   0.1349523   0.0673630  )
        68           N   tau(  68) = (   0.6577578   0.6362654   0.4765695  )
        69           N   tau(  69) = (   0.1187536   0.9038034   0.9993698  )
        70           N   tau(  70) = (  -0.0486745   0.4024903   0.6324276  )
        71           N   tau(  71) = (   0.5946325   0.0988228   0.0884952  )
        72           N   tau(  72) = (   0.7620606   0.6001359   0.4554373  )
        73           C   tau(  73) = (   0.1247323   0.0017572   0.9297617  )
        74           C   tau(  74) = (  -0.0546532   0.5030703   0.7020357  )
        75           C   tau(  75) = (   0.5886538   1.0008690   0.1581032  )
        76           C   tau(  76) = (   0.7680393   0.4995559   0.3858292  )
        77           N   tau(  77) = (   0.2311573   0.0395766   0.9003281  )
        78           N   tau(  78) = (  -0.1610782   0.5408897   0.7314693  )
        79           N   tau(  79) = (   0.4822288   0.9630496   0.1875369  )
        80           N   tau(  80) = (   0.8744643   0.4617365   0.3563956  )
        81           O   tau(  81) = (   0.2135921   0.1382386   0.8342537  )
        82           O   tau(  82) = (  -0.1435131   0.6395517   0.7975437  )
        83           O   tau(  83) = (   0.4997939   0.8643876   0.2536112  )
        84           O   tau(  84) = (   0.8568991   0.3630745   0.2903212  )
        85           N   tau(  85) = (   0.0937570   0.1662831   0.8214030  )
        86           N   tau(  86) = (  -0.0236780   0.6675962   0.8103944  )
        87           N   tau(  87) = (   0.6196290   0.8363431   0.2664619  )
        88           N   tau(  88) = (   0.7370640   0.3350300   0.2774705  )
        89           C   tau(  89) = (   0.0375179   0.0812880   0.8796987  )
        90           C   tau(  90) = (   0.0325612   0.5826011   0.7520987  )
        91           C   tau(  91) = (   0.6758682   0.9213382   0.2081663  )
        92           C   tau(  92) = (   0.6808249   0.4200251   0.3357662  )
        93           N   tau(  93) = (  -0.0806553   0.0625098   0.8952773  )
        94           N   tau(  94) = (   0.1507344   0.5638229   0.7365201  )
        95           N   tau(  95) = (   0.7940413   0.9401164   0.1925877  )
        96           N   tau(  96) = (   0.5626517   0.4388033   0.3513448  )
        97           N   tau(  97) = (  -0.1558231   0.1362333   0.8483201  )
        98           N   tau(  98) = (   0.2259022   0.6375464   0.7834773  )
        99           N   tau(  99) = (   0.8692091   0.8663929   0.2395448  )
       100           N   tau( 100) = (   0.4874839   0.3650798   0.3043877  )
       101           O   tau( 101) = (  -0.1345505   0.2288424   0.7929990  )
       102           O   tau( 102) = (   0.2046296   0.7301555   0.8387983  )
       103           O   tau( 103) = (   0.8479365   0.7737838   0.2948659  )
       104           O   tau( 104) = (   0.5087565   0.2724707   0.2490666  )
       105           C   tau( 105) = (   0.7254808   0.0979751   0.8645145  )
       106           C   tau( 106) = (   0.3445982   0.5992882   0.7672829  )
       107           C   tau( 107) = (  -0.0120948   0.9046511   0.2233504  )
       108           C   tau( 108) = (   0.3687878   0.4033380   0.3205820  )
       109           N   tau( 109) = (   0.6372231   0.1608921   0.8227368  )
       110           N   tau( 110) = (   0.4328559   0.6622052   0.8090606  )
       111           N   tau( 111) = (   0.0761629   0.8417341   0.2651281  )
       112           N   tau( 112) = (   0.2805301   0.3404210   0.2788043  )
       113           O   tau( 113) = (   0.5391593   0.0993652   0.8504480  )
       114           O   tau( 114) = (   0.5309197   0.6006783   0.7813493  )
       115           O   tau( 115) = (   0.1742267   0.9032610   0.2374169  )
       116           O   tau( 116) = (   0.1824663   0.4019479   0.3065156  )
       117           N   tau( 117) = (   0.5651318   0.9975296   0.9117099  )
       118           N   tau( 118) = (   0.5049472   0.4962165   0.7200875  )
       119           N   tau( 119) = (   0.1482542   0.0050966   0.1761550  )
       120           N   tau( 120) = (   0.2084388   0.5064097   0.3677774  )
       121           N   tau( 121) = (   0.7436305   0.9072356   0.9716416  )
       122           N   tau( 122) = (   0.3264486   0.4059225   0.6601558  )
       123           N   tau( 123) = (  -0.0302444   0.0953906   0.1162233  )
       124           N   tau( 124) = (   0.3869375   0.5967037   0.4277092  )
       125           H   tau( 125) = (   0.6995970   0.8382476   1.0105579  )
       126           H   tau( 126) = (   0.3704820   0.3369345   0.6212395  )
       127           H   tau( 127) = (   0.0137890   0.1643786   0.0773071  )
       128           H   tau( 128) = (   0.3429040   0.6656917   0.4666254  )
       129           H   tau( 129) = (  -0.1662559   0.9129963   0.9758723  )
       130           H   tau( 130) = (   0.2363349   0.4116832   0.6559250  )
       131           H   tau( 131) = (   0.8796419   0.0896299   0.1119926  )
       132           H   tau( 132) = (   0.4770511   0.5909431   0.4319399  )
       133           C   tau( 133) = (   0.6826646   0.9942727   0.9207121  )
       134           C   tau( 134) = (   0.3874144   0.4929596   0.7110853  )
       135           C   tau( 135) = (   0.0307214   0.0083535   0.1671529  )
       136           C   tau( 136) = (   0.3259716   0.5096666   0.3767796  )

     number of k points=     8
                       cart. coord. in units 2pi/alat
        k(    1) = (   0.0000000   0.0000000   0.0000000), wk =   0.2500000
        k(    2) = (   0.0000000   0.0000000  -0.4596159), wk =   0.2500000
        k(    3) = (   0.0000000  -0.4986903   0.0000000), wk =   0.2500000
        k(    4) = (   0.0000000  -0.4986903  -0.4596159), wk =   0.2500000
        k(    5) = (  -0.5000000   0.0000000  -0.1317323), wk =   0.2500000
        k(    6) = (  -0.5000000   0.0000000  -0.5913482), wk =   0.2500000
        k(    7) = (  -0.5000000  -0.4986903  -0.1317323), wk =   0.2500000
        k(    8) = (  -0.5000000  -0.4986903  -0.5913482), wk =   0.2500000

     Dense  grid:  1438395 G-vectors     FFT dimensions: ( 144, 144, 160)

     Estimated max dynamical RAM per process >    2640.92MB

     Estimated total allocated dynamical RAM >   21127.35MB

     Check: negative/imaginary core charge=   -0.000002    0.000000

     Initial potential from superposition of free atoms

     starting charge  607.99801, renormalised to  608.00000
     Starting wfc are  496 randomized atomic wfcs
     Checking if some PAW data can be deallocated... 

     total cpu time spent up to now is      199.6 secs

     per-process dynamical memory:  1658.3 Mb

     Self-consistent Calculation

     iteration #  1     ecut=   100.00 Ry     beta=0.50
     Davidson diagonalization with overlap
     ethr =  1.00E-02,  avg # of iterations =  3.0

     total cpu time spent up to now is      857.9 secs

     total energy              =   -3407.62107720 Ry
     Harris-Foulkes estimate   =   -3413.68498807 Ry
     estimated scf accuracy    <      11.65369565 Ry

     iteration #  2     ecut=   100.00 Ry     beta=0.50
     Davidson diagonalization with overlap
     ethr =  1.92E-03,  avg # of iterations =  3.0

     total cpu time spent up to now is     1292.0 secs

     total energy              =   -3409.06566326 Ry
     Harris-Foulkes estimate   =   -3410.54059395 Ry
     estimated scf accuracy    <       3.11063204 Ry

     iteration #  3     ecut=   100.00 Ry     beta=0.50
     Davidson diagonalization with overlap
     ethr =  5.12E-04,  avg # of iterations =  3.0

     total cpu time spent up to now is     1711.8 secs

     total energy              =   -3409.69753591 Ry
     Harris-Foulkes estimate   =   -3409.99604502 Ry
     estimated scf accuracy    <       0.69670406 Ry

     iteration #  4     ecut=   100.00 Ry     beta=0.50
     Davidson diagonalization with overlap
     ethr =  1.15E-04,  avg # of iterations =  7.1

     total cpu time spent up to now is     2197.6 secs

     total energy              =   -3409.83408275 Ry
     Harris-Foulkes estimate   =   -3409.94390966 Ry
     estimated scf accuracy    <       0.30350694 Ry

     iteration #  5     ecut=   100.00 Ry     beta=0.50
     Davidson diagonalization with overlap
     ethr =  4.99E-05,  avg # of iterations =  5.6

     total cpu time spent up to now is     2579.3 secs

     total energy              =   -3409.88806569 Ry
     Harris-Foulkes estimate   =   -3409.89406617 Ry
     estimated scf accuracy    <       0.01863987 Ry

     iteration #  6     ecut=   100.00 Ry     beta=0.50
     Davidson diagonalization with overlap
     ethr =  3.07E-06,  avg # of iterations =  8.8

     total cpu time spent up to now is     3466.6 secs

     total energy              =   -3409.89857843 Ry
     Harris-Foulkes estimate   =   -3409.90248974 Ry
     estimated scf accuracy    <       0.01109697 Ry

     iteration #  7     ecut=   100.00 Ry     beta=0.50
     Davidson diagonalization with overlap
     ethr =  1.83E-06,  avg # of iterations =  8.0

     total cpu time spent up to now is     3888.8 secs

     total energy              =   -3409.90007423 Ry
     Harris-Foulkes estimate   =   -3409.90067324 Ry
     estimated scf accuracy    <       0.00173496 Ry

     iteration #  8     ecut=   100.00 Ry     beta=0.50
     Davidson diagonalization with overlap
     ethr =  2.85E-07,  avg # of iterations =  3.0

     total cpu time spent up to now is     4332.8 secs

     total energy              =   -3409.90043890 Ry
     Harris-Foulkes estimate   =   -3409.90065603 Ry
     estimated scf accuracy    <       0.00065495 Ry

     iteration #  9     ecut=   100.00 Ry     beta=0.50
     Davidson diagonalization with overlap
     ethr =  1.08E-07,  avg # of iterations =  2.0

     total cpu time spent up to now is     4694.4 secs

     total energy              =   -3409.90055186 Ry
     Harris-Foulkes estimate   =   -3409.90058716 Ry
     estimated scf accuracy    <       0.00010790 Ry

     iteration # 10     ecut=   100.00 Ry     beta=0.50
     Davidson diagonalization with overlap
     ethr =  1.77E-08,  avg # of iterations =  3.1

     total cpu time spent up to now is     5167.8 secs

     total energy              =   -3409.90058067 Ry
     Harris-Foulkes estimate   =   -3409.90058664 Ry
     estimated scf accuracy    <       0.00001638 Ry

     iteration # 11     ecut=   100.00 Ry     beta=0.50
     Davidson diagonalization with overlap
     ethr =  2.69E-09,  avg # of iterations =  3.0

     total cpu time spent up to now is     5627.8 secs

     total energy              =   -3409.90058470 Ry
     Harris-Foulkes estimate   =   -3409.90058561 Ry
     estimated scf accuracy    <       0.00000332 Ry

     iteration # 12     ecut=   100.00 Ry     beta=0.50
     Davidson diagonalization with overlap
     ethr =  5.45E-10,  avg # of iterations =  2.4

     total cpu time spent up to now is     6036.7 secs

     total energy              =   -3409.90058523 Ry
     Harris-Foulkes estimate   =   -3409.90058557 Ry
     estimated scf accuracy    <       0.00000110 Ry

     iteration # 13     ecut=   100.00 Ry     beta=0.50
     Davidson diagonalization with overlap
     ethr =  1.80E-10,  avg # of iterations =  2.0

     total cpu time spent up to now is     6406.5 secs

     total energy              =   -3409.90058543 Ry
     Harris-Foulkes estimate   =   -3409.90058549 Ry
     estimated scf accuracy    <       0.00000014 Ry

     iteration # 14     ecut=   100.00 Ry     beta=0.50
     Davidson diagonalization with overlap
     ethr =  2.37E-11,  avg # of iterations =  4.0

     total cpu time spent up to now is     7078.0 secs

     total energy              =   -3409.90058549 Ry
     Harris-Foulkes estimate   =   -3409.90058553 Ry
     estimated scf accuracy    <       0.00000012 Ry

     iteration # 15     ecut=   100.00 Ry     beta=0.50
     Davidson diagonalization with overlap
     ethr =  1.98E-11,  avg # of iterations =  2.0

     total cpu time spent up to now is     7425.3 secs

     End of self-consistent calculation

          k = 0.0000 0.0000 0.0000 (179703 PWs)   bands (ev):

   -23.0798 -23.0696 -23.0203 -23.0112 -22.9460 -22.9433 -22.9305 -22.9265
   -22.9243 -22.9209 -22.9187 -22.9186 -22.8263 -22.8249 -22.8240 -22.8218
   -22.7283 -22.7249 -22.6791 -22.6737 -22.5924 -22.5924 -22.5882 -22.5872
   -19.5634 -19.5582 -19.5549 -19.5505 -17.9137 -17.9043 -17.8684 -17.8653
   -17.7655 -17.7535 -17.7525 -17.7502 -16.6536 -16.6488 -16.6450 -16.6341
   -16.5579 -16.5466 -16.4890 -16.4820 -16.0774 -16.0718 -16.0617 -16.0572
   -15.9398 -15.9307 -15.8977 -15.8933 -15.8148 -15.8056 -15.7824 -15.7635
   -15.5001 -15.4938 -15.4868 -15.4854 -15.1626 -15.1356 -15.1355 -15.1336
   -14.6724 -14.6639 -14.6594 -14.6553 -14.0513 -14.0501 -14.0488 -14.0457
   -13.8954 -13.8934 -13.8804 -13.8784 -12.4492 -12.4399 -12.4311 -12.4268
   -12.2319 -12.2254 -12.1992 -12.1962 -11.7488 -11.7479 -11.7442 -11.7406
    -9.8165  -9.8144  -9.8006  -9.7953  -9.7102  -9.7016  -9.6993  -9.6987
    -9.0329  -9.0277  -9.0218  -9.0190  -8.7975  -8.7936  -8.7780  -8.7629
    -8.5013  -8.4973  -8.4968  -8.4897  -8.1647  -8.1567  -8.1480  -8.1308
    -8.0294  -8.0140  -8.0038  -7.9881  -7.8959  -7.8917  -7.8799  -7.8714
    -6.9817  -6.9785  -6.9770  -6.9685  -6.9120  -6.8977  -6.8866  -6.8861
    -6.6349  -6.6030  -6.5482  -6.4734  -6.4462  -6.2769  -6.1342  -6.1087
    -6.1087  -6.0427  -6.0419  -6.0010  -5.9898  -5.9544  -5.9358  -5.9267
    -5.9192  -5.9091  -5.8928  -5.8665  -5.8110  -5.7939  -5.7650  -5.7413
    -5.7396  -5.7039  -5.6423  -5.6409  -5.5023  -5.4810  -5.3708  -5.3679
    -5.3279  -5.3100  -5.2656  -5.2570  -5.2227  -5.1911  -5.1831  -5.1804
    -4.9671  -4.9157  -4.8525  -4.8203  -4.8195  -4.8008  -4.7776  -4.7217
    -4.6770  -4.6737  -4.6400  -4.5527  -3.9707  -3.9169  -3.9165  -3.8866
    -3.7461  -3.7423  -3.7156  -3.6995  -3.5270  -3.4463  -3.4432  -3.4309
    -3.4097  -3.4090  -3.4042  -3.3865  -3.3836  -3.3745  -3.3574  -3.3434
    -3.3270  -3.3167  -3.2953  -3.2826  -2.3215  -2.3063  -2.2820  -2.2621
    -2.1642  -2.1438  -1.9935  -1.9907  -1.8842  -1.8265  -1.8024  -1.7983
    -1.7744  -1.7088  -1.7029  -1.6332  -1.6229  -1.5845  -1.5818  -1.4926
    -1.4633  -1.4625  -1.4583  -1.4389  -1.4271  -1.4241  -1.3899  -1.3853
    -1.3138  -1.2513  -1.2330  -1.1929  -1.1907  -1.1310  -1.1109  -1.1070
    -1.0691  -1.0531  -1.0502  -1.0356  -0.9655  -0.9314  -0.9242  -0.8786
    -0.7310  -0.7003  -0.6917  -0.6893  -0.5921  -0.5857  -0.5718  -0.5617
    -0.5234  -0.5153  -0.5109  -0.5037  -0.4511  -0.4503  -0.4484  -0.4222
    -0.4212  -0.3854  -0.3840  -0.3802  -0.2805  -0.2801  -0.2789  -0.2500
    -0.1486  -0.0656  -0.0342  -0.0158   0.2853   0.3383   0.3413   0.3448
     0.3448   0.3813   0.4497   0.5130   0.5152   0.5157   0.5174   0.6181
     0.6522   0.6614   0.7544   0.8403   1.2866   1.3069   1.3229   1.3638
     1.3923   1.4038   1.4500   1.4806   1.5516   1.5731   1.6299   1.6377
     3.0374   3.0823   3.1041   3.1073   3.3406   3.3851   3.3996   3.5239
     3.5826   3.6119   3.6158   3.6469   4.9004   5.0886   5.1313   5.1483
     5.2264   5.2659   5.2891   5.3859   5.5227   5.5344   5.5892   5.7139
     5.7631   5.8737   5.8850   5.9676   7.3336   7.3500   7.4037   7.5038
     7.5201   7.6455   7.7408   7.7598   7.8355   7.8499   7.8664   7.8773
     7.9252   7.9371   7.9467   7.9656   7.9720   8.0068   8.0133   8.0525
     8.1483   8.1604   8.1772   8.2368   8.2984   8.3094   8.3276   8.3534
     8.3837   8.4266   8.4846   8.5576

          k = 0.0000 0.0000-0.4596 (179774 PWs)   bands (ev):

   -23.0751 -23.0751 -23.0153 -23.0153 -22.9447 -22.9447 -22.9294 -22.9294
   -22.9221 -22.9221 -22.9184 -22.9184 -22.8257 -22.8257 -22.8228 -22.8228
   -22.7267 -22.7267 -22.6763 -22.6763 -22.5925 -22.5925 -22.5877 -22.5877
   -19.5615 -19.5615 -19.5520 -19.5520 -17.9095 -17.9095 -17.8661 -17.8661
   -17.7636 -17.7636 -17.7475 -17.7475 -16.6519 -16.6519 -16.6388 -16.6388
   -16.5528 -16.5528 -16.4849 -16.4849 -16.0747 -16.0747 -16.0594 -16.0594
   -15.9353 -15.9353 -15.8957 -15.8957 -15.8106 -15.8106 -15.7724 -15.7724
   -15.4973 -15.4973 -15.4858 -15.4858 -15.1516 -15.1516 -15.1321 -15.1321
   -14.6659 -14.6659 -14.6594 -14.6594 -14.0499 -14.0499 -14.0480 -14.0480
   -13.8946 -13.8946 -13.8793 -13.8793 -12.4449 -12.4449 -12.4287 -12.4287
   -12.2285 -12.2285 -12.1978 -12.1978 -11.7486 -11.7486 -11.7422 -11.7422
    -9.8156  -9.8156  -9.7979  -9.7979  -9.7067  -9.7067  -9.6981  -9.6981
    -9.0306  -9.0306  -9.0200  -9.0200  -8.7970  -8.7970  -8.7692  -8.7692
    -8.4989  -8.4989  -8.4936  -8.4936  -8.1609  -8.1609  -8.1399  -8.1399
    -8.0219  -8.0219  -7.9952  -7.9952  -7.8955  -7.8955  -7.8736  -7.8736
    -6.9818  -6.9818  -6.9718  -6.9718  -6.9067  -6.9067  -6.8857  -6.8857
    -6.6094  -6.6094  -6.5313  -6.5313  -6.3646  -6.3646  -6.1152  -6.1152
    -6.0687  -6.0687  -6.0404  -6.0404  -5.9331  -5.9331  -5.9239  -5.9239
    -5.9161  -5.9161  -5.8852  -5.8852  -5.8290  -5.8290  -5.7609  -5.7609
    -5.6990  -5.6990  -5.6429  -5.6429  -5.4956  -5.4956  -5.3703  -5.3703
    -5.3290  -5.3290  -5.2491  -5.2491  -5.2140  -5.2140  -5.1772  -5.1772
    -4.9423  -4.9423  -4.8189  -4.8189  -4.8124  -4.8124  -4.7858  -4.7858
    -4.6611  -4.6611  -4.5850  -4.5850  -3.9505  -3.9505  -3.9038  -3.9038
    -3.7461  -3.7461  -3.7034  -3.7034  -3.4871  -3.4871  -3.4290  -3.4290
    -3.4116  -3.4116  -3.4010  -3.4010  -3.3738  -3.3738  -3.3566  -3.3566
    -3.3189  -3.3189  -3.2870  -3.2870  -2.3293  -2.3293  -2.2704  -2.2704
    -2.1364  -2.1364  -1.9976  -1.9976  -1.8745  -1.8745  -1.7729  -1.7729
    -1.7378  -1.7378  -1.6966  -1.6966  -1.5815  -1.5815  -1.5549  -1.5549
    -1.4672  -1.4672  -1.4309  -1.4309  -1.4213  -1.4213  -1.3880  -1.3880
    -1.2860  -1.2860  -1.2064  -1.2064  -1.1352  -1.1352  -1.1022  -1.1022
    -1.0679  -1.0679  -1.0517  -1.0517  -0.9599  -0.9599  -0.9367  -0.9367
    -0.7244  -0.7244  -0.6569  -0.6569  -0.6051  -0.6051  -0.5447  -0.5447
    -0.5297  -0.5297  -0.4966  -0.4966  -0.4680  -0.4680  -0.4237  -0.4237
    -0.4050  -0.4050  -0.3729  -0.3729  -0.2870  -0.2870  -0.2684  -0.2684
    -0.1225  -0.1225  -0.0144  -0.0144   0.3251   0.3251   0.3333   0.3333
     0.3975   0.3975   0.4616   0.4616   0.5108   0.5108   0.5197   0.5197
     0.7022   0.7022   0.7924   0.7924   1.2825   1.2825   1.3609   1.3609
     1.4082   1.4082   1.4574   1.4574   1.5546   1.5546   1.6353   1.6353
     3.0505   3.0505   3.1156   3.1156   3.3433   3.3433   3.4988   3.4988
     3.5626   3.5626   3.6488   3.6488   4.9681   4.9681   5.1483   5.1483
     5.2503   5.2503   5.3497   5.3497   5.5360   5.5360   5.6314   5.6314
     5.8282   5.8282   5.9293   5.9293   7.3633   7.3633   7.3963   7.3963
     7.6814   7.6814   7.7059   7.7059   7.8199   7.8199   7.8711   7.8711
     7.9253   7.9253   7.9565   7.9565   7.9888   7.9888   8.0310   8.0310
     8.1923   8.1923   8.2254   8.2254   8.2960   8.2960   8.3615   8.3615
     8.4301   8.4301   8.5093   8.5094

          k = 0.0000-0.4987 0.0000 (179808 PWs)   bands (ev):

   -23.0742 -23.0742 -23.0171 -23.0171 -22.9437 -22.9437 -22.9283 -22.9283
   -22.9217 -22.9217 -22.9199 -22.9199 -22.8249 -22.8249 -22.8235 -22.8235
   -22.7269 -22.7269 -22.6762 -22.6762 -22.5903 -22.5903 -22.5897 -22.5897
   -19.5608 -19.5608 -19.5527 -19.5527 -17.9082 -17.9082 -17.8685 -17.8685
   -17.7606 -17.7606 -17.7495 -17.7495 -16.6488 -16.6488 -16.6424 -16.6424
   -16.5526 -16.5526 -16.4848 -16.4848 -16.0801 -16.0801 -16.0540 -16.0540
   -15.9288 -15.9288 -15.9033 -15.9033 -15.8009 -15.8009 -15.7790 -15.7790
   -15.5080 -15.5080 -15.4788 -15.4788 -15.1473 -15.1473 -15.1343 -15.1343
   -14.6695 -14.6695 -14.6557 -14.6557 -14.0570 -14.0570 -14.0408 -14.0408
   -13.8975 -13.8975 -13.8765 -13.8765 -12.4441 -12.4441 -12.4299 -12.4299
   -12.2238 -12.2238 -12.2028 -12.2028 -11.7504 -11.7504 -11.7397 -11.7397
    -9.8099  -9.8099  -9.8034  -9.8034  -9.7073  -9.7073  -9.6977  -9.6977
    -9.0291  -9.0291  -9.0204  -9.0204  -8.7985  -8.7985  -8.7680  -8.7680
    -8.5030  -8.5030  -8.4904  -8.4904  -8.1611  -8.1611  -8.1414  -8.1414
    -8.0166  -8.0166  -8.0020  -8.0020  -7.8836  -7.8836  -7.8819  -7.8819
    -6.9905  -6.9905  -6.9611  -6.9611  -6.9040  -6.9040  -6.8899  -6.8899
    -6.6123  -6.6123  -6.4889  -6.4889  -6.4264  -6.4264  -6.1060  -6.1060
    -6.0841  -6.0841  -6.0016  -6.0016  -5.9581  -5.9581  -5.9276  -5.9276
    -5.8979  -5.8979  -5.8711  -5.8711  -5.8263  -5.8263  -5.7660  -5.7660
    -5.7106  -5.7106  -5.6450  -5.6450  -5.4907  -5.4907  -5.3991  -5.3991
    -5.3311  -5.3311  -5.2604  -5.2604  -5.2033  -5.2033  -5.1292  -5.1292
    -4.9483  -4.9483  -4.8261  -4.8261  -4.8119  -4.8119  -4.7513  -4.7513
    -4.6873  -4.6873  -4.6038  -4.6038  -3.9550  -3.9550  -3.9056  -3.9056
    -3.7308  -3.7308  -3.7085  -3.7085  -3.4754  -3.4754  -3.4315  -3.4315
    -3.4167  -3.4167  -3.3956  -3.3956  -3.3910  -3.3910  -3.3485  -3.3485
    -3.3025  -3.3025  -3.3012  -3.3012  -2.3234  -2.3234  -2.3013  -2.3013
    -2.1631  -2.1631  -1.9991  -1.9991  -1.8325  -1.8325  -1.7879  -1.7879
    -1.7428  -1.7428  -1.6508  -1.6508  -1.5685  -1.5685  -1.5461  -1.5461
    -1.4540  -1.4540  -1.4438  -1.4438  -1.4271  -1.4271  -1.4016  -1.4016
    -1.2839  -1.2839  -1.2258  -1.2258  -1.1581  -1.1581  -1.0900  -1.0900
    -1.0784  -1.0784  -1.0443  -1.0443  -0.9762  -0.9762  -0.9230  -0.9230
    -0.7009  -0.7009  -0.6245  -0.6245  -0.5928  -0.5928  -0.5552  -0.5552
    -0.5357  -0.5357  -0.5129  -0.5129  -0.4486  -0.4486  -0.4199  -0.4199
    -0.4051  -0.4051  -0.3652  -0.3652  -0.2834  -0.2834  -0.2818  -0.2818
    -0.1777  -0.1777  -0.0396  -0.0396   0.3352   0.3352   0.3433   0.3433
     0.3547   0.3547   0.4852   0.4852   0.5191   0.5191   0.5897   0.5897
     0.6681   0.6681   0.7799   0.7799   1.2973   1.2973   1.3735   1.3735
     1.3995   1.3995   1.4535   1.4535   1.5440   1.5440   1.6406   1.6406
     3.0459   3.0459   3.0969   3.0969   3.3886   3.3886   3.4595   3.4595
     3.5559   3.5559   3.6663   3.6663   4.9853   4.9853   5.1146   5.1146
     5.2469   5.2469   5.3782   5.3782   5.5009   5.5009   5.6424   5.6424
     5.8265   5.8265   5.9534   5.9534   7.3166   7.3166   7.4566   7.4566
     7.6234   7.6234   7.7290   7.7290   7.8000   7.8000   7.8565   7.8565
     7.9008   7.9008   7.9905   7.9905   8.0021   8.0021   8.0287   8.0287
     8.1966   8.1966   8.2231   8.2231   8.3119   8.3119   8.3329   8.3329
     8.4656   8.4657   8.5355   8.5357

          k = 0.0000-0.4987-0.4596 (179784 PWs)   bands (ev):

   -23.0742 -23.0742 -23.0172 -23.0172 -22.9437 -22.9437 -22.9276 -22.9276
   -22.9227 -22.9227 -22.9197 -22.9197 -22.8245 -22.8245 -22.8239 -22.8239
   -22.7269 -22.7269 -22.6762 -22.6762 -22.5901 -22.5901 -22.5899 -22.5899
   -19.5608 -19.5608 -19.5527 -19.5527 -17.9080 -17.9080 -17.8685 -17.8685
   -17.7626 -17.7626 -17.7476 -17.7476 -16.6481 -16.6481 -16.6429 -16.6429
   -16.5529 -16.5529 -16.4845 -16.4845 -16.0801 -16.0801 -16.0540 -16.0540
   -15.9282 -15.9282 -15.9042 -15.9042 -15.7981 -15.7981 -15.7815 -15.7815
   -15.5081 -15.5081 -15.4788 -15.4788 -15.1420 -15.1420 -15.1396 -15.1396
   -14.6663 -14.6663 -14.6588 -14.6588 -14.0568 -14.0568 -14.0410 -14.0410
   -13.8976 -13.8976 -13.8764 -13.8764 -12.4440 -12.4440 -12.4301 -12.4301
   -12.2234 -12.2234 -12.2032 -12.2032 -11.7503 -11.7503 -11.7398 -11.7398
    -9.8095  -9.8095  -9.8038  -9.8038  -9.7070  -9.7070  -9.6980  -9.6980
    -9.0290  -9.0290  -9.0204  -9.0204  -8.7984  -8.7984  -8.7684  -8.7684
    -8.5012  -8.5012  -8.4920  -8.4920  -8.1606  -8.1606  -8.1420  -8.1420
    -8.0096  -8.0096  -8.0086  -8.0086  -7.8837  -7.8837  -7.8823  -7.8823
    -6.9903  -6.9903  -6.9615  -6.9615  -6.9053  -6.9053  -6.8872  -6.8872
    -6.5850  -6.5850  -6.5648  -6.5648  -6.3608  -6.3608  -6.0937  -6.0937
    -6.0842  -6.0842  -6.0306  -6.0306  -5.9669  -5.9669  -5.9439  -5.9439
    -5.9003  -5.9003  -5.8899  -5.8899  -5.7765  -5.7765  -5.7670  -5.7670
    -5.6865  -5.6865  -5.6675  -5.6675  -5.4967  -5.4967  -5.4053  -5.4053
    -5.3290  -5.3290  -5.2613  -5.2613  -5.2035  -5.2035  -5.1189  -5.1189
    -4.9426  -4.9426  -4.8385  -4.8385  -4.8152  -4.8152  -4.7612  -4.7612
    -4.6413  -4.6413  -4.6353  -4.6353  -3.9552  -3.9552  -3.9074  -3.9074
    -3.7263  -3.7263  -3.7084  -3.7084  -3.4642  -3.4642  -3.4484  -3.4484
    -3.4054  -3.4054  -3.3979  -3.3979  -3.3843  -3.3843  -3.3616  -3.3616
    -3.3042  -3.3042  -3.2974  -3.2974  -2.3354  -2.3354  -2.2894  -2.2894
    -2.1680  -2.1680  -1.9804  -1.9804  -1.8594  -1.8594  -1.7787  -1.7787
    -1.7156  -1.7156  -1.6808  -1.6808  -1.5631  -1.5631  -1.5390  -1.5390
    -1.4625  -1.4625  -1.4583  -1.4583  -1.4341  -1.4341  -1.3949  -1.3949
    -1.2892  -1.2892  -1.2078  -1.2078  -1.1430  -1.1430  -1.1233  -1.1233
    -1.0783  -1.0783  -1.0491  -1.0491  -0.9302  -0.9302  -0.9135  -0.9135
    -0.6852  -0.6852  -0.6461  -0.6461  -0.5828  -0.5828  -0.5694  -0.5694
    -0.5427  -0.5427  -0.5410  -0.5410  -0.4476  -0.4476  -0.4226  -0.4226
    -0.3892  -0.3892  -0.3780  -0.3780  -0.2809  -0.2809  -0.2710  -0.2710
    -0.1753  -0.1753  -0.0470  -0.0470   0.3331   0.3331   0.3420   0.3420
     0.4140   0.4140   0.4510   0.4510   0.5303   0.5303   0.5355   0.5355
     0.6981   0.6981   0.7786   0.7786   1.3108   1.3108   1.3530   1.3530
     1.4061   1.4061   1.4567   1.4567   1.5488   1.5488   1.6332   1.6332
     3.0509   3.0509   3.0881   3.0881   3.3964   3.3964   3.4582   3.4582
     3.5586   3.5586   3.6614   3.6614   5.0214   5.0214   5.0511   5.0511
     5.2925   5.2925   5.3595   5.3595   5.5169   5.5169   5.6143   5.6143
     5.8561   5.8561   5.9347   5.9347   7.3398   7.3398   7.3947   7.3947
     7.6700   7.6700   7.7693   7.7693   7.7989   7.7989   7.8226   7.8226
     7.9364   7.9364   7.9386   7.9386   8.0052   8.0052   8.0283   8.0283
     8.2023   8.2023   8.2173   8.2173   8.3175   8.3175   8.3583   8.3583
     8.4693   8.4693   8.4837   8.4837

          k =-0.5000 0.0000-0.1317 (179780 PWs)   bands (ev):

   -23.0720 -23.0720 -23.0116 -23.0116 -22.9573 -22.9573 -22.9411 -22.9411
   -22.9131 -22.9131 -22.9075 -22.9075 -22.8265 -22.8265 -22.8262 -22.8262
   -22.7276 -22.7276 -22.6769 -22.6769 -22.5918 -22.5918 -22.5847 -22.5847
   -19.5614 -19.5614 -19.5521 -19.5521 -17.9095 -17.9095 -17.8663 -17.8663
   -17.7610 -17.7610 -17.7495 -17.7495 -16.6503 -16.6503 -16.6372 -16.6372
   -16.5548 -16.5548 -16.4891 -16.4891 -16.0769 -16.0769 -16.0622 -16.0622
   -15.9394 -15.9394 -15.8948 -15.8948 -15.8190 -15.8190 -15.7610 -15.7610
   -15.5075 -15.5075 -15.4941 -15.4941 -15.1240 -15.1240 -15.1049 -15.1049
   -14.6902 -14.6902 -14.6760 -14.6760 -14.0036 -14.0036 -13.9992 -13.9992
   -13.9307 -13.9307 -13.9136 -13.9136 -12.4489 -12.4489 -12.4346 -12.4346
   -12.2319 -12.2319 -12.2104 -12.2104 -11.7498 -11.7498 -11.7440 -11.7440
    -9.8218  -9.8218  -9.8002  -9.8002  -9.7043  -9.7043  -9.6828  -9.6828
    -9.0308  -9.0308  -9.0206  -9.0206  -8.7779  -8.7779  -8.7514  -8.7514
    -8.5390  -8.5390  -8.5244  -8.5244  -8.1124  -8.1124  -8.1017  -8.1017
    -8.0203  -8.0203  -7.9834  -7.9834  -7.9106  -7.9106  -7.8931  -7.8931
    -6.9620  -6.9620  -6.9581  -6.9581  -6.8962  -6.8962  -6.8770  -6.8770
    -6.6065  -6.6065  -6.5362  -6.5362  -6.3734  -6.3734  -6.2099  -6.2099
    -6.1300  -6.1300  -6.0418  -6.0418  -5.9629  -5.9629  -5.9253  -5.9253
    -5.8713  -5.8713  -5.8644  -5.8644  -5.7755  -5.7755  -5.7366  -5.7366
    -5.7242  -5.7242  -5.6847  -5.6847  -5.3996  -5.3996  -5.3948  -5.3948
    -5.2795  -5.2795  -5.2580  -5.2580  -5.1836  -5.1836  -5.1299  -5.1299
    -4.9711  -4.9711  -4.9323  -4.9323  -4.8566  -4.8566  -4.8235  -4.8235
    -4.6547  -4.6547  -4.5331  -4.5331  -3.9423  -3.9423  -3.8739  -3.8739
    -3.7498  -3.7498  -3.7043  -3.7043  -3.5589  -3.5589  -3.4862  -3.4862
    -3.4283  -3.4283  -3.4162  -3.4162  -3.3470  -3.3470  -3.3174  -3.3174
    -3.2985  -3.2985  -3.2716  -3.2716  -2.3016  -2.3016  -2.2910  -2.2910
    -2.1434  -2.1434  -1.9914  -1.9914  -1.8476  -1.8476  -1.8062  -1.8062
    -1.7021  -1.7021  -1.6653  -1.6653  -1.5994  -1.5994  -1.5527  -1.5527
    -1.5072  -1.5072  -1.4876  -1.4876  -1.3806  -1.3806  -1.3620  -1.3620
    -1.3079  -1.3079  -1.2220  -1.2220  -1.1887  -1.1887  -1.1298  -1.1298
    -1.0197  -1.0197  -0.9675  -0.9675  -0.9543  -0.9543  -0.9143  -0.9143
    -0.7227  -0.7227  -0.6311  -0.6311  -0.5943  -0.5943  -0.5457  -0.5457
    -0.5406  -0.5406  -0.4983  -0.4983  -0.4431  -0.4431  -0.4247  -0.4247
    -0.3884  -0.3884  -0.3498  -0.3498  -0.3040  -0.3040  -0.2986  -0.2986
    -0.1181  -0.1181  -0.0171  -0.0171   0.2899   0.2899   0.3177   0.3177
     0.4166   0.4166   0.4404   0.4404   0.5079   0.5079   0.5332   0.5332
     0.6962   0.6962   0.7939   0.7939   1.3067   1.3067   1.3421   1.3421
     1.4256   1.4256   1.4725   1.4725   1.5419   1.5419   1.6290   1.6290
     3.0559   3.0559   3.1111   3.1111   3.3468   3.3468   3.4749   3.4749
     3.5752   3.5752   3.6432   3.6432   4.9972   4.9972   5.1372   5.1372
     5.2377   5.2377   5.3532   5.3532   5.6007   5.6007   5.6364   5.6364
     5.7248   5.7248   5.9075   5.9075   7.3739   7.3739   7.3990   7.3990
     7.6638   7.6638   7.7428   7.7428   7.8363   7.8363   7.8717   7.8717
     7.8999   7.8999   7.9319   7.9319   7.9628   7.9628   8.0228   8.0228
     8.0777   8.0777   8.1712   8.1712   8.3350   8.3350   8.3978   8.3978
     8.4501   8.4502   8.5652   8.5652

          k =-0.5000 0.0000-0.5913 (179830 PWs)   bands (ev):

   -23.0750 -23.0685 -23.0151 -23.0087 -22.9589 -22.9560 -22.9418 -22.9396
   -22.9146 -22.9114 -22.9098 -22.9058 -22.8268 -22.8266 -22.8261 -22.8259
   -22.7306 -22.7241 -22.6810 -22.6733 -22.5919 -22.5916 -22.5853 -22.5842
   -19.5634 -19.5581 -19.5549 -19.5506 -17.9141 -17.9042 -17.8688 -17.8643
   -17.7685 -17.7523 -17.7504 -17.7501 -16.6531 -16.6451 -16.6398 -16.6370
   -16.5563 -16.5531 -16.4962 -16.4822 -16.0789 -16.0744 -16.0627 -16.0621
   -15.9430 -15.9357 -15.8961 -15.8933 -15.8227 -15.8145 -15.7716 -15.7517
   -15.5102 -15.5041 -15.4953 -15.4934 -15.1228 -15.1213 -15.1201 -15.0934
   -14.6961 -14.6843 -14.6804 -14.6717 -14.0036 -14.0029 -14.0011 -13.9979
   -13.9325 -13.9292 -13.9161 -13.9108 -12.4503 -12.4481 -12.4358 -12.4326
   -12.2351 -12.2291 -12.2118 -12.2087 -11.7499 -11.7495 -11.7452 -11.7429
    -9.8235  -9.8199  -9.8034  -9.7971  -9.7080  -9.6998  -9.6833  -9.6831
    -9.0310  -9.0302  -9.0214  -9.0200  -8.7820  -8.7740  -8.7533  -8.7497
    -8.5465  -8.5290  -8.5278  -8.5234  -8.1142  -8.1067  -8.1049  -8.1022
    -8.0323  -8.0052  -7.9872  -7.9821  -7.9110  -7.9089  -7.9017  -7.8863
    -6.9632  -6.9622  -6.9576  -6.9567  -6.9024  -6.8841  -6.8793  -6.8782
    -6.6434  -6.5858  -6.5385  -6.4890  -6.4688  -6.2854  -6.1900  -6.1819
    -6.1685  -6.1677  -6.0873  -5.9957  -5.9850  -5.9623  -5.9382  -5.9357
    -5.8686  -5.8573  -5.8226  -5.8119  -5.7883  -5.7816  -5.7744  -5.7744
    -5.7250  -5.7091  -5.7048  -5.6266  -5.4345  -5.4285  -5.3848  -5.3334
    -5.3211  -5.2835  -5.2331  -5.2321  -5.2187  -5.1699  -5.1608  -5.1062
    -5.0310  -4.9930  -4.9103  -4.8681  -4.8667  -4.8403  -4.8272  -4.8191
    -4.6439  -4.6399  -4.6252  -4.4777  -3.9458  -3.9338  -3.8892  -3.8820
    -3.7541  -3.7422  -3.7128  -3.6995  -3.5585  -3.5277  -3.4964  -3.4752
    -3.4465  -3.4272  -3.4240  -3.4231  -3.3465  -3.3280  -3.3254  -3.3178
    -3.3019  -3.2957  -3.2795  -3.2632  -2.3576  -2.2890  -2.2867  -2.2588
    -2.1584  -2.1306  -1.9748  -1.9730  -1.9195  -1.8520  -1.7758  -1.7556
    -1.7139  -1.7048  -1.6812  -1.6338  -1.6099  -1.5927  -1.5701  -1.5519
    -1.5427  -1.5053  -1.5050  -1.4259  -1.3937  -1.3747  -1.3618  -1.3544
    -1.2849  -1.2791  -1.2721  -1.2218  -1.1769  -1.1651  -1.1504  -1.1359
    -1.0225  -1.0015  -0.9981  -0.9745  -0.9636  -0.9574  -0.9356  -0.9290
    -0.7290  -0.6746  -0.6701  -0.6019  -0.6010  -0.5822  -0.5738  -0.5581
    -0.5199  -0.4969  -0.4924  -0.4816  -0.4774  -0.4562  -0.4212  -0.4207
    -0.3962  -0.3851  -0.3497  -0.3295  -0.3164  -0.3095  -0.3039  -0.3015
    -0.1531  -0.0639  -0.0221  -0.0174   0.2749   0.3047   0.3166   0.3192
     0.3500   0.3564   0.4700   0.5061   0.5156   0.5332   0.5387   0.6320
     0.6339   0.6476   0.7284   0.8518   1.2991   1.3174   1.3367   1.3873
     1.3952   1.4356   1.4590   1.4687   1.5288   1.5600   1.6186   1.6326
     3.0466   3.0734   3.1053   3.1102   3.3485   3.3664   3.3984   3.5259
     3.5939   3.5980   3.6015   3.6464   4.9740   5.0977   5.0980   5.1110
     5.2353   5.2405   5.2836   5.3964   5.5316   5.6417   5.6562   5.6622
     5.7063   5.8177   5.8644   5.8689   7.3457   7.3693   7.4118   7.4785
     7.5556   7.7050   7.7477   7.7577   7.8119   7.8552   7.8747   7.8798
     7.8813   7.9328   7.9333   7.9437   7.9669   7.9916   7.9928   8.0147
     8.0297   8.1190   8.1493   8.2056   8.3265   8.3348   8.3699   8.3862
     8.4538   8.4625   8.4904   8.5686

          k =-0.5000-0.4987-0.1317 (179832 PWs)   bands (ev):

   -23.0714 -23.0714 -23.0125 -23.0125 -22.9554 -22.9554 -22.9437 -22.9437
   -22.9149 -22.9149 -22.9048 -22.9048 -22.8266 -22.8266 -22.8261 -22.8261
   -22.7271 -22.7271 -22.6777 -22.6777 -22.5886 -22.5886 -22.5876 -22.5876
   -19.5608 -19.5608 -19.5527 -19.5527 -17.9079 -17.9079 -17.8690 -17.8690
   -17.7596 -17.7596 -17.7498 -17.7498 -16.6486 -16.6486 -16.6399 -16.6399
   -16.5535 -16.5535 -16.4896 -16.4896 -16.0821 -16.0821 -16.0574 -16.0574
   -15.9322 -15.9322 -15.9029 -15.9029 -15.8073 -15.8073 -15.7708 -15.7708
   -15.5150 -15.5150 -15.4879 -15.4879 -15.1284 -15.1284 -15.0995 -15.0995
   -14.6906 -14.6906 -14.6752 -14.6752 -14.0109 -14.0109 -13.9921 -13.9921
   -13.9305 -13.9305 -13.9137 -13.9137 -12.4447 -12.4447 -12.4392 -12.4392
   -12.2270 -12.2270 -12.2154 -12.2154 -11.7511 -11.7511 -11.7422 -11.7422
    -9.8116  -9.8116  -9.8104  -9.8104  -9.7053  -9.7053  -9.6817  -9.6817
    -9.0271  -9.0271  -9.0232  -9.0232  -8.7755  -8.7755  -8.7556  -8.7556
    -8.5342  -8.5342  -8.5289  -8.5289  -8.1067  -8.1067  -8.1065  -8.1065
    -8.0124  -8.0124  -7.9963  -7.9963  -7.9024  -7.9024  -7.8973  -7.8973
    -6.9716  -6.9716  -6.9482  -6.9482  -6.8951  -6.8951  -6.8781  -6.8781
    -6.5795  -6.5795  -6.5598  -6.5598  -6.3775  -6.3775  -6.1851  -6.1851
    -6.1496  -6.1496  -6.0541  -6.0541  -5.9864  -5.9864  -5.9493  -5.9493
    -5.8562  -5.8562  -5.8151  -5.8151  -5.7550  -5.7550  -5.7540  -5.7540
    -5.7132  -5.7132  -5.7014  -5.7014  -5.4942  -5.4942  -5.3048  -5.3048
    -5.2713  -5.2713  -5.2364  -5.2364  -5.1772  -5.1772  -5.1530  -5.1530
    -4.9648  -4.9648  -4.9443  -4.9443  -4.8445  -4.8445  -4.8345  -4.8345
    -4.6488  -4.6488  -4.5507  -4.5507  -3.9358  -3.9358  -3.8946  -3.8946
    -3.7346  -3.7346  -3.7104  -3.7104  -3.5183  -3.5183  -3.5168  -3.5168
    -3.4339  -3.4339  -3.4085  -3.4085  -3.3459  -3.3459  -3.3267  -3.3267
    -3.2827  -3.2827  -3.2818  -3.2818  -2.3286  -2.3286  -2.3011  -2.3011
    -2.1518  -2.1518  -2.0166  -2.0166  -1.8124  -1.8124  -1.7598  -1.7598
    -1.6889  -1.6889  -1.6839  -1.6839  -1.5542  -1.5542  -1.5514  -1.5514
    -1.5217  -1.5217  -1.4928  -1.4928  -1.3970  -1.3970  -1.3678  -1.3678
    -1.2769  -1.2769  -1.2354  -1.2354  -1.1780  -1.1780  -1.1566  -1.1566
    -1.0200  -1.0200  -0.9889  -0.9889  -0.9666  -0.9666  -0.9211  -0.9211
    -0.6928  -0.6928  -0.6474  -0.6474  -0.5752  -0.5752  -0.5504  -0.5504
    -0.4783  -0.4783  -0.4759  -0.4759  -0.4597  -0.4597  -0.4413  -0.4413
    -0.3889  -0.3889  -0.3519  -0.3519  -0.3100  -0.3100  -0.3035  -0.3035
    -0.1793  -0.1793  -0.0298  -0.0298   0.2999   0.2999   0.3202   0.3202
     0.3921   0.3921   0.4511   0.4511   0.5420   0.5420   0.5421   0.5421
     0.7140   0.7140   0.7630   0.7630   1.3452   1.3452   1.3534   1.3534
     1.4160   1.4160   1.4329   1.4329   1.5524   1.5524   1.6273   1.6273
     3.0602   3.0602   3.0832   3.0832   3.4050   3.4050   3.4312   3.4312
     3.5687   3.5687   3.6536   3.6536   5.0352   5.0352   5.0881   5.0881
     5.2512   5.2512   5.3181   5.3181   5.6183   5.6183   5.6270   5.6270
     5.7503   5.7503   5.9126   5.9126   7.3524   7.3524   7.4078   7.4078
     7.6894   7.6894   7.7225   7.7225   7.7933   7.7933   7.8863   7.8863
     7.9254   7.9254   7.9344   7.9344   7.9748   7.9748   7.9989   7.9989
     8.0894   8.0894   8.1592   8.1592   8.3225   8.3225   8.3939   8.3939
     8.4765   8.4766   8.5394   8.5394

          k =-0.5000-0.4987-0.5913 (179884 PWs)   bands (ev):

   -23.0714 -23.0714 -23.0125 -23.0125 -22.9551 -22.9551 -22.9443 -22.9443
   -22.9141 -22.9141 -22.9053 -22.9053 -22.8268 -22.8268 -22.8259 -22.8259
   -22.7271 -22.7271 -22.6777 -22.6777 -22.5889 -22.5889 -22.5873 -22.5873
   -19.5608 -19.5608 -19.5527 -19.5527 -17.9083 -17.9083 -17.8683 -17.8683
   -17.7621 -17.7621 -17.7476 -17.7476 -16.6489 -16.6489 -16.6393 -16.6393
   -16.5540 -16.5540 -16.4893 -16.4893 -16.0822 -16.0822 -16.0573 -16.0573
   -15.9325 -15.9325 -15.9020 -15.9020 -15.8092 -15.8092 -15.7694 -15.7694
   -15.5149 -15.5149 -15.4880 -15.4880 -15.1300 -15.1300 -15.0979 -15.0979
   -14.6925 -14.6925 -14.6734 -14.6734 -14.0109 -14.0109 -13.9921 -13.9921
   -13.9310 -13.9310 -13.9133 -13.9133 -12.4451 -12.4451 -12.4388 -12.4388
   -12.2275 -12.2275 -12.2149 -12.2149 -11.7512 -11.7512 -11.7421 -11.7421
    -9.8132  -9.8132  -9.8088  -9.8088  -9.7054  -9.7054  -9.6816  -9.6816
    -9.0270  -9.0270  -9.0232  -9.0232  -8.7762  -8.7762  -8.7550  -8.7550
    -8.5382  -8.5382  -8.5249  -8.5249  -8.1091  -8.1091  -8.1036  -8.1036
    -8.0149  -8.0149  -7.9945  -7.9945  -7.9040  -7.9040  -7.8957  -7.8957
    -6.9716  -6.9716  -6.9484  -6.9484  -6.8946  -6.8946  -6.8798  -6.8798
    -6.6072  -6.6072  -6.4914  -6.4914  -6.4269  -6.4269  -6.1783  -6.1783
    -6.1574  -6.1574  -6.0353  -6.0353  -5.9746  -5.9746  -5.9267  -5.9267
    -5.8816  -5.8816  -5.8620  -5.8620  -5.7694  -5.7694  -5.7410  -5.7410
    -5.7171  -5.7171  -5.6581  -5.6581  -5.4975  -5.4975  -5.2992  -5.2992
    -5.2720  -5.2720  -5.2385  -5.2385  -5.2005  -5.2005  -5.1340  -5.1340
    -4.9940  -4.9940  -4.8947  -4.8947  -4.8692  -4.8692  -4.8347  -4.8347
    -4.6501  -4.6501  -4.5487  -4.5487  -3.9369  -3.9369  -3.8961  -3.8961
    -3.7288  -3.7288  -3.7108  -3.7108  -3.5259  -3.5259  -3.4996  -3.4996
    -3.4512  -3.4512  -3.4011  -3.4011  -3.3497  -3.3497  -3.3243  -3.3242
    -3.2871  -3.2871  -3.2773  -3.2772  -2.3255  -2.3255  -2.3081  -2.3081
    -2.1463  -2.1463  -2.0021  -2.0021  -1.8395  -1.8395  -1.7386  -1.7386
    -1.7127  -1.7127  -1.6682  -1.6682  -1.5954  -1.5954  -1.5442  -1.5442
    -1.5078  -1.5078  -1.4875  -1.4875  -1.3894  -1.3894  -1.3709  -1.3709
    -1.2822  -1.2822  -1.2280  -1.2280  -1.1867  -1.1867  -1.1571  -1.1571
    -1.0009  -1.0009  -0.9817  -0.9817  -0.9620  -0.9620  -0.9131  -0.9131
    -0.6861  -0.6861  -0.6425  -0.6425  -0.6030  -0.6030  -0.5594  -0.5594
    -0.5049  -0.5049  -0.4922  -0.4922  -0.4440  -0.4440  -0.4040  -0.4040
    -0.3871  -0.3871  -0.3770  -0.3770  -0.3140  -0.3140  -0.2876  -0.2876
    -0.1785  -0.1785  -0.0263  -0.0263   0.2987   0.2987   0.3222   0.3222
     0.3532   0.3532   0.4772   0.4772   0.5299   0.5299   0.6087   0.6087
     0.6594   0.6594   0.7738   0.7738   1.3276   1.3276   1.3880   1.3880
     1.3974   1.3974   1.4395   1.4395   1.5500   1.5500   1.6240   1.6240
     3.0563   3.0563   3.0916   3.0916   3.3912   3.3912   3.4413   3.4413
     3.5644   3.5644   3.6575   3.6575   5.0480   5.0480   5.1114   5.1114
     5.1882   5.1882   5.3395   5.3395   5.5745   5.5745   5.6713   5.6713
     5.7918   5.7918   5.8753   5.8753   7.3251   7.3251   7.4691   7.4691
     7.5895   7.5895   7.7433   7.7433   7.8578   7.8578   7.8973   7.8973
     7.9145   7.9145   7.9458   7.9458   7.9496   7.9496   8.0006   8.0006
     8.0778   8.0778   8.1838   8.1838   8.3267   8.3267   8.3907   8.3907
     8.4375   8.4375   8.5417   8.5418

     highest occupied, lowest unoccupied level (ev):     1.6406    3.0374

!    total energy              =   -3409.90058550 Ry
     Harris-Foulkes estimate   =   -3409.90058551 Ry
     estimated scf accuracy    <          6.2E-09 Ry

     total all-electron energy =    -13073.800450 Ry

     The total energy is the sum of the following terms:

     one-electron contribution =   -1953.46605898 Ry
     hartree contribution      =    1223.02631610 Ry
     xc contribution           =    -663.86701656 Ry
     ewald contribution        =   -1043.16072560 Ry
     Dispersion Correction     =      -0.66119350 Ry
     one-center paw contrib.   =    -971.77190697 Ry

     convergence has been achieved in  15 iterations

     Forces acting on atoms (cartesian axes, Ry/au):

     atom    1 type  1   force =    -0.00049704    0.00023134    0.00061166
     atom    2 type  1   force =     0.00049704    0.00023134   -0.00061166
     atom    3 type  1   force =     0.00049704   -0.00023134   -0.00061166
     atom    4 type  1   force =    -0.00049704   -0.00023134    0.00061166
     atom    5 type  2   force =    -0.00023412    0.00008057   -0.00078196
     atom    6 type  2   force =     0.00023412    0.00008057    0.00078196
     atom    7 type  2   force =     0.00023412   -0.00008057    0.00078196
     atom    8 type  2   force =    -0.00023412   -0.00008057   -0.00078196
     atom    9 type  3   force =     0.00043420   -0.00024853    0.00027284
     atom   10 type  3   force =    -0.00043420   -0.00024853   -0.00027284
     atom   11 type  3   force =    -0.00043420    0.00024853   -0.00027284
     atom   12 type  3   force =     0.00043420    0.00024853    0.00027284
     atom   13 type  3   force =     0.00027151   -0.00085167    0.00034805
     atom   14 type  3   force =    -0.00027151   -0.00085167   -0.00034805
     atom   15 type  3   force =    -0.00027151    0.00085167   -0.00034805
     atom   16 type  3   force =     0.00027151    0.00085167    0.00034805
     atom   17 type  2   force =     0.00020811   -0.00021063   -0.00027592
     atom   18 type  2   force =    -0.00020811   -0.00021063    0.00027592
     atom   19 type  2   force =    -0.00020811    0.00021063    0.00027592
     atom   20 type  2   force =     0.00020811    0.00021063   -0.00027592
     atom   21 type  4   force =    -0.00063039    0.00032525   -0.00074806
     atom   22 type  4   force =     0.00063039    0.00032525    0.00074806
     atom   23 type  4   force =     0.00063039   -0.00032525    0.00074806
     atom   24 type  4   force =    -0.00063039   -0.00032525   -0.00074806
     atom   25 type  2   force =    -0.00044457    0.00047011   -0.00042930
     atom   26 type  2   force =     0.00044457    0.00047011    0.00042930
     atom   27 type  2   force =     0.00044457   -0.00047011    0.00042930
     atom   28 type  2   force =    -0.00044457   -0.00047011   -0.00042930
     atom   29 type  1   force =    -0.00038424   -0.00025538    0.00089304
     atom   30 type  1   force =     0.00038424   -0.00025538   -0.00089304
     atom   31 type  1   force =     0.00038424    0.00025538   -0.00089304
     atom   32 type  1   force =    -0.00038424    0.00025538    0.00089304
     atom   33 type  4   force =     0.00004823    0.00091726    0.00002570
     atom   34 type  4   force =    -0.00004823    0.00091726   -0.00002570
     atom   35 type  4   force =    -0.00004823   -0.00091726   -0.00002570
     atom   36 type  4   force =     0.00004823   -0.00091726    0.00002570
     atom   37 type  2   force =     0.00114439   -0.00004417    0.00029432
     atom   38 type  2   force =    -0.00114439   -0.00004417   -0.00029432
     atom   39 type  2   force =    -0.00114439    0.00004417   -0.00029432
     atom   40 type  2   force =     0.00114439    0.00004417    0.00029432
     atom   41 type  2   force =    -0.00042927   -0.00020309   -0.00059505
     atom   42 type  2   force =     0.00042927   -0.00020309    0.00059505
     atom   43 type  2   force =     0.00042927    0.00020309    0.00059505
     atom   44 type  2   force =    -0.00042927    0.00020309   -0.00059505
     atom   45 type  1   force =    -0.00028483   -0.00020276   -0.00103938
     atom   46 type  1   force =     0.00028483   -0.00020276    0.00103938
     atom   47 type  1   force =     0.00028483    0.00020276    0.00103938
     atom   48 type  1   force =    -0.00028483    0.00020276   -0.00103938
     atom   49 type  2   force =    -0.00022200   -0.00054133   -0.00001498
     atom   50 type  2   force =     0.00022200   -0.00054133    0.00001498
     atom   51 type  2   force =     0.00022200    0.00054133    0.00001498
     atom   52 type  2   force =    -0.00022200    0.00054133   -0.00001498
     atom   53 type  4   force =     0.00055598    0.00084696    0.00051936
     atom   54 type  4   force =    -0.00055598    0.00084696   -0.00051936
     atom   55 type  4   force =    -0.00055598   -0.00084696   -0.00051936
     atom   56 type  4   force =     0.00055598   -0.00084696    0.00051936
     atom   57 type  2   force =     0.00022408    0.00008664    0.00034418
     atom   58 type  2   force =    -0.00022408    0.00008664   -0.00034418
     atom   59 type  2   force =    -0.00022408   -0.00008664   -0.00034418
     atom   60 type  2   force =     0.00022408   -0.00008664    0.00034418
     atom   61 type  1   force =     0.00069932   -0.00070123   -0.00026159
     atom   62 type  1   force =    -0.00069932   -0.00070123    0.00026159
     atom   63 type  1   force =    -0.00069932    0.00070123    0.00026159
     atom   64 type  1   force =     0.00069932    0.00070123   -0.00026159
     atom   65 type  2   force =     0.00008295    0.00014372    0.00029959
     atom   66 type  2   force =    -0.00008295    0.00014372   -0.00029959
     atom   67 type  2   force =    -0.00008295   -0.00014372   -0.00029959
     atom   68 type  2   force =     0.00008295   -0.00014372    0.00029959
     atom   69 type  2   force =     0.00017149   -0.00009200    0.00036115
     atom   70 type  2   force =    -0.00017149   -0.00009200   -0.00036115
     atom   71 type  2   force =    -0.00017149    0.00009200   -0.00036115
     atom   72 type  2   force =     0.00017149    0.00009200    0.00036115
     atom   73 type  1   force =    -0.00058055    0.00038356    0.00009953
     atom   74 type  1   force =     0.00058055    0.00038356   -0.00009953
     atom   75 type  1   force =     0.00058055   -0.00038356   -0.00009953
     atom   76 type  1   force =    -0.00058055   -0.00038356    0.00009953
     atom   77 type  2   force =    -0.00021371    0.00017905   -0.00022209
     atom   78 type  2   force =     0.00021371    0.00017905    0.00022209
     atom   79 type  2   force =     0.00021371   -0.00017905    0.00022209
     atom   80 type  2   force =    -0.00021371   -0.00017905   -0.00022209
     atom   81 type  4   force =    -0.00054118   -0.00050063   -0.00001560
     atom   82 type  4   force =     0.00054118   -0.00050063    0.00001560
     atom   83 type  4   force =     0.00054118    0.00050063    0.00001560
     atom   84 type  4   force =    -0.00054118    0.00050063   -0.00001560
     atom   85 type  2   force =    -0.00010561    0.00035791    0.00016773
     atom   86 type  2   force =     0.00010561    0.00035791   -0.00016773
     atom   87 type  2   force =     0.00010561   -0.00035791   -0.00016773
     atom   88 type  2   force =    -0.00010561   -0.00035791    0.00016773
     atom   89 type  1   force =     0.00075107   -0.00015284    0.00044253
     atom   90 type  1   force =    -0.00075107   -0.00015284   -0.00044253
     atom   91 type  1   force =    -0.00075107    0.00015284   -0.00044253
     atom   92 type  1   force =     0.00075107    0.00015284    0.00044253
     atom   93 type  2   force =     0.00011112    0.00044890    0.00049726
     atom   94 type  2   force =    -0.00011112    0.00044890   -0.00049726
     atom   95 type  2   force =    -0.00011112   -0.00044890   -0.00049726
     atom   96 type  2   force =     0.00011112   -0.00044890    0.00049726
     atom   97 type  2   force =    -0.00078471   -0.00072893    0.00080734
     atom   98 type  2   force =     0.00078471   -0.00072893   -0.00080734
     atom   99 type  2   force =     0.00078471    0.00072893   -0.00080734
     atom  100 type  2   force =    -0.00078471    0.00072893    0.00080734
     atom  101 type  4   force =     0.00024007   -0.00055322    0.00022825
     atom  102 type  4   force =    -0.00024007   -0.00055322   -0.00022825
     atom  103 type  4   force =    -0.00024007    0.00055322   -0.00022825
     atom  104 type  4   force =     0.00024007    0.00055322    0.00022825
     atom  105 type  1   force =     0.00105865    0.00052476   -0.00008839
     atom  106 type  1   force =    -0.00105865    0.00052476    0.00008839
     atom  107 type  1   force =    -0.00105865   -0.00052476    0.00008839
     atom  108 type  1   force =     0.00105865   -0.00052476   -0.00008839
     atom  109 type  2   force =     0.00019359   -0.00071173    0.00004681
     atom  110 type  2   force =    -0.00019359   -0.00071173   -0.00004681
     atom  111 type  2   force =    -0.00019359    0.00071173   -0.00004681
     atom  112 type  2   force =     0.00019359    0.00071173    0.00004681
     atom  113 type  4   force =     0.00049782   -0.00080421   -0.00009782
     atom  114 type  4   force =    -0.00049782   -0.00080421    0.00009782
     atom  115 type  4   force =    -0.00049782    0.00080421    0.00009782
     atom  116 type  4   force =     0.00049782    0.00080421   -0.00009782
     atom  117 type  2   force =    -0.00041917    0.00016316    0.00018896
     atom  118 type  2   force =     0.00041917    0.00016316   -0.00018896
     atom  119 type  2   force =     0.00041917   -0.00016316   -0.00018896
     atom  120 type  2   force =    -0.00041917   -0.00016316    0.00018896
     atom  121 type  2   force =     0.00064267   -0.00003173    0.00064880
     atom  122 type  2   force =    -0.00064267   -0.00003173   -0.00064880
     atom  123 type  2   force =    -0.00064267    0.00003173   -0.00064880
     atom  124 type  2   force =     0.00064267    0.00003173    0.00064880
     atom  125 type  3   force =    -0.00005893    0.00003481   -0.00055110
     atom  126 type  3   force =     0.00005893    0.00003481    0.00055110
     atom  127 type  3   force =     0.00005893   -0.00003481    0.00055110
     atom  128 type  3   force =    -0.00005893   -0.00003481   -0.00055110
     atom  129 type  3   force =    -0.00101941    0.00065628   -0.00021346
     atom  130 type  3   force =     0.00101941    0.00065628    0.00021346
     atom  131 type  3   force =     0.00101941   -0.00065628    0.00021346
     atom  132 type  3   force =    -0.00101941   -0.00065628   -0.00021346
     atom  133 type  1   force =    -0.00013415    0.00004952    0.00008729
     atom  134 type  1   force =     0.00013415    0.00004952   -0.00008729
     atom  135 type  1   force =     0.00013415   -0.00004952   -0.00008729
     atom  136 type  1   force =    -0.00013415   -0.00004952    0.00008729

     Total force =     0.009629     Total SCF correction =     0.000181


     Computing stress (Cartesian axis) and pressure

          total   stress  (Ry/bohr**3)                   (kbar)     P=   -1.02
  -0.00002627   0.00000000  -0.00000296         -3.87      0.00     -0.44
   0.00000000   0.00000212   0.00000000          0.00      0.31      0.00
  -0.00000296   0.00000000   0.00000341         -0.44      0.00      0.50


     Writing output data file scf.save
 
     init_run     :    193.41s CPU    198.92s WALL (       1 calls)
     electrons    :   7028.55s CPU   7226.07s WALL (       1 calls)
     forces       :    103.88s CPU    104.35s WALL (       1 calls)
     stress       :    535.46s CPU    536.38s WALL (       1 calls)

     Called by init_run:
     wfcinit      :    176.64s CPU    181.89s WALL (       1 calls)
     potinit      :      5.91s CPU      5.98s WALL (       1 calls)

     Called by electrons:
     c_bands      :   6405.99s CPU   6575.99s WALL (      15 calls)
     sum_band     :    600.95s CPU    625.72s WALL (      15 calls)
     v_of_rho     :      3.40s CPU      3.75s WALL (      16 calls)
     newd         :      9.64s CPU     11.87s WALL (      16 calls)
     PAW_pot      :      8.21s CPU      8.22s WALL (      16 calls)
     mix_rho      :      0.71s CPU      0.79s WALL (      15 calls)

     Called by c_bands:
     init_us_2    :     18.97s CPU     19.08s WALL (     264 calls)
     cegterg      :   6314.22s CPU   6484.11s WALL (     120 calls)

     Called by sum_band:
     sum_band:bec :      0.34s CPU      0.34s WALL (     120 calls)
     addusdens    :      9.83s CPU     11.97s WALL (      15 calls)

     Called by *egterg:
     h_psi        :   3050.58s CPU   3183.73s WALL (     608 calls)
     s_psi        :    879.44s CPU    879.65s WALL (     608 calls)
     g_psi        :     10.25s CPU     10.26s WALL (     480 calls)
     cdiaghg      :    354.94s CPU    355.05s WALL (     600 calls)

     Called by h_psi:
     h_psi:pot    :   3035.65s CPU   3168.52s WALL (     608 calls)
     h_psi:calbec :    870.22s CPU    871.29s WALL (     608 calls)
     vloc_psi     :   1285.62s CPU   1417.17s WALL (     608 calls)
     add_vuspsi   :    879.81s CPU    880.06s WALL (     608 calls)

     General routines
     calbec       :   1295.58s CPU   1297.19s WALL (     768 calls)
     fft          :      2.51s CPU      3.11s WALL (     232 calls)
     fftw         :   1366.86s CPU   1520.00s WALL (  279388 calls)
 
     Parallel routines
     fft_scatter  :    259.12s CPU    411.87s WALL (  279620 calls)
 
     PWSCF        :     2h11m CPU        2h16m WALL

 
   This run was terminated on:  12: 5:23  12Nov2017            

=------------------------------------------------------------------------------=
   JOB DONE.
=------------------------------------------------------------------------------=
