
     Program PWSCF v.6.1 (svn rev. 13369) starts on  8Dec2017 at  4:13:26 

     This program is part of the open-source Quantum ESPRESSO suite
     for quantum simulation of materials; please cite
         "P. Giannozzi et al., J. Phys.:Condens. Matter 21 395502 (2009);
          URL http://www.quantum-espresso.org", 
     in publications or presentations arising from this work. More details at
     http://www.quantum-espresso.org/quote

     Parallel version (MPI), running on     8 processors
     R & G space division:  proc/nbgrp/npool/nimage =       8
     Waiting for input...
     Reading input from standard input

     Current dimensions of program PWSCF are:
     Max number of different atomic species (ntypx) = 10
     Max number of k-points (npk) =  40000
     Max angular momentum in pseudopotentials (lmaxx) =  3
               file C.pbe-n-kjpaw_psl.0.1.UPF: wavefunction(s)  2P renormalized
               file N.pbe-n-kjpaw_psl.0.1.UPF: wavefunction(s)  2P renormalized
               file H.pbe-kjpaw_psl.0.1.UPF: wavefunction(s)  1S renormalized
               file O.pbe-n-kjpaw_psl.0.1.UPF: wavefunction(s)  2P renormalized

     -------------------------------------
     Parameters for Dispersion Correction:
     -------------------------------------
       atom      VdW radius       C_6     

        C          2.744         60.710
        N          2.640         42.670
        H          1.892          4.857
        O          2.536         24.284

     Subspace diagonalization in iterative solution of the eigenvalue problem:
     a serial algorithm will be used

 
     Parallelization info
     --------------------
     sticks:   dense  smooth     PW     G-vecs:    dense   smooth      PW
     Min        1115    1115    295               109436   109436   15012
     Max        1116    1116    296               109439   109439   15016
     Sum        8921    8921   2361               875497   875497  120105
 


     bravais-lattice index     =            0
     lattice parameter (alat)  =      15.7698  a.u.
     unit-cell volume          =    6479.6158 (a.u.)^3
     number of atoms/cell      =          100
     number of atomic types    =            4
     number of electrons       =       296.00
     number of Kohn-Sham states=          177
     kinetic-energy cutoff     =     100.0000  Ry
     charge density cutoff     =     400.0000  Ry
     convergence threshold     =      1.0E-08
     mixing beta               =       0.5000
     number of iterations used =            8  plain     mixing
     Exchange-correlation      =  SLA  PW   PBX  PBC ( 1  4  3  4 0 0)

     celldm(1)=  15.769765  celldm(2)=   0.000000  celldm(3)=   0.000000
     celldm(4)=   0.000000  celldm(5)=   0.000000  celldm(6)=   0.000000

     crystal axes: (cart. coord. in units of alat)
               a(1) = (   1.000000   0.000000   0.000000 )  
               a(2) = (   0.000000   1.126423   0.000000 )  
               a(3) = (  -0.261172   0.000000   1.466804 )  

     reciprocal axes: (cart. coord. in units 2 pi/alat)
               b(1) = (  1.000000  0.000000  0.178055 )  
               b(2) = (  0.000000  0.887766  0.000000 )  
               b(3) = (  0.000000  0.000000  0.681754 )  


     PseudoPot. # 1 for  C read from file:
     /scratch/ahofstet/pseudo/C.pbe-n-kjpaw_psl.0.1.UPF
     MD5 check sum: 430fe95172b1e11ef3f8ed03bac87931
     Pseudo is Projector augmented-wave + core cor, Zval =  4.0
     Generated using "atomic" code by A. Dal Corso  v.5.0.99 svn rev. 10869
     Shape of augmentation charge: BESSEL
     Using radial grid of 1073 points,  4 beta functions with: 
                l(1) =   0
                l(2) =   0
                l(3) =   1
                l(4) =   1
     Q(r) pseudized with 0 coefficients 


     PseudoPot. # 2 for  N read from file:
     /scratch/ahofstet/pseudo/N.pbe-n-kjpaw_psl.0.1.UPF
     MD5 check sum: f73187c8b701007e77325f868c9291d7
     Pseudo is Projector augmented-wave + core cor, Zval =  5.0
     Generated using "atomic" code by A. Dal Corso  v.5.0.99 svn rev. 10869
     Shape of augmentation charge: PSQ
     Using radial grid of 1085 points,  4 beta functions with: 
                l(1) =   0
                l(2) =   0
                l(3) =   1
                l(4) =   1
     Q(r) pseudized with 0 coefficients 


     PseudoPot. # 3 for  H read from file:
     /scratch/ahofstet/pseudo/H.pbe-kjpaw_psl.0.1.UPF
     MD5 check sum: 94e484f906d9e9773b2f6e52662335b2
     Pseudo is Projector augmented-wave, Zval =  1.0
     Generated using "atomic" code by A. Dal Corso  v.5.0.99 svn rev. 10869
     Shape of augmentation charge: PSQ
     Using radial grid of  929 points,  2 beta functions with: 
                l(1) =   0
                l(2) =   0
     Q(r) pseudized with 0 coefficients 


     PseudoPot. # 4 for  O read from file:
     /scratch/ahofstet/pseudo/O.pbe-n-kjpaw_psl.0.1.UPF
     MD5 check sum: 3f94a2996a3169367d6eb21d9b593f20
     Pseudo is Projector augmented-wave + core cor, Zval =  6.0
     Generated using "atomic" code by A. Dal Corso  v.5.0.99 svn rev. 10869
     Shape of augmentation charge: BESSEL
     Using radial grid of 1095 points,  4 beta functions with: 
                l(1) =   0
                l(2) =   0
                l(3) =   1
                l(4) =   1
     Q(r) pseudized with 0 coefficients 


     atomic species   valence    mass     pseudopotential
        C              4.00    12.01070      C( 1.00)
        N              5.00    14.00670      N( 1.00)
        H              1.00     1.00794      H( 1.00)
        O              6.00    15.99940      O( 1.00)

      2 Sym. Ops. (no inversion) found ( 1 have fractional translation)



   Cartesian axes

     site n.     atom                  positions (alat units)
         1           C   tau(   1) = (   0.3900289   0.0044092   0.7122319  )
         2           C   tau(   2) = (   0.3487991   0.5676208   0.7545722  )
         3           O   tau(   3) = (   0.4894596   0.0287250   0.5716353  )
         4           O   tau(   4) = (   0.2493685   0.5919365   0.8951688  )
         5           C   tau(   5) = (   0.5549309   1.0207906   0.5092272  )
         6           C   tau(   6) = (   0.1838971   0.4575791   0.9575769  )
         7           O   tau(   7) = (   0.5406491   0.8881105   0.5685405  )
         8           O   tau(   8) = (   0.1981789   0.3248990   0.8982636  )
         9           C   tau(   9) = (   0.6442054   1.0578752   0.3560120  )
        10           C   tau(  10) = (   0.0946227   0.4946637   1.1107921  )
        11           C   tau(  11) = (   0.5255039   1.0948908   0.2221633  )
        12           C   tau(  12) = (   0.2133241   0.5316793   1.2446408  )
        13           O   tau(  13) = (   0.3995889   1.0151001   0.2091711  )
        14           O   tau(  14) = (   0.3392391   0.4518886   1.2576330  )
        15           N   tau(  15) = (   0.5662177   0.0864409   0.1213584  )
        16           N   tau(  16) = (   0.1726104   0.6496524   1.3454457  )
        17           C   tau(  17) = (   0.2087447   0.1223483   1.4487722  )
        18           C   tau(  18) = (   0.5300833   0.6855598   0.0180319  )
        19           C   tau(  19) = (   0.2344180   0.0010164   1.3129846  )
        20           C   tau(  20) = (   0.5044100   0.5642279   0.1538195  )
        21           O   tau(  21) = (   0.3604686   1.0482374   1.3034476  )
        22           O   tau(  22) = (   0.3783594   0.4850259   0.1633565  )
        23           N   tau(  23) = (   0.1155418   1.1185935   1.2054465  )
        24           N   tau(  24) = (   0.6232862   0.5553820   0.2613576  )
        25           C   tau(  25) = (   0.1287091   1.0207594   1.0621290  )
        26           C   tau(  26) = (   0.6101190   0.4575479   0.4046751  )
        27           C   tau(  27) = (  -0.1163792   0.7014854   0.7293225  )
        28           C   tau(  28) = (   0.8552072   0.1382739   0.7374816  )
        29           O   tau(  29) = (  -0.0268553   0.6706925   0.5829710  )
        30           O   tau(  30) = (   0.7656834   0.1074810   0.8838331  )
        31           C   tau(  31) = (   0.0424128   0.7997889   0.5153772  )
        32           C   tau(  32) = (   0.6964152   0.2365774   0.9514269  )
        33           O   tau(  33) = (   0.0361973   0.9348842   0.5710688  )
        34           O   tau(  34) = (   0.7026307   0.3716727   0.8957353  )
        35           C   tau(  35) = (   0.1274047   0.7584326   0.3603742  )
        36           C   tau(  36) = (   0.6114233   0.1952211   1.1064299  )
        37           C   tau(  37) = (   0.0252031   0.8114484   0.2182639  )
        38           C   tau(  38) = (   0.7136250   0.2482369   1.2485402  )
        39           O   tau(  39) = (   0.8868150   0.7587743   0.1972829  )
        40           O   tau(  40) = (  -0.1479869   0.1955628   1.2695212  )
        41           N   tau(  41) = (   0.0927237   0.9167195   0.1176685  )
        42           N   tau(  42) = (   0.6461044   0.3535080   1.3491356  )
        43           C   tau(  43) = (  -0.2536711   0.9732450   1.4442511  )
        44           C   tau(  44) = (   0.9924992   0.4100335   0.0225530  )
        45           C   tau(  45) = (   0.7485026   0.8523763   1.3058282  )
        46           C   tau(  46) = (  -0.0096745   0.2891648   0.1609759  )
        47           O   tau(  47) = (  -0.1310271   0.7699997   1.2742613  )
        48           O   tau(  48) = (   0.8698551   0.2067882   0.1925428  )
        49           N   tau(  49) = (   0.6145073   0.8472385   1.2175045  )
        50           N   tau(  50) = (   0.1243208   0.2840270   0.2492996  )
        51           C   tau(  51) = (   0.6034641   0.7494743   1.0736724  )
        52           C   tau(  52) = (   0.1353639   0.1862627   0.3931317  )
        53           H   tau(  53) = (   0.3507433   0.1238118   0.7498169  )
        54           H   tau(  54) = (   0.3880848   0.6870233   0.7169873  )
        55           H   tau(  55) = (   0.2866379   1.0558338   0.6804883  )
        56           H   tau(  56) = (   0.4521901   0.4926223   0.7863158  )
        57           H   tau(  57) = (   0.4603218   1.0724786   0.8069695  )
        58           H   tau(  58) = (   0.2785062   0.5092671   0.6598346  )
        59           H   tau(  59) = (   0.7117917   0.9503994   0.3207020  )
        60           H   tau(  60) = (   0.0270363   0.3871879   1.1461021  )
        61           H   tau(  61) = (   0.7287240   0.0309809   0.3724521  )
        62           H   tau(  62) = (   0.0101040   0.5941924   1.0943520  )
        63           H   tau(  63) = (   0.6767606   0.1408302   0.1336537  )
        64           H   tau(  64) = (   0.0620674   0.7040418   1.3331504  )
        65           H   tau(  65) = (   0.2451363   0.2405509   1.4039031  )
        66           H   tau(  66) = (   0.4936918   0.8037624   0.0629010  )
        67           H   tau(  67) = (   0.3425014   0.1293403   0.0144687  )
        68           H   tau(  68) = (   0.3963266   0.6925518   1.4523354  )
        69           H   tau(  69) = (   0.0159429   0.0632773   1.2192769  )
        70           H   tau(  70) = (   0.7228851   0.6264888   0.2475272  )
        71           H   tau(  71) = (   0.0190881   1.0358469   0.9914916  )
        72           H   tau(  72) = (   0.7197399   0.4726354   0.4753125  )
        73           H   tau(  73) = (   0.2322259   1.0582786   0.9897368  )
        74           H   tau(  74) = (   0.5066021   0.4950671   0.4770673  )
        75           H   tau(  75) = (   0.1435767   0.8937174   1.0934404  )
        76           H   tau(  76) = (   0.5952514   0.3305059   0.3733637  )
        77           H   tau(  77) = (   0.8470702   0.5836046   0.7734036  )
        78           H   tau(  78) = (  -0.1082421   0.0203931   0.6934005  )
        79           H   tau(  79) = (  -0.0398071   0.7632674   0.8167304  )
        80           H   tau(  80) = (   0.7786352   0.2000559   0.6500737  )
        81           H   tau(  81) = (   0.7781068   0.7749744   0.7014893  )
        82           H   tau(  82) = (  -0.0392788   0.2117628   0.7653148  )
        83           H   tau(  83) = (   0.1454484   0.6284765   0.3495436  )
        84           H   tau(  84) = (   0.5933796   0.0652650   1.1172605  )
        85           H   tau(  85) = (   0.2438786   0.8196207   0.3589422  )
        86           H   tau(  86) = (   0.4949495   0.2564092   1.1078619  )
        87           H   tau(  87) = (   0.2064602   0.9584998   0.1403816  )
        88           H   tau(  88) = (   0.5323678   0.3952883   1.3264225  )
        89           H   tau(  89) = (  -0.1933169   1.0823659   1.4020928  )
        90           H   tau(  90) = (   0.9321449   0.5191544   0.0647113  )
        91           H   tau(  91) = (   0.8834788   1.0043864   0.0089856  )
        92           H   tau(  92) = (  -0.1446507   0.4411749   1.4578185  )
        93           H   tau(  93) = (   0.5173954   0.9158431   1.2499456  )
        94           H   tau(  94) = (   0.2214326   0.3526316   0.2168585  )
        95           H   tau(  95) = (   0.4851605   0.7678115   1.0198533  )
        96           H   tau(  96) = (   0.2536676   0.2046000   0.4469508  )
        97           H   tau(  97) = (   0.6970077   0.7834782   0.9873071  )
        98           H   tau(  98) = (   0.0418203   0.2202667   0.4794970  )
        99           H   tau(  99) = (   0.6184417   0.6216177   1.1010419  )
       100           H   tau( 100) = (   0.1203864   0.0584062   0.3657622  )

     number of k points=     8
                       cart. coord. in units 2pi/alat
        k(    1) = (   0.0000000   0.0000000   0.0000000), wk =   0.2500000
        k(    2) = (   0.0000000   0.0000000  -0.3408771), wk =   0.2500000
        k(    3) = (   0.0000000  -0.4438830   0.0000000), wk =   0.2500000
        k(    4) = (   0.0000000  -0.4438830  -0.3408771), wk =   0.2500000
        k(    5) = (  -0.5000000   0.0000000  -0.0890276), wk =   0.2500000
        k(    6) = (  -0.5000000   0.0000000  -0.4299047), wk =   0.2500000
        k(    7) = (  -0.5000000  -0.4438830  -0.0890276), wk =   0.2500000
        k(    8) = (  -0.5000000  -0.4438830  -0.4299047), wk =   0.2500000

     Dense  grid:   875497 G-vectors     FFT dimensions: ( 108, 120, 150)

     Estimated max dynamical RAM per process >     817.25MB

     Estimated total allocated dynamical RAM >    6537.96MB

     Check: negative/imaginary core charge=   -0.000002    0.000000

     Initial potential from superposition of free atoms

     starting charge  295.99830, renormalised to  296.00000
     Starting wfc are  256 randomized atomic wfcs
     Checking if some PAW data can be deallocated... 

     total cpu time spent up to now is       40.9 secs

     per-process dynamical memory:   589.4 Mb

     Self-consistent Calculation

     iteration #  1     ecut=   100.00 Ry     beta=0.50
     Davidson diagonalization with overlap
     ethr =  1.00E-02,  avg # of iterations =  4.2

     total cpu time spent up to now is      149.6 secs

     total energy              =   -1464.24501681 Ry
     Harris-Foulkes estimate   =   -1469.56324833 Ry
     estimated scf accuracy    <      10.10869772 Ry

     iteration #  2     ecut=   100.00 Ry     beta=0.50
     Davidson diagonalization with overlap
     ethr =  3.42E-03,  avg # of iterations =  2.0

     total cpu time spent up to now is      206.1 secs

     total energy              =   -1465.28803334 Ry
     Harris-Foulkes estimate   =   -1465.91584220 Ry
     estimated scf accuracy    <       1.33176758 Ry

     iteration #  3     ecut=   100.00 Ry     beta=0.50
     Davidson diagonalization with overlap
     ethr =  4.50E-04,  avg # of iterations =  7.2

     total cpu time spent up to now is      320.4 secs

     total energy              =   -1466.08712573 Ry
     Harris-Foulkes estimate   =   -1466.41543515 Ry
     estimated scf accuracy    <       0.84672068 Ry

     iteration #  4     ecut=   100.00 Ry     beta=0.50
     Davidson diagonalization with overlap
     ethr =  2.86E-04,  avg # of iterations =  2.0

     total cpu time spent up to now is      373.6 secs

     total energy              =   -1466.02615231 Ry
     Harris-Foulkes estimate   =   -1466.15122858 Ry
     estimated scf accuracy    <       0.22933296 Ry

     iteration #  5     ecut=   100.00 Ry     beta=0.50
     Davidson diagonalization with overlap
     ethr =  7.75E-05,  avg # of iterations =  4.9

     total cpu time spent up to now is      474.7 secs

     total energy              =   -1466.17668915 Ry
     Harris-Foulkes estimate   =   -1466.22877404 Ry
     estimated scf accuracy    <       0.18592757 Ry

     iteration #  6     ecut=   100.00 Ry     beta=0.50
     Davidson diagonalization with overlap
     ethr =  6.28E-05,  avg # of iterations =  1.0

     total cpu time spent up to now is      525.8 secs

     total energy              =   -1466.13163971 Ry
     Harris-Foulkes estimate   =   -1466.18142248 Ry
     estimated scf accuracy    <       0.09277329 Ry

     iteration #  7     ecut=   100.00 Ry     beta=0.50
     Davidson diagonalization with overlap
     ethr =  3.13E-05,  avg # of iterations =  3.2

     total cpu time spent up to now is      608.4 secs

     total energy              =   -1466.17164843 Ry
     Harris-Foulkes estimate   =   -1466.17276071 Ry
     estimated scf accuracy    <       0.01054154 Ry

     iteration #  8     ecut=   100.00 Ry     beta=0.50
     Davidson diagonalization with overlap
     ethr =  3.56E-06,  avg # of iterations =  2.0

     total cpu time spent up to now is      662.6 secs

     total energy              =   -1466.16712525 Ry
     Harris-Foulkes estimate   =   -1466.17206745 Ry
     estimated scf accuracy    <       0.00843736 Ry

     iteration #  9     ecut=   100.00 Ry     beta=0.50
     Davidson diagonalization with overlap
     ethr =  2.85E-06,  avg # of iterations =  5.1

     total cpu time spent up to now is      740.1 secs

     total energy              =   -1466.16958276 Ry
     Harris-Foulkes estimate   =   -1466.16965457 Ry
     estimated scf accuracy    <       0.00037517 Ry

     iteration # 10     ecut=   100.00 Ry     beta=0.50
     Davidson diagonalization with overlap
     ethr =  1.27E-07,  avg # of iterations =  3.0

     total cpu time spent up to now is      800.0 secs

     total energy              =   -1466.16948678 Ry
     Harris-Foulkes estimate   =   -1466.16963026 Ry
     estimated scf accuracy    <       0.00022894 Ry

     iteration # 11     ecut=   100.00 Ry     beta=0.50
     Davidson diagonalization with overlap
     ethr =  7.73E-08,  avg # of iterations =  3.5

     total cpu time spent up to now is      882.2 secs

     total energy              =   -1466.16957089 Ry
     Harris-Foulkes estimate   =   -1466.16958563 Ry
     estimated scf accuracy    <       0.00003512 Ry

     iteration # 12     ecut=   100.00 Ry     beta=0.50
     Davidson diagonalization with overlap
     ethr =  1.19E-08,  avg # of iterations =  3.0

     total cpu time spent up to now is      937.0 secs

     total energy              =   -1466.16956707 Ry
     Harris-Foulkes estimate   =   -1466.16957312 Ry
     estimated scf accuracy    <       0.00001030 Ry

     iteration # 13     ecut=   100.00 Ry     beta=0.50
     Davidson diagonalization with overlap
     ethr =  3.48E-09,  avg # of iterations =  4.0

     total cpu time spent up to now is     1033.5 secs

     total energy              =   -1466.16957500 Ry
     Harris-Foulkes estimate   =   -1466.16957709 Ry
     estimated scf accuracy    <       0.00000617 Ry

     iteration # 14     ecut=   100.00 Ry     beta=0.50
     Davidson diagonalization with overlap
     ethr =  2.08E-09,  avg # of iterations =  2.0

     total cpu time spent up to now is     1086.1 secs

     total energy              =   -1466.16957395 Ry
     Harris-Foulkes estimate   =   -1466.16957515 Ry
     estimated scf accuracy    <       0.00000258 Ry

     iteration # 15     ecut=   100.00 Ry     beta=0.50
     Davidson diagonalization with overlap
     ethr =  8.73E-10,  avg # of iterations =  3.0

     total cpu time spent up to now is     1169.1 secs

     total energy              =   -1466.16957511 Ry
     Harris-Foulkes estimate   =   -1466.16957513 Ry
     estimated scf accuracy    <       0.00000015 Ry

     iteration # 16     ecut=   100.00 Ry     beta=0.50
     Davidson diagonalization with overlap
     ethr =  5.03E-11,  avg # of iterations =  1.1

     total cpu time spent up to now is     1220.8 secs

     total energy              =   -1466.16957506 Ry
     Harris-Foulkes estimate   =   -1466.16957512 Ry
     estimated scf accuracy    <       0.00000011 Ry

     iteration # 17     ecut=   100.00 Ry     beta=0.50
     Davidson diagonalization with overlap
     ethr =  3.71E-11,  avg # of iterations =  3.0

     total cpu time spent up to now is     1298.3 secs

     End of self-consistent calculation

          k = 0.0000 0.0000 0.0000 (109423 PWs)   bands (ev):

   -21.9439 -21.9374 -21.8656 -21.8648 -20.4206 -20.3888 -20.2966 -20.2937
   -20.0618 -20.0400 -19.9867 -19.9773 -19.6771 -19.6681 -19.6146 -19.6084
   -17.3932 -17.3893 -17.2681 -17.2314 -17.1158 -17.0929 -16.9883 -16.9819
   -13.7384 -13.7230 -13.6791 -13.6631 -12.6590 -12.6211 -12.5831 -12.5560
   -11.7299 -11.7078 -11.6509 -11.6319 -10.9965 -10.9882 -10.9658 -10.9468
    -9.1955  -9.0204  -8.8695  -8.7581  -8.6753  -8.5092  -8.4251  -8.2924
    -8.1777  -8.1709  -8.1448  -8.0329  -7.4305  -7.3956  -7.3660  -7.3437
    -6.8573  -6.7652  -6.7551  -6.7129  -6.7016  -6.5504  -6.4413  -6.4221
    -6.3023  -6.2396  -6.2264  -6.1922  -6.0486  -5.9019  -5.8019  -5.7960
    -5.7879  -5.7195  -5.6065  -5.5816  -5.4718  -5.4445  -5.3821  -5.3803
    -5.2528  -5.1582  -5.1434  -5.0152  -4.8897  -4.7950  -4.7660  -4.6650
    -4.6295  -4.6213  -4.4949  -4.3914  -4.3332  -4.2949  -4.2784  -4.1474
    -4.0470  -3.9104  -3.8976  -3.8391  -3.8107  -3.7927  -3.7298  -3.6814
    -3.6594  -3.5646  -3.4642  -3.3874  -3.3682  -3.2996  -3.2652  -3.1942
    -3.1441  -3.0770  -3.0667  -2.9000  -2.8253  -2.7680  -2.7463  -2.7183
    -2.6807  -2.5980  -2.5872  -2.4657  -1.7473  -1.6662  -1.4737  -1.2919
    -0.9257  -0.8650  -0.8504  -0.7924  -0.7772  -0.7607  -0.6880  -0.6289
    -0.6240  -0.6036  -0.4363  -0.4313  -0.3131  -0.3096  -0.2565  -0.2346
    -0.1775  -0.1711  -0.0638  -0.0460   4.3714   4.3759   4.5790   4.6657
     4.8838   5.0227   5.0369   5.0791   5.1219   5.2754   5.3463   5.3628
     5.4559   5.8045   6.3573   6.5309   6.8546   6.8922   7.0340   7.1402
     7.2567   7.3247   7.3772   7.5099   7.6290   7.6884   7.8002   7.8813
     8.0110

          k = 0.0000 0.0000-0.3409 (109416 PWs)   bands (ev):

   -21.9439 -21.9374 -21.8655 -21.8648 -20.4205 -20.3889 -20.2968 -20.2938
   -20.0618 -20.0400 -19.9867 -19.9772 -19.6772 -19.6681 -19.6147 -19.6083
   -17.3932 -17.3893 -17.2681 -17.2314 -17.1158 -17.0929 -16.9883 -16.9819
   -13.7461 -13.7263 -13.6748 -13.6697 -12.6207 -12.6193 -12.5427 -12.5292
   -11.8103 -11.7754 -11.7044 -11.7020 -10.9256 -10.9209 -10.9068 -10.9023
    -9.2170  -9.0399  -8.8837  -8.7816  -8.7198  -8.5444  -8.4533  -8.2643
    -8.2088  -8.1285  -8.1117  -8.0490  -7.4005  -7.3974  -7.3136  -7.3002
    -6.8521  -6.8517  -6.7748  -6.7197  -6.6488  -6.5506  -6.4690  -6.3851
    -6.2635  -6.2260  -6.2246  -6.1001  -6.0305  -5.9849  -5.8616  -5.8107
    -5.7595  -5.7394  -5.6597  -5.5354  -5.5329  -5.4398  -5.3975  -5.3503
    -5.2316  -5.1294  -5.1042  -5.0115  -4.9671  -4.8590  -4.8351  -4.7105
    -4.5983  -4.5330  -4.4390  -4.4199  -4.3620  -4.3402  -4.1346  -4.1256
    -4.0640  -3.9583  -3.8777  -3.8459  -3.8066  -3.7984  -3.7293  -3.6451
    -3.6444  -3.5579  -3.5219  -3.4092  -3.3651  -3.2954  -3.2478  -3.1941
    -3.1697  -3.0777  -3.0624  -2.9033  -2.8247  -2.7707  -2.7236  -2.7092
    -2.6488  -2.6094  -2.5820  -2.4941  -1.7517  -1.6670  -1.4722  -1.2912
    -0.9259  -0.8719  -0.8397  -0.8002  -0.7675  -0.7629  -0.6842  -0.6399
    -0.6145  -0.6087  -0.4277  -0.4270  -0.3305  -0.3038  -0.2629  -0.2272
    -0.1781  -0.1749  -0.0648  -0.0480   4.3401   4.4148   4.6167   4.6300
     4.9173   5.0210   5.0426   5.0661   5.1124   5.2665   5.3498   5.3701
     5.5339   5.5981   6.4947   6.5507   6.8192   7.0025   7.0845   7.1549
     7.2163   7.2645   7.3367   7.5266   7.5936   7.6223   7.7791   7.7935
     7.9892

          k = 0.0000-0.4439 0.0000 (109472 PWs)   bands (ev):

   -21.9407 -21.9407 -21.8652 -21.8652 -20.4050 -20.4050 -20.2951 -20.2950
   -20.0520 -20.0520 -19.9809 -19.9809 -19.6726 -19.6726 -19.6115 -19.6115
   -17.3894 -17.3894 -17.2564 -17.2564 -17.0965 -17.0965 -16.9881 -16.9881
   -13.7309 -13.7309 -13.6708 -13.6708 -12.6401 -12.6401 -12.5698 -12.5698
   -11.7191 -11.7191 -11.6415 -11.6415 -10.9946 -10.9946 -10.9533 -10.9533
    -9.1258  -9.1258  -8.8105  -8.8105  -8.6164  -8.6164  -8.2704  -8.2704
    -8.1956  -8.1956  -8.1198  -8.1198  -7.4070  -7.4070  -7.3609  -7.3609
    -6.8237  -6.8237  -6.7292  -6.7292  -6.6344  -6.6344  -6.4054  -6.4054
    -6.2616  -6.2616  -6.1626  -6.1626  -5.9723  -5.9723  -5.8897  -5.8897
    -5.7636  -5.7636  -5.5804  -5.5804  -5.5018  -5.5018  -5.3984  -5.3984
    -5.1867  -5.1867  -5.0391  -5.0391  -4.8592  -4.8592  -4.7164  -4.7164
    -4.5972  -4.5972  -4.4433  -4.4433  -4.2910  -4.2910  -4.1593  -4.1593
    -4.0865  -4.0865  -3.8526  -3.8526  -3.8037  -3.8037  -3.7122  -3.7122
    -3.5871  -3.5871  -3.4256  -3.4256  -3.2995  -3.2995  -3.2170  -3.2170
    -3.0996  -3.0996  -3.0146  -3.0146  -2.7783  -2.7783  -2.7339  -2.7339
    -2.6344  -2.6344  -2.5704  -2.5704  -1.7156  -1.7156  -1.3703  -1.3703
    -0.8920  -0.8920  -0.7646  -0.7646  -0.7604  -0.7604  -0.7308  -0.7308
    -0.6272  -0.6272  -0.4294  -0.4294  -0.3343  -0.3343  -0.2161  -0.2161
    -0.1696  -0.1696  -0.0474  -0.0474   4.3700   4.3700   4.6232   4.6232
     4.9215   4.9215   5.0696   5.0696   5.1989   5.1989   5.3519   5.3519
     5.8102   5.8102   6.2979   6.2979   6.7643   6.7643   6.8855   6.8855
     7.3679   7.3679   7.5697   7.5697   7.6813   7.6813   7.8973   7.8973
     8.1152

          k = 0.0000-0.4439-0.3409 (109392 PWs)   bands (ev):

   -21.9407 -21.9407 -21.8652 -21.8652 -20.4049 -20.4049 -20.2951 -20.2951
   -20.0520 -20.0520 -19.9808 -19.9808 -19.6726 -19.6726 -19.6115 -19.6115
   -17.3894 -17.3894 -17.2564 -17.2564 -17.0965 -17.0965 -16.9881 -16.9881
   -13.7368 -13.7368 -13.6715 -13.6715 -12.6197 -12.6197 -12.5363 -12.5363
   -11.7937 -11.7937 -11.7027 -11.7027 -10.9236 -10.9236 -10.9042 -10.9042
    -9.1471  -9.1471  -8.8203  -8.8203  -8.6684  -8.6684  -8.2454  -8.2454
    -8.2163  -8.2163  -8.1044  -8.1044  -7.3956  -7.3956  -7.3086  -7.3086
    -6.8655  -6.8655  -6.7180  -6.7180  -6.6080  -6.6080  -6.4122  -6.4122
    -6.2699  -6.2699  -6.2053  -6.2053  -5.9396  -5.9396  -5.8927  -5.8927
    -5.7285  -5.7285  -5.6083  -5.6083  -5.4970  -5.4970  -5.3685  -5.3685
    -5.1583  -5.1583  -5.0760  -5.0760  -4.8930  -4.8930  -4.7362  -4.7362
    -4.6031  -4.6031  -4.4729  -4.4729  -4.2832  -4.2832  -4.1369  -4.1369
    -4.0745  -4.0745  -3.8700  -3.8700  -3.7911  -3.7911  -3.6858  -3.6858
    -3.5983  -3.5983  -3.4145  -3.4145  -3.3136  -3.3136  -3.2073  -3.2073
    -3.0993  -3.0993  -3.0097  -3.0097  -2.7762  -2.7762  -2.7355  -2.7355
    -2.6329  -2.6329  -2.5777  -2.5777  -1.7180  -1.7180  -1.3689  -1.3689
    -0.8939  -0.8939  -0.7785  -0.7785  -0.7501  -0.7501  -0.7240  -0.7240
    -0.6243  -0.6243  -0.4247  -0.4247  -0.3432  -0.3432  -0.2185  -0.2185
    -0.1676  -0.1676  -0.0497  -0.0497   4.3738   4.3738   4.6223   4.6223
     4.9295   4.9295   5.0661   5.0661   5.1907   5.1907   5.3616   5.3616
     5.8675   5.8675   6.1317   6.1317   6.7707   6.7707   7.0835   7.0835
     7.4237   7.4237   7.5085   7.5085   7.5923   7.5923   7.8906   7.8908
     8.0748

          k =-0.5000 0.0000-0.0890 (109486 PWs)   bands (ev):

   -21.9425 -21.9382 -21.8672 -21.8638 -20.4044 -20.3913 -20.3123 -20.2945
   -20.0468 -20.0433 -19.9898 -19.9846 -19.6769 -19.6683 -19.6150 -19.6081
   -17.4063 -17.3749 -17.2809 -17.2276 -17.0928 -17.0882 -16.9988 -16.9883
   -13.7348 -13.7216 -13.6819 -13.6661 -12.6557 -12.6223 -12.5837 -12.5590
   -11.7221 -11.7073 -11.6525 -11.6359 -10.9880 -10.9872 -10.9661 -10.9631
    -9.1477  -9.1140  -8.9130  -8.7984  -8.5962  -8.4396  -8.3019  -8.2914
    -8.2195  -8.1959  -8.1365  -8.1162  -7.4237  -7.4040  -7.3542  -7.3301
    -6.8822  -6.8095  -6.7499  -6.6825  -6.6556  -6.5699  -6.4440  -6.4055
    -6.3051  -6.2996  -6.1748  -6.1399  -6.0837  -5.9422  -5.8148  -5.7814
    -5.7670  -5.7286  -5.6214  -5.6103  -5.5606  -5.4719  -5.3155  -5.2917
    -5.1124  -5.0933  -5.0747  -5.0256  -4.9936  -4.9411  -4.7906  -4.7365
    -4.6564  -4.5515  -4.4514  -4.4230  -4.3715  -4.2770  -4.2683  -4.1361
    -4.0678  -3.9549  -3.8854  -3.8618  -3.7551  -3.7260  -3.6971  -3.6645
    -3.5782  -3.5515  -3.5062  -3.4205  -3.3534  -3.3259  -3.2939  -3.2937
    -3.1814  -3.1116  -3.0282  -2.8840  -2.8000  -2.7928  -2.7436  -2.6998
    -2.6845  -2.6422  -2.5173  -2.4899  -1.6321  -1.6262  -1.4486  -1.4381
    -0.8939  -0.8502  -0.8350  -0.7893  -0.7746  -0.7654  -0.6744  -0.6691
    -0.6586  -0.6064  -0.4504  -0.4447  -0.3574  -0.3152  -0.2632  -0.2518
    -0.1709  -0.1659  -0.0095  -0.0029   4.3784   4.4229   4.5658   4.6163
     4.8543   4.9327   5.0747   5.1273   5.2460   5.2609   5.2946   5.3619
     5.8476   5.8909   6.2682   6.3125   6.8481   6.8533   6.9779   7.0318
     7.1906   7.1996   7.3262   7.4021   7.6428   7.6802   7.8064   7.9394
     8.0149

          k =-0.5000 0.0000-0.4299 (109412 PWs)   bands (ev):

   -21.9425 -21.9383 -21.8672 -21.8638 -20.4045 -20.3912 -20.3124 -20.2946
   -20.0468 -20.0433 -19.9898 -19.9846 -19.6769 -19.6682 -19.6151 -19.6081
   -17.4063 -17.3749 -17.2809 -17.2276 -17.0928 -17.0881 -16.9988 -16.9884
   -13.7394 -13.7289 -13.6778 -13.6725 -12.6106 -12.6072 -12.5479 -12.5458
   -11.8013 -11.7755 -11.7217 -11.6959 -10.9359 -10.9274 -10.9022 -10.8914
    -9.1608  -9.1327  -8.9517  -8.8444  -8.5852  -8.4316  -8.3304  -8.3179
    -8.2864  -8.2208  -8.0735  -8.0656  -7.4193  -7.3770  -7.3158  -7.3084
    -6.8864  -6.8668  -6.7346  -6.6517  -6.6117  -6.5723  -6.4231  -6.3991
    -6.3106  -6.2843  -6.1332  -6.1232  -6.0426  -6.0249  -5.8675  -5.8653
    -5.7598  -5.7576  -5.6086  -5.5483  -5.5135  -5.5087  -5.3561  -5.2767
    -5.1285  -5.1071  -5.0902  -5.0581  -4.9387  -4.9311  -4.9222  -4.7330
    -4.5757  -4.5206  -4.4302  -4.4099  -4.3630  -4.2794  -4.2044  -4.1768
    -4.1120  -3.9982  -3.8829  -3.8729  -3.7301  -3.7232  -3.6725  -3.6362
    -3.5766  -3.5522  -3.5248  -3.4178  -3.3623  -3.3490  -3.3153  -3.2618
    -3.2031  -3.0886  -3.0158  -2.9010  -2.7950  -2.7716  -2.7694  -2.7043
    -2.6306  -2.6226  -2.5311  -2.5275  -1.6341  -1.6243  -1.4492  -1.4394
    -0.8946  -0.8495  -0.8351  -0.7964  -0.7710  -0.7612  -0.6750  -0.6720
    -0.6441  -0.6069  -0.4531  -0.4438  -0.3552  -0.3241  -0.2666  -0.2547
    -0.1688  -0.1676  -0.0111  -0.0016   4.3845   4.4027   4.5962   4.5982
     4.8781   4.9209   5.0811   5.1258   5.2390   5.2513   5.3029   5.3672
     5.8248   5.8852   6.2239   6.3894   6.6997   6.7577   7.0313   7.0557
     7.2968   7.3469   7.4978   7.5316   7.6267   7.6286   7.7833   7.8268
     7.9499

          k =-0.5000-0.4439-0.0890 (109444 PWs)   bands (ev):

   -21.9404 -21.9404 -21.8655 -21.8655 -20.3980 -20.3980 -20.3032 -20.3032
   -20.0445 -20.0445 -19.9881 -19.9881 -19.6726 -19.6726 -19.6116 -19.6116
   -17.3883 -17.3883 -17.2613 -17.2613 -17.0816 -17.0816 -16.9975 -16.9975
   -13.7281 -13.7281 -13.6741 -13.6741 -12.6396 -12.6396 -12.5708 -12.5708
   -11.7140 -11.7140 -11.6451 -11.6451 -10.9873 -10.9873 -10.9641 -10.9641
    -9.0813  -9.0813  -8.9573  -8.9573  -8.4529  -8.4529  -8.2997  -8.2997
    -8.1997  -8.1997  -8.1468  -8.1468  -7.4119  -7.4119  -7.3443  -7.3443
    -6.8477  -6.8477  -6.6888  -6.6888  -6.6047  -6.6047  -6.4427  -6.4427
    -6.3326  -6.3326  -6.0951  -6.0951  -5.9710  -5.9710  -5.8680  -5.8680
    -5.7894  -5.7894  -5.6334  -5.6334  -5.4930  -5.4930  -5.3361  -5.3361
    -5.1660  -5.1660  -5.0791  -5.0791  -4.8384  -4.8384  -4.7572  -4.7572
    -4.5790  -4.5790  -4.4992  -4.4992  -4.2867  -4.2867  -4.1576  -4.1576
    -4.0267  -4.0267  -3.8831  -3.8831  -3.7333  -3.7333  -3.6890  -3.6890
    -3.5813  -3.5813  -3.4608  -3.4608  -3.3935  -3.3935  -3.1916  -3.1916
    -3.1280  -3.1280  -3.0273  -3.0273  -2.7600  -2.7600  -2.6979  -2.6979
    -2.6666  -2.6666  -2.5608  -2.5608  -1.6140  -1.6140  -1.4550  -1.4550
    -0.8714  -0.8714  -0.7785  -0.7785  -0.7531  -0.7531  -0.7046  -0.7046
    -0.6441  -0.6441  -0.4774  -0.4774  -0.3412  -0.3412  -0.2363  -0.2363
    -0.1463  -0.1463  -0.0140  -0.0140   4.3962   4.3962   4.5929   4.5929
     4.9248   4.9248   5.0313   5.0313   5.2757   5.2757   5.3279   5.3279
     6.0803   6.0803   6.3090   6.3090   6.7302   6.7302   6.7694   6.7694
     7.2156   7.2156   7.2836   7.2836   7.6031   7.6031   7.8792   7.8793
     8.0464

          k =-0.5000-0.4439-0.4299 (109452 PWs)   bands (ev):

   -21.9404 -21.9404 -21.8655 -21.8655 -20.3980 -20.3980 -20.3032 -20.3032
   -20.0444 -20.0444 -19.9881 -19.9881 -19.6726 -19.6726 -19.6116 -19.6116
   -17.3883 -17.3883 -17.2613 -17.2613 -17.0816 -17.0816 -16.9975 -16.9975
   -13.7339 -13.7339 -13.6753 -13.6753 -12.6090 -12.6090 -12.5467 -12.5467
   -11.7899 -11.7899 -11.7077 -11.7077 -10.9314 -10.9314 -10.8969 -10.8969
    -9.1033  -9.1033  -8.9799  -8.9799  -8.4650  -8.4650  -8.3577  -8.3577
    -8.1733  -8.1733  -8.1228  -8.1228  -7.3949  -7.3949  -7.3107  -7.3107
    -6.8567  -6.8567  -6.7220  -6.7220  -6.5699  -6.5699  -6.4143  -6.4143
    -6.3098  -6.3098  -6.1497  -6.1497  -5.9914  -5.9914  -5.9117  -5.9117
    -5.7301  -5.7301  -5.5827  -5.5827  -5.5106  -5.5106  -5.3489  -5.3489
    -5.1735  -5.1735  -5.0732  -5.0732  -4.8528  -4.8528  -4.7559  -4.7559
    -4.6136  -4.6136  -4.5107  -4.5107  -4.2986  -4.2986  -4.1230  -4.1230
    -4.0461  -4.0461  -3.8822  -3.8822  -3.7277  -3.7277  -3.6751  -3.6751
    -3.5655  -3.5655  -3.4748  -3.4748  -3.3701  -3.3701  -3.1876  -3.1876
    -3.1273  -3.1273  -3.0406  -3.0406  -2.7641  -2.7641  -2.6864  -2.6864
    -2.6527  -2.6527  -2.5833  -2.5833  -1.6138  -1.6138  -1.4561  -1.4561
    -0.8703  -0.8703  -0.7934  -0.7934  -0.7406  -0.7406  -0.7051  -0.7051
    -0.6339  -0.6339  -0.4812  -0.4812  -0.3452  -0.3452  -0.2348  -0.2348
    -0.1495  -0.1495  -0.0147  -0.0147   4.3941   4.3941   4.5962   4.5962
     4.9277   4.9277   5.0313   5.0313   5.2746   5.2746   5.3275   5.3275
     6.0772   6.0772   6.2669   6.2669   6.7106   6.7106   6.8706   6.8706
     7.1084   7.1084   7.3731   7.3731   7.6900   7.6900   7.8449   7.8451
     8.0857

     highest occupied, lowest unoccupied level (ev):    -0.0016    4.3401

!    total energy              =   -1466.16957509 Ry
     Harris-Foulkes estimate   =   -1466.16957509 Ry
     estimated scf accuracy    <          5.1E-09 Ry

     total all-electron energy =     -5475.504895 Ry

     The total energy is the sum of the following terms:

     one-electron contribution =    -919.10381389 Ry
     hartree contribution      =     569.13009681 Ry
     xc contribution           =    -312.68176018 Ry
     ewald contribution        =    -398.47455692 Ry
     Dispersion Correction     =      -0.38520985 Ry
     one-center paw contrib.   =    -404.65433106 Ry

     convergence has been achieved in  17 iterations

     Forces acting on atoms (cartesian axes, Ry/au):

     atom    1 type  1   force =     0.00020097    0.00047101    0.00005977
     atom    2 type  1   force =    -0.00020097    0.00047101   -0.00005977
     atom    3 type  4   force =    -0.00006154   -0.00055903    0.00018145
     atom    4 type  4   force =     0.00006154   -0.00055903   -0.00018145
     atom    5 type  1   force =    -0.00057341   -0.00008641   -0.00010860
     atom    6 type  1   force =     0.00057341   -0.00008641    0.00010860
     atom    7 type  4   force =     0.00011788    0.00072406    0.00023270
     atom    8 type  4   force =    -0.00011788    0.00072406   -0.00023270
     atom    9 type  1   force =     0.00080828   -0.00038859    0.00006167
     atom   10 type  1   force =    -0.00080828   -0.00038859   -0.00006167
     atom   11 type  1   force =    -0.00090468   -0.00059081   -0.00001854
     atom   12 type  1   force =     0.00090468   -0.00059081    0.00001854
     atom   13 type  4   force =     0.00045629    0.00004020   -0.00021456
     atom   14 type  4   force =    -0.00045629    0.00004020    0.00021456
     atom   15 type  2   force =     0.00004366    0.00002425    0.00082797
     atom   16 type  2   force =    -0.00004366    0.00002425   -0.00082797
     atom   17 type  1   force =    -0.00016243    0.00024612    0.00032097
     atom   18 type  1   force =     0.00016243    0.00024612   -0.00032097
     atom   19 type  1   force =    -0.00025023   -0.00040292    0.00056144
     atom   20 type  1   force =     0.00025023   -0.00040292   -0.00056144
     atom   21 type  4   force =    -0.00016866    0.00032415    0.00021051
     atom   22 type  4   force =     0.00016866    0.00032415   -0.00021051
     atom   23 type  2   force =     0.00071110    0.00054762   -0.00005477
     atom   24 type  2   force =    -0.00071110    0.00054762    0.00005477
     atom   25 type  1   force =     0.00023673   -0.00020026   -0.00033128
     atom   26 type  1   force =    -0.00023673   -0.00020026    0.00033128
     atom   27 type  1   force =     0.00008499   -0.00014989   -0.00041972
     atom   28 type  1   force =    -0.00008499   -0.00014989    0.00041972
     atom   29 type  4   force =     0.00067963    0.00007440    0.00003675
     atom   30 type  4   force =    -0.00067963    0.00007440   -0.00003675
     atom   31 type  1   force =    -0.00050322    0.00041778   -0.00064414
     atom   32 type  1   force =     0.00050322    0.00041778    0.00064414
     atom   33 type  4   force =    -0.00006093   -0.00049777    0.00014031
     atom   34 type  4   force =     0.00006093   -0.00049777   -0.00014031
     atom   35 type  1   force =    -0.00000826   -0.00062599   -0.00012598
     atom   36 type  1   force =     0.00000826   -0.00062599    0.00012598
     atom   37 type  1   force =    -0.00068121   -0.00050219   -0.00067717
     atom   38 type  1   force =     0.00068121   -0.00050219    0.00067717
     atom   39 type  4   force =     0.00019419   -0.00024601   -0.00009545
     atom   40 type  4   force =    -0.00019419   -0.00024601    0.00009545
     atom   41 type  2   force =     0.00023449   -0.00010816    0.00080075
     atom   42 type  2   force =    -0.00023449   -0.00010816   -0.00080075
     atom   43 type  1   force =     0.00006585    0.00032560    0.00026127
     atom   44 type  1   force =    -0.00006585    0.00032560   -0.00026127
     atom   45 type  1   force =     0.00019051   -0.00008425    0.00031501
     atom   46 type  1   force =    -0.00019051   -0.00008425   -0.00031501
     atom   47 type  4   force =    -0.00082629   -0.00045214    0.00028107
     atom   48 type  4   force =     0.00082629   -0.00045214   -0.00028107
     atom   49 type  2   force =    -0.00008573    0.00043529   -0.00048659
     atom   50 type  2   force =     0.00008573    0.00043529    0.00048659
     atom   51 type  1   force =    -0.00020383   -0.00008109    0.00023971
     atom   52 type  1   force =     0.00020383   -0.00008109   -0.00023971
     atom   53 type  3   force =     0.00027881    0.00023598   -0.00011947
     atom   54 type  3   force =    -0.00027881    0.00023598    0.00011947
     atom   55 type  3   force =    -0.00031316    0.00003193    0.00055749
     atom   56 type  3   force =     0.00031316    0.00003193   -0.00055749
     atom   57 type  3   force =     0.00015751    0.00005908    0.00010417
     atom   58 type  3   force =    -0.00015751    0.00005908   -0.00010417
     atom   59 type  3   force =     0.00009872    0.00058906    0.00004639
     atom   60 type  3   force =    -0.00009872    0.00058906   -0.00004639
     atom   61 type  3   force =     0.00037971   -0.00002040    0.00028205
     atom   62 type  3   force =    -0.00037971   -0.00002040   -0.00028205
     atom   63 type  3   force =    -0.00044152    0.00039549    0.00053320
     atom   64 type  3   force =     0.00044152    0.00039549   -0.00053320
     atom   65 type  3   force =    -0.00033044    0.00052659   -0.00037656
     atom   66 type  3   force =     0.00033044    0.00052659    0.00037656
     atom   67 type  3   force =     0.00049571   -0.00019674   -0.00062972
     atom   68 type  3   force =    -0.00049571   -0.00019674    0.00062972
     atom   69 type  3   force =     0.00043904   -0.00045186   -0.00029833
     atom   70 type  3   force =    -0.00043904   -0.00045186    0.00029833
     atom   71 type  3   force =    -0.00003988    0.00005352    0.00002047
     atom   72 type  3   force =     0.00003988    0.00005352   -0.00002047
     atom   73 type  3   force =    -0.00015406    0.00000418   -0.00052780
     atom   74 type  3   force =     0.00015406    0.00000418    0.00052780
     atom   75 type  3   force =    -0.00022114   -0.00029888    0.00005848
     atom   76 type  3   force =     0.00022114   -0.00029888   -0.00005848
     atom   77 type  3   force =    -0.00013786   -0.00071581    0.00046108
     atom   78 type  3   force =     0.00013786   -0.00071581   -0.00046108
     atom   79 type  3   force =     0.00019477   -0.00055306   -0.00075278
     atom   80 type  3   force =    -0.00019477   -0.00055306    0.00075278
     atom   81 type  3   force =     0.00021049    0.00059692   -0.00051821
     atom   82 type  3   force =    -0.00021049    0.00059692    0.00051821
     atom   83 type  3   force =     0.00030175    0.00046245    0.00026992
     atom   84 type  3   force =    -0.00030175    0.00046245   -0.00026992
     atom   85 type  3   force =     0.00048945   -0.00028569    0.00060722
     atom   86 type  3   force =    -0.00048945   -0.00028569   -0.00060722
     atom   87 type  3   force =     0.00022480    0.00044773   -0.00056166
     atom   88 type  3   force =    -0.00022480    0.00044773    0.00056166
     atom   89 type  3   force =    -0.00054096    0.00046458   -0.00058992
     atom   90 type  3   force =     0.00054096    0.00046458    0.00058992
     atom   91 type  3   force =     0.00019817    0.00024039   -0.00070062
     atom   92 type  3   force =    -0.00019817    0.00024039    0.00070062
     atom   93 type  3   force =    -0.00021276    0.00012483   -0.00071124
     atom   94 type  3   force =     0.00021276    0.00012483    0.00071124
     atom   95 type  3   force =    -0.00010217   -0.00012327    0.00019256
     atom   96 type  3   force =     0.00010217   -0.00012327   -0.00019256
     atom   97 type  3   force =    -0.00036389    0.00028961   -0.00036246
     atom   98 type  3   force =     0.00036389    0.00028961    0.00036246
     atom   99 type  3   force =     0.00016420   -0.00053161    0.00013129
     atom  100 type  3   force =    -0.00016420   -0.00053161   -0.00013129

     Total force =     0.006794     Total SCF correction =     0.000108


     Computing stress (Cartesian axis) and pressure

          total   stress  (Ry/bohr**3)                   (kbar)     P=   -4.73
  -0.00003840   0.00000000  -0.00000152         -5.65      0.00     -0.22
   0.00000000  -0.00002643   0.00000000          0.00     -3.89      0.00
  -0.00000152   0.00000000  -0.00003163         -0.22      0.00     -4.65


     Writing output data file scf.save
 
     init_run     :     38.65s CPU     40.35s WALL (       1 calls)
     electrons    :   1194.50s CPU   1257.52s WALL (       1 calls)
     forces       :     18.38s CPU     18.59s WALL (       1 calls)
     stress       :    117.52s CPU    117.87s WALL (       1 calls)

     Called by init_run:
     wfcinit      :     28.03s CPU     29.58s WALL (       1 calls)
     potinit      :      3.72s CPU      3.75s WALL (       1 calls)

     Called by electrons:
     c_bands      :   1056.08s CPU   1110.15s WALL (      17 calls)
     sum_band     :    124.34s CPU    131.86s WALL (      17 calls)
     v_of_rho     :      2.16s CPU      2.36s WALL (      18 calls)
     newd         :      4.70s CPU      5.94s WALL (      18 calls)
     PAW_pot      :      6.60s CPU      6.60s WALL (      18 calls)
     mix_rho      :      0.56s CPU      0.59s WALL (      17 calls)

     Called by c_bands:
     init_us_2    :      9.21s CPU      9.26s WALL (     296 calls)
     cegterg      :   1025.67s CPU   1079.71s WALL (     136 calls)

     Called by sum_band:
     sum_band:bec :      0.08s CPU      0.08s WALL (     136 calls)
     addusdens    :      5.18s CPU      6.36s WALL (      17 calls)

     Called by *egterg:
     h_psi        :    633.89s CPU    675.18s WALL (     579 calls)
     s_psi        :    102.94s CPU    102.96s WALL (     579 calls)
     g_psi        :      4.13s CPU      4.13s WALL (     435 calls)
     cdiaghg      :     50.66s CPU     50.68s WALL (     571 calls)

     Called by h_psi:
     h_psi:pot    :    627.74s CPU    668.92s WALL (     579 calls)
     h_psi:calbec :     99.25s CPU     99.49s WALL (     579 calls)
     vloc_psi     :    425.18s CPU    466.10s WALL (     579 calls)
     add_vuspsi   :    103.30s CPU    103.33s WALL (     579 calls)

     General routines
     calbec       :    145.42s CPU    145.75s WALL (     755 calls)
     fft          :      1.61s CPU      1.95s WALL (     258 calls)
     fftw         :    457.37s CPU    500.92s WALL (  160990 calls)
 
     Parallel routines
     fft_scatter  :     84.14s CPU    120.17s WALL (  161248 calls)
 
     PWSCF        : 22m58.38s CPU    24m48.43s WALL

 
   This run was terminated on:   4:38:15   8Dec2017            

=------------------------------------------------------------------------------=
   JOB DONE.
=------------------------------------------------------------------------------=
