
     Program PWSCF v.6.1 (svn rev. 13369) starts on 15Dec2017 at  5:37: 2 

     This program is part of the open-source Quantum ESPRESSO suite
     for quantum simulation of materials; please cite
         "P. Giannozzi et al., J. Phys.:Condens. Matter 21 395502 (2009);
          URL http://www.quantum-espresso.org", 
     in publications or presentations arising from this work. More details at
     http://www.quantum-espresso.org/quote

     Parallel version (MPI), running on     8 processors
     R & G space division:  proc/nbgrp/npool/nimage =       8
     Waiting for input...
     Reading input from standard input

     Current dimensions of program PWSCF are:
     Max number of different atomic species (ntypx) = 10
     Max number of k-points (npk) =  40000
     Max angular momentum in pseudopotentials (lmaxx) =  3
               file C.pbe-n-kjpaw_psl.0.1.UPF: wavefunction(s)  2P renormalized
               file N.pbe-n-kjpaw_psl.0.1.UPF: wavefunction(s)  2P renormalized
               file H.pbe-kjpaw_psl.0.1.UPF: wavefunction(s)  1S renormalized
               file O.pbe-n-kjpaw_psl.0.1.UPF: wavefunction(s)  2P renormalized

     -------------------------------------
     Parameters for Dispersion Correction:
     -------------------------------------
       atom      VdW radius       C_6     

        C          2.744         60.710
        N          2.640         42.670
        H          1.892          4.857
        O          2.536         24.284

     Subspace diagonalization in iterative solution of the eigenvalue problem:
     a serial algorithm will be used

 
     Parallelization info
     --------------------
     sticks:   dense  smooth     PW     G-vecs:    dense   smooth      PW
     Min         730     730    196                57987    57987    8075
     Max         731     731    197                57992    57992    8078
     Sum        5847    5847   1569               463919   463919   64605
 


     bravais-lattice index     =            0
     lattice parameter (alat)  =       9.8852  a.u.
     unit-cell volume          =    3432.9245 (a.u.)^3
     number of atoms/cell      =           60
     number of atomic types    =            4
     number of electrons       =       176.00
     number of Kohn-Sham states=          105
     kinetic-energy cutoff     =     100.0000  Ry
     charge density cutoff     =     400.0000  Ry
     convergence threshold     =      1.0E-08
     mixing beta               =       0.5000
     number of iterations used =            8  plain     mixing
     Exchange-correlation      =  SLA  PW   PBX  PBC ( 1  4  3  4 0 0)

     celldm(1)=   9.885157  celldm(2)=   0.000000  celldm(3)=   0.000000
     celldm(4)=   0.000000  celldm(5)=   0.000000  celldm(6)=   0.000000

     crystal axes: (cart. coord. in units of alat)
               a(1) = (   1.000000   0.000000   0.000000 )  
               a(2) = (   0.150467   1.878326   0.000000 )  
               a(3) = (   0.464908   0.495996   1.892093 )  

     reciprocal axes: (cart. coord. in units 2 pi/alat)
               b(1) = (  1.000000 -0.080107 -0.224712 )  
               b(2) = (  0.000000  0.532389 -0.139561 )  
               b(3) = (  0.000000  0.000000  0.528515 )  


     PseudoPot. # 1 for  C read from file:
     /scratch/ahofstet/pseudo/C.pbe-n-kjpaw_psl.0.1.UPF
     MD5 check sum: 430fe95172b1e11ef3f8ed03bac87931
     Pseudo is Projector augmented-wave + core cor, Zval =  4.0
     Generated using "atomic" code by A. Dal Corso  v.5.0.99 svn rev. 10869
     Shape of augmentation charge: BESSEL
     Using radial grid of 1073 points,  4 beta functions with: 
                l(1) =   0
                l(2) =   0
                l(3) =   1
                l(4) =   1
     Q(r) pseudized with 0 coefficients 


     PseudoPot. # 2 for  N read from file:
     /scratch/ahofstet/pseudo/N.pbe-n-kjpaw_psl.0.1.UPF
     MD5 check sum: f73187c8b701007e77325f868c9291d7
     Pseudo is Projector augmented-wave + core cor, Zval =  5.0
     Generated using "atomic" code by A. Dal Corso  v.5.0.99 svn rev. 10869
     Shape of augmentation charge: PSQ
     Using radial grid of 1085 points,  4 beta functions with: 
                l(1) =   0
                l(2) =   0
                l(3) =   1
                l(4) =   1
     Q(r) pseudized with 0 coefficients 


     PseudoPot. # 3 for  H read from file:
     /scratch/ahofstet/pseudo/H.pbe-kjpaw_psl.0.1.UPF
     MD5 check sum: 94e484f906d9e9773b2f6e52662335b2
     Pseudo is Projector augmented-wave, Zval =  1.0
     Generated using "atomic" code by A. Dal Corso  v.5.0.99 svn rev. 10869
     Shape of augmentation charge: PSQ
     Using radial grid of  929 points,  2 beta functions with: 
                l(1) =   0
                l(2) =   0
     Q(r) pseudized with 0 coefficients 


     PseudoPot. # 4 for  O read from file:
     /scratch/ahofstet/pseudo/O.pbe-n-kjpaw_psl.0.1.UPF
     MD5 check sum: 3f94a2996a3169367d6eb21d9b593f20
     Pseudo is Projector augmented-wave + core cor, Zval =  6.0
     Generated using "atomic" code by A. Dal Corso  v.5.0.99 svn rev. 10869
     Shape of augmentation charge: BESSEL
     Using radial grid of 1095 points,  4 beta functions with: 
                l(1) =   0
                l(2) =   0
                l(3) =   1
                l(4) =   1
     Q(r) pseudized with 0 coefficients 


     atomic species   valence    mass     pseudopotential
        C              4.00    12.01070      C( 1.00)
        N              5.00    14.00670      N( 1.00)
        H              1.00     1.00794      H( 1.00)
        O              6.00    15.99940      O( 1.00)

      2 Sym. Ops., with inversion, found



   Cartesian axes

     site n.     atom                  positions (alat units)
         1           O   tau(   1) = (   0.7021609   1.9366230   0.8194950  )
         2           O   tau(   2) = (   0.9132141   0.4376995   1.0725979  )
         3           O   tau(   3) = (   0.9746915   1.3934339   0.8166417  )
         4           O   tau(   4) = (   0.6406835   0.9808886   1.0754512  )
         5           N   tau(   5) = (   0.9877299   1.3600966   1.3243283  )
         6           N   tau(   6) = (   0.6276451   1.0142259   0.5677646  )
         7           N   tau(   7) = (   0.7107893   1.9349850   1.3271476  )
         8           N   tau(   8) = (   0.9045857   0.4393375   0.5649453  )
         9           O   tau(   9) = (   1.0983682   2.2774962   1.5828105  )
        10           O   tau(  10) = (   0.5170068   0.0968263   0.3092824  )
        11           C   tau(  11) = (   0.3368255   1.6668115   0.7972812  )
        12           C   tau(  12) = (   1.2785496   0.7075110   1.0948117  )
        13           O   tau(  13) = (   0.6150004   1.0023452   1.5855283  )
        14           O   tau(  14) = (   1.0003746   1.3719774   0.3065646  )
        15           C   tau(  15) = (   1.3490835   1.6477084   1.3480920  )
        16           C   tau(  16) = (   0.2662915   0.7266141   0.5440009  )
        17           C   tau(  17) = (   0.5342996   1.7899800   1.2162828  )
        18           C   tau(  18) = (   1.0810754   0.5843425   0.6758100  )
        19           C   tau(  19) = (   0.5337167   1.7990421   0.9247286  )
        20           C   tau(  20) = (   1.0816583   0.5752805   0.9673643  )
        21           C   tau(  21) = (   1.1474160   1.5243731   0.9244635  )
        22           C   tau(  22) = (   0.4679590   0.8499495   0.9676293  )
        23           C   tau(  23) = (   1.1589820   1.5137469   1.2155378  )
        24           C   tau(  24) = (   0.4563930   0.8605756   0.6765551  )
        25           C   tau(  25) = (   0.8397759   2.2449451   1.6631190  )
        26           C   tau(  26) = (   0.7755991   0.1293774   0.2289739  )
        27           C   tau(  27) = (   0.8786555   1.0292320   1.6486661  )
        28           C   tau(  28) = (   0.7367195   1.3450906   0.2434268  )
        29           C   tau(  29) = (   0.9840060   1.2971338   1.5971783  )
        30           C   tau(  30) = (   0.6313690   1.0771887   0.2949146  )
        31           C   tau(  31) = (   0.7308379   1.9805691   1.6030941  )
        32           C   tau(  32) = (   0.8845371   0.3937534   0.2889988  )
        33           H   tau(  33) = (   0.3296580   1.6767995   0.5888850  )
        34           H   tau(  34) = (   1.2857170   0.6975230   1.3032078  )
        35           H   tau(  35) = (   1.3532455   1.6426563   1.5555698  )
        36           H   tau(  36) = (   0.2621296   0.7316662   0.3365231  )
        37           H   tau(  37) = (   0.8670234   1.2647728   1.2013177  )
        38           H   tau(  38) = (   0.7483516   1.1095497   0.6907752  )
        39           H   tau(  39) = (   0.8682525   1.4381086   1.7005642  )
        40           H   tau(  40) = (   0.7471226   0.9362139   0.1915287  )
        41           H   tau(  41) = (   1.1816959   1.3039479   1.6677979  )
        42           H   tau(  42) = (   0.4336791   1.0703746   0.2242950  )
        43           H   tau(  43) = (   0.8998572   0.9888713   1.8543740  )
        44           H   tau(  44) = (   0.7155178   1.3854513   0.0377188  )
        45           H   tau(  45) = (   0.9950270   0.8864732   1.5456904  )
        46           H   tau(  46) = (   0.6203481   1.4878493   0.3464025  )
        47           H   tau(  47) = (   0.6083049   0.9856406   1.3955464  )
        48           H   tau(  48) = (   1.0070701   1.3886820   0.4965465  )
        49           H   tau(  49) = (   0.8272741   2.0361460   1.2045933  )
        50           H   tau(  50) = (   0.7881009   0.3381765   0.6874996  )
        51           H   tau(  51) = (   1.5394879   1.9675570   1.6882035  )
        52           H   tau(  52) = (   0.0758871   0.4067655   0.2038894  )
        53           H   tau(  53) = (   0.8528947   1.8345833   1.6908936  )
        54           H   tau(  54) = (   0.7624803   0.5397392   0.2011993  )
        55           H   tau(  55) = (   0.8350749   2.2698602   1.8714062  )
        56           H   tau(  56) = (   0.7803002   0.1044623   0.0206867  )
        57           H   tau(  57) = (   0.5656855   0.5148722   1.5770661  )
        58           H   tau(  58) = (   1.0496895   1.8594504   0.3150268  )
        59           H   tau(  59) = (   1.0955563   2.2997850   1.3937824  )
        60           H   tau(  60) = (   0.5198187   0.0745376   0.4983104  )

     number of k points=    12
                       cart. coord. in units 2pi/alat
        k(    1) = (   0.0000000   0.0000000   0.0000000), wk =   0.1250000
        k(    2) = (   0.0000000   0.0000000  -0.2642576), wk =   0.1250000
        k(    3) = (   0.0000000  -0.2661944   0.0697806), wk =   0.1250000
        k(    4) = (   0.0000000  -0.2661944  -0.1944770), wk =   0.1250000
        k(    5) = (   0.2500000  -0.0200267  -0.0561780), wk =   0.2500000
        k(    6) = (   0.2500000  -0.0200267  -0.3204356), wk =   0.2500000
        k(    7) = (   0.2500000  -0.2862211   0.0136027), wk =   0.2500000
        k(    8) = (   0.2500000  -0.2862211  -0.2506550), wk =   0.2500000
        k(    9) = (  -0.5000000   0.0400534   0.1123559), wk =   0.1250000
        k(   10) = (  -0.5000000   0.0400534  -0.1519017), wk =   0.1250000
        k(   11) = (  -0.5000000  -0.2261410   0.1821366), wk =   0.1250000
        k(   12) = (  -0.5000000  -0.2261410  -0.0821211), wk =   0.1250000

     Dense  grid:   463919 G-vectors     FFT dimensions: (  64, 120, 128)

     Estimated max dynamical RAM per process >     318.50MB

     Estimated total allocated dynamical RAM >    2547.96MB

     Check: negative/imaginary core charge=   -0.000002    0.000000

     Initial potential from superposition of free atoms

     starting charge  175.99886, renormalised to  176.00000
     Starting wfc are  156 randomized atomic wfcs
     Checking if some PAW data can be deallocated... 

     total cpu time spent up to now is       20.7 secs

     per-process dynamical memory:   283.4 Mb

     Self-consistent Calculation

     iteration #  1     ecut=   100.00 Ry     beta=0.50
     Davidson diagonalization with overlap
     ethr =  1.00E-02,  avg # of iterations =  4.0

     total cpu time spent up to now is       71.0 secs

     total energy              =    -847.31425244 Ry
     Harris-Foulkes estimate   =    -850.20427182 Ry
     estimated scf accuracy    <       5.61749592 Ry

     iteration #  2     ecut=   100.00 Ry     beta=0.50
     Davidson diagonalization with overlap
     ethr =  3.19E-03,  avg # of iterations =  2.7

     total cpu time spent up to now is       99.0 secs

     total energy              =    -847.85556647 Ry
     Harris-Foulkes estimate   =    -848.17083082 Ry
     estimated scf accuracy    <       0.70389666 Ry

     iteration #  3     ecut=   100.00 Ry     beta=0.50
     Davidson diagonalization with overlap
     ethr =  4.00E-04,  avg # of iterations =  6.9

     total cpu time spent up to now is      154.6 secs

     total energy              =    -848.22956642 Ry
     Harris-Foulkes estimate   =    -848.37612067 Ry
     estimated scf accuracy    <       0.36278502 Ry

     iteration #  4     ecut=   100.00 Ry     beta=0.50
     Davidson diagonalization with overlap
     ethr =  2.06E-04,  avg # of iterations =  1.7

     total cpu time spent up to now is      179.0 secs

     total energy              =    -848.21359177 Ry
     Harris-Foulkes estimate   =    -848.25873592 Ry
     estimated scf accuracy    <       0.08218673 Ry

     iteration #  5     ecut=   100.00 Ry     beta=0.50
     Davidson diagonalization with overlap
     ethr =  4.67E-05,  avg # of iterations =  5.9

     total cpu time spent up to now is      232.8 secs

     total energy              =    -848.27472171 Ry
     Harris-Foulkes estimate   =    -848.31339862 Ry
     estimated scf accuracy    <       0.13931526 Ry

     iteration #  6     ecut=   100.00 Ry     beta=0.50
     Davidson diagonalization with overlap
     ethr =  4.67E-05,  avg # of iterations =  1.2

     total cpu time spent up to now is      257.2 secs

     total energy              =    -848.26371393 Ry
     Harris-Foulkes estimate   =    -848.28273090 Ry
     estimated scf accuracy    <       0.05925940 Ry

     iteration #  7     ecut=   100.00 Ry     beta=0.50
     Davidson diagonalization with overlap
     ethr =  3.37E-05,  avg # of iterations =  2.9

     total cpu time spent up to now is      287.9 secs

     total energy              =    -848.27124855 Ry
     Harris-Foulkes estimate   =    -848.27434620 Ry
     estimated scf accuracy    <       0.00520943 Ry

     iteration #  8     ecut=   100.00 Ry     beta=0.50
     Davidson diagonalization with overlap
     ethr =  2.96E-06,  avg # of iterations =  6.6

     total cpu time spent up to now is      342.8 secs

     total energy              =    -848.27383154 Ry
     Harris-Foulkes estimate   =    -848.27491131 Ry
     estimated scf accuracy    <       0.00208509 Ry

     iteration #  9     ecut=   100.00 Ry     beta=0.50
     Davidson diagonalization with overlap
     ethr =  1.18E-06,  avg # of iterations =  4.4

     total cpu time spent up to now is      370.7 secs

     total energy              =    -848.27411481 Ry
     Harris-Foulkes estimate   =    -848.27414138 Ry
     estimated scf accuracy    <       0.00009274 Ry

     iteration # 10     ecut=   100.00 Ry     beta=0.50
     Davidson diagonalization with overlap
     ethr =  5.27E-08,  avg # of iterations =  4.4

     total cpu time spent up to now is      425.4 secs

     total energy              =    -848.27435084 Ry
     Harris-Foulkes estimate   =    -848.27440941 Ry
     estimated scf accuracy    <       0.00017413 Ry

     iteration # 11     ecut=   100.00 Ry     beta=0.50
     Davidson diagonalization with overlap
     ethr =  5.27E-08,  avg # of iterations =  1.0

     total cpu time spent up to now is      449.0 secs

     total energy              =    -848.27432763 Ry
     Harris-Foulkes estimate   =    -848.27435743 Ry
     estimated scf accuracy    <       0.00006153 Ry

     iteration # 12     ecut=   100.00 Ry     beta=0.50
     Davidson diagonalization with overlap
     ethr =  3.50E-08,  avg # of iterations =  4.0

     total cpu time spent up to now is      490.4 secs

     total energy              =    -848.27435668 Ry
     Harris-Foulkes estimate   =    -848.27435999 Ry
     estimated scf accuracy    <       0.00000958 Ry

     iteration # 13     ecut=   100.00 Ry     beta=0.50
     Davidson diagonalization with overlap
     ethr =  5.44E-09,  avg # of iterations =  1.0

     total cpu time spent up to now is      513.7 secs

     total energy              =    -848.27435524 Ry
     Harris-Foulkes estimate   =    -848.27435712 Ry
     estimated scf accuracy    <       0.00000345 Ry

     iteration # 14     ecut=   100.00 Ry     beta=0.50
     Davidson diagonalization with overlap
     ethr =  1.96E-09,  avg # of iterations =  4.0

     total cpu time spent up to now is      556.5 secs

     total energy              =    -848.27435710 Ry
     Harris-Foulkes estimate   =    -848.27435760 Ry
     estimated scf accuracy    <       0.00000108 Ry

     iteration # 15     ecut=   100.00 Ry     beta=0.50
     Davidson diagonalization with overlap
     ethr =  6.15E-10,  avg # of iterations =  1.5

     total cpu time spent up to now is      579.9 secs

     total energy              =    -848.27435707 Ry
     Harris-Foulkes estimate   =    -848.27435718 Ry
     estimated scf accuracy    <       0.00000019 Ry

     iteration # 16     ecut=   100.00 Ry     beta=0.50
     Davidson diagonalization with overlap
     ethr =  1.11E-10,  avg # of iterations =  4.0

     total cpu time spent up to now is      626.6 secs

     total energy              =    -848.27435731 Ry
     Harris-Foulkes estimate   =    -848.27435734 Ry
     estimated scf accuracy    <       0.00000021 Ry

     iteration # 17     ecut=   100.00 Ry     beta=0.50
     Davidson diagonalization with overlap
     ethr =  1.11E-10,  avg # of iterations =  1.0

     total cpu time spent up to now is      649.8 secs

     total energy              =    -848.27435726 Ry
     Harris-Foulkes estimate   =    -848.27435732 Ry
     estimated scf accuracy    <       0.00000014 Ry

     iteration # 18     ecut=   100.00 Ry     beta=0.50
     Davidson diagonalization with overlap
     ethr =  8.22E-11,  avg # of iterations =  2.7

     total cpu time spent up to now is      674.3 secs

     total energy              =    -848.27435726 Ry
     Harris-Foulkes estimate   =    -848.27435727 Ry
     estimated scf accuracy    <       0.00000004 Ry

     iteration # 19     ecut=   100.00 Ry     beta=0.50
     Davidson diagonalization with overlap
     ethr =  2.07E-11,  avg # of iterations =  4.0

     total cpu time spent up to now is      714.4 secs

     End of self-consistent calculation

          k = 0.0000 0.0000 0.0000 ( 58059 PWs)   bands (ev):

   -19.1551 -19.0264 -18.9703 -18.8457 -18.2798 -18.1909 -18.0766 -18.0118
   -17.3608 -17.3381 -17.1424 -17.1271 -13.7095 -13.6832 -12.2309 -12.1979
   -11.9408 -11.8494 -11.4006 -11.3784 -10.1560  -9.8995  -9.2937  -9.0696
    -8.7245  -8.5917  -8.1665  -7.8221  -7.7860  -7.6551  -7.4623  -7.1898
    -6.2233  -6.1681  -5.9380  -5.8604  -5.7359  -5.6675  -5.5406  -5.4443
    -5.1562  -4.9636  -4.7019  -4.4914  -4.3949  -4.2233  -4.1458  -4.0200
    -4.0030  -3.9174  -3.9138  -3.8873  -3.7531  -3.4845  -3.4559  -3.3478
    -3.1046  -3.0893  -3.0675  -2.9958  -2.9492  -2.8762  -2.8687  -2.6898
    -2.4830  -2.4475  -2.1325  -2.1083  -1.5664  -1.4195  -1.4123  -1.3256
    -1.1956  -0.8937  -0.7989  -0.4585   0.2294   0.3257   0.3565   0.5670
     0.5914   0.6551   0.8966   0.9640   1.0029   1.0690   1.4101   1.5837
     3.3004   3.5441   6.0798   6.2062   6.4705   6.6537   6.8095   7.2200
     7.6257   7.9952   8.0308   8.3852   8.4226   8.5571   8.8181   8.8890
     9.1703

          k = 0.0000 0.0000-0.2643 ( 57986 PWs)   bands (ev):

   -19.1533 -19.0266 -18.9704 -18.8461 -18.2909 -18.1833 -18.1052 -17.9776
   -17.3583 -17.3409 -17.1392 -17.1328 -13.7036 -13.6924 -12.2511 -12.1695
   -11.9344 -11.8592 -11.4685 -11.3070 -10.1852  -9.8693  -9.2488  -9.1222
    -8.6542  -8.6520  -8.1994  -7.8255  -7.8225  -7.5775  -7.3945  -7.3115
    -6.2769  -6.0616  -5.9187  -5.8663  -5.6965  -5.6726  -5.5542  -5.3839
    -5.1215  -4.9651  -4.7930  -4.5392  -4.3404  -4.3014  -4.2152  -4.0327
    -4.0262  -3.9447  -3.9185  -3.8443  -3.5688  -3.5643  -3.4200  -3.3188
    -3.2709  -3.0840  -3.0518  -2.9965  -2.9900  -2.8746  -2.7887  -2.6853
    -2.6187  -2.3154  -2.2074  -2.0118  -1.5345  -1.4520  -1.3944  -1.3378
    -1.0618  -0.9286  -0.7459  -0.5577   0.2035   0.2661   0.3508   0.5840
     0.6269   0.6975   0.8965   0.9656   1.0146   1.0506   1.4043   1.5906
     3.3234   3.4937   6.1033   6.1594   6.5028   6.5744   6.8018   7.2392
     7.6538   7.7284   8.1858   8.3003   8.5010   8.7670   8.7938   8.9449
     9.0667

          k = 0.0000-0.2662 0.0698 ( 57988 PWs)   bands (ev):

   -19.1151 -19.1056 -18.8926 -18.8844 -18.2800 -18.1853 -18.0793 -18.0167
   -17.3492 -17.3431 -17.1412 -17.1323 -13.7022 -13.6939 -12.2000 -12.1954
   -11.9525 -11.8691 -11.4203 -11.3657 -10.0581  -9.9989  -9.2126  -9.1805
    -8.6351  -8.6125  -8.1089  -8.0515  -7.6897  -7.6440  -7.3565  -7.2585
    -6.2763  -6.1975  -5.8823  -5.8311  -5.7473  -5.6594  -5.5290  -5.3523
    -5.1324  -5.0775  -4.7144  -4.7133  -4.2752  -4.2343  -4.1488  -4.0642
    -4.0165  -3.9174  -3.8035  -3.7237  -3.7113  -3.5238  -3.4499  -3.2182
    -3.1889  -3.1419  -3.0512  -2.9959  -2.9595  -2.9359  -2.7785  -2.7364
    -2.5651  -2.4872  -2.1330  -2.0877  -1.5649  -1.5059  -1.3297  -1.3120
    -1.1161  -1.0266  -0.7766  -0.4618   0.3081   0.3614   0.4634   0.4938
     0.5177   0.6187   0.8463   0.8734   1.0251   1.0678   1.5266   1.5523
     3.4332   3.4397   6.0793   6.1569   6.5303   6.5847   6.8199   7.4789
     7.6568   7.7473   8.0805   8.1245   8.5557   8.6541   8.8958   8.9929
     9.1913

          k = 0.0000-0.2662-0.1945 ( 57954 PWs)   bands (ev):

   -19.1147 -19.1042 -18.8928 -18.8848 -18.2805 -18.1959 -18.1038 -17.9795
   -17.3474 -17.3434 -17.1438 -17.1336 -13.7016 -13.6965 -12.2274 -12.1908
   -11.9110 -11.8822 -11.4221 -11.3637 -10.0783  -9.9808  -9.2052  -9.1722
    -8.6529  -8.6216  -8.1006  -8.0878  -7.6676  -7.6672  -7.3162  -7.2583
    -6.2234  -6.1622  -5.8986  -5.8797  -5.6930  -5.6678  -5.5614  -5.3874
    -5.1011  -5.0457  -4.8185  -4.7402  -4.2629  -4.2417  -4.1233  -4.0085
    -3.9999  -3.9296  -3.7797  -3.7616  -3.7405  -3.5275  -3.4589  -3.2357
    -3.2034  -3.1751  -3.0828  -2.9944  -2.9245  -2.8614  -2.7737  -2.7497
    -2.5946  -2.5431  -2.0653  -2.0449  -1.5340  -1.5099  -1.3565  -1.3396
    -1.0877  -0.9134  -0.7718  -0.5549   0.3194   0.3231   0.4293   0.5141
     0.5535   0.5586   0.8418   0.8996   1.0565   1.0802   1.5105   1.5624
     3.4009   3.4522   6.0823   6.1220   6.5257   6.6102   6.7439   7.4198
     7.6500   7.8134   8.1825   8.3260   8.5720   8.6727   8.7598   8.7780
     9.1282

          k = 0.2500-0.0200-0.0562 ( 57973 PWs)   bands (ev):

   -19.1136 -19.0345 -18.9554 -18.8868 -18.2718 -18.1840 -18.0704 -18.0079
   -17.3303 -17.3193 -17.1714 -17.1580 -13.7323 -13.7148 -12.2741 -12.2066
   -11.9603 -11.8547 -11.4284 -11.3732 -10.0399  -9.9983  -9.1865  -9.1456
    -8.6787  -8.6312  -8.0956  -8.0383  -7.6989  -7.5634  -7.3168  -7.2399
    -6.3290  -6.1672  -5.9632  -5.8734  -5.6715  -5.6511  -5.4780  -5.2913
    -5.1029  -5.0323  -4.8525  -4.7332  -4.4287  -4.2937  -4.1705  -4.1486
    -4.0761  -3.9550  -3.8028  -3.6786  -3.6170  -3.5824  -3.4568  -3.3221
    -3.2423  -3.1393  -3.1034  -3.0629  -2.9162  -2.8149  -2.6489  -2.6168
    -2.4840  -2.3491  -2.1361  -2.0962  -1.8737  -1.7657  -1.1415  -0.9826
    -0.9546  -0.9361  -0.7559  -0.4977   0.3341   0.3835   0.4541   0.5611
     0.7249   0.7888   0.8205   0.9507   1.0258   1.0916   1.5497   1.6556
     3.2278   3.3030   5.9866   6.1196   6.3999   6.4251   6.8854   7.4575
     7.7355   7.9101   8.0273   8.2101   8.2418   8.4367   8.7596   8.8671
     9.1515

          k = 0.2500-0.0200-0.3204 ( 57943 PWs)   bands (ev):

   -19.1123 -19.0340 -18.9559 -18.8870 -18.2785 -18.1796 -18.1001 -17.9742
   -17.3265 -17.3216 -17.1736 -17.1597 -13.7379 -13.7106 -12.3031 -12.1890
   -11.9167 -11.8812 -11.4292 -11.3738 -10.0391 -10.0116  -9.2254  -9.0806
    -8.7134  -8.6007  -8.0960  -8.0537  -7.6868  -7.5891  -7.3067  -7.2446
    -6.2816  -6.1962  -5.9537  -5.8842  -5.6562  -5.6070  -5.4599  -5.3143
    -5.0930  -5.0256  -4.8986  -4.8328  -4.4075  -4.2795  -4.2015  -4.1413
    -4.0408  -3.9129  -3.8161  -3.6842  -3.6230  -3.5579  -3.3807  -3.3647
    -3.2229  -3.1874  -3.1460  -3.0537  -2.9796  -2.8665  -2.6629  -2.6018
    -2.4949  -2.3072  -2.1235  -2.0442  -1.8925  -1.7132  -1.0717  -1.0117
    -0.9341  -0.8894  -0.7633  -0.5699   0.3318   0.3562   0.3914   0.5496
     0.7542   0.8136   0.8747   0.9457   1.0204   1.0781   1.5451   1.6574
     3.2371   3.2847   5.9715   6.1164   6.3765   6.4600   6.8736   7.5904
     7.6445   7.8730   8.0679   8.0984   8.4260   8.4482   8.7326   8.8757
     8.9531

          k = 0.2500-0.2862 0.0136 ( 57959 PWs)   bands (ev):

   -19.1045 -19.0514 -18.9455 -18.8890 -18.2717 -18.1814 -18.0711 -18.0112
   -17.3332 -17.3113 -17.1769 -17.1561 -13.7450 -13.7021 -12.2813 -12.2109
   -11.9109 -11.8893 -11.4267 -11.3741 -10.1585  -9.8603  -9.2534  -9.0754
    -8.7349  -8.6170  -8.1752  -7.8165  -7.7840  -7.5523  -7.4459  -7.1702
    -6.2745  -6.1988  -5.9535  -5.8509  -5.7643  -5.6764  -5.4187  -5.3996
    -5.1852  -4.9902  -4.7053  -4.6608  -4.3545  -4.2959  -4.2667  -4.1714
    -4.0632  -3.8985  -3.7523  -3.6983  -3.6467  -3.5681  -3.4478  -3.4256
    -3.2048  -3.1623  -3.1384  -2.9866  -2.9596  -2.8326  -2.6697  -2.5375
    -2.5049  -2.4189  -2.1365  -2.0864  -1.8213  -1.7531  -1.1227  -1.0387
    -0.9653  -0.9167  -0.8028  -0.5081   0.3576   0.4714   0.5107   0.5664
     0.6146   0.6694   0.7661   0.9704   1.0946   1.1362   1.5864   1.6305
     3.2014   3.3446   6.0033   6.0754   6.3738   6.4471   6.8567   7.5452
     7.6762   7.9001   8.1623   8.2610   8.3712   8.5443   8.6585   8.8104
     8.9526

          k = 0.2500-0.2862-0.2507 ( 57919 PWs)   bands (ev):

   -19.1034 -19.0511 -18.9453 -18.8894 -18.2732 -18.1871 -18.0975 -17.9758
   -17.3321 -17.3120 -17.1736 -17.1624 -13.7438 -13.7048 -12.3182 -12.1663
   -11.9178 -11.8811 -11.4696 -11.3355 -10.1593  -9.8602  -9.3112  -9.0215
    -8.7096  -8.6261  -8.1974  -7.8290  -7.7939  -7.4944  -7.3982  -7.2546
    -6.3171  -6.1738  -5.8779  -5.8301  -5.7618  -5.6494  -5.5469  -5.3151
    -5.1722  -4.9869  -4.8168  -4.6554  -4.4129  -4.3012  -4.2691  -4.1101
    -4.0642  -3.8852  -3.8262  -3.6539  -3.6097  -3.5534  -3.4531  -3.4112
    -3.2526  -3.1531  -3.0996  -3.0112  -2.9557  -2.8068  -2.7598  -2.5551
    -2.4583  -2.3813  -2.1473  -2.0737  -1.8292  -1.7595  -1.0607  -1.0112
    -0.9447  -0.9255  -0.7861  -0.5633   0.3044   0.4808   0.4878   0.5877
     0.6168   0.6487   0.7662   0.9896   1.0736   1.1849   1.5842   1.6252
     3.2206   3.3114   6.0033   6.0767   6.3702   6.4768   6.8298   7.4424
     7.7164   8.0077   8.1289   8.3163   8.3558   8.5130   8.7544   8.8242
     9.0422

          k =-0.5000 0.0401 0.1124 ( 57968 PWs)   bands (ev):

   -19.0515 -19.0283 -18.9615 -18.9417 -18.2635 -18.1776 -18.0637 -18.0040
   -17.2906 -17.2689 -17.2307 -17.1996 -13.7800 -13.7210 -12.2934 -12.2436
   -11.9564 -11.8711 -11.4552 -11.3710 -10.1506  -9.8382  -9.2158  -9.0605
    -8.7410  -8.6548  -8.1852  -7.8124  -7.7717  -7.4484  -7.4187  -7.1475
    -6.3660  -6.2124  -5.9854  -5.8804  -5.7273  -5.6081  -5.4353  -5.2064
    -5.1619  -4.9950  -4.8913  -4.6808  -4.6164  -4.3011  -4.2039  -4.1533
    -4.1448  -3.8985  -3.8271  -3.6687  -3.6090  -3.5848  -3.4590  -3.3684
    -3.3072  -3.1492  -3.1299  -3.0622  -2.9445  -2.7411  -2.6844  -2.6227
    -2.4021  -2.1572  -2.0878  -2.0621  -1.9973  -1.8672  -1.0609  -0.9751
    -0.8957  -0.7821  -0.5876  -0.5794   0.4101   0.5187   0.5243   0.6638
     0.7031   0.8424   0.8966   0.9165   1.0759   1.1178   1.7138   1.7619
     2.9780   3.1396   5.8379   6.0453   6.1779   6.2302   7.2190   7.4722
     7.5184   7.8935   7.9394   8.0027   8.5319   8.6708   8.8043   8.9043
     8.9365

          k =-0.5000 0.0401-0.1519 ( 57952 PWs)   bands (ev):

   -19.0511 -19.0272 -18.9613 -18.9424 -18.2670 -18.1751 -18.0942 -17.9707
   -17.2879 -17.2707 -17.2274 -17.2064 -13.7828 -13.7178 -12.3540 -12.1809
   -11.9185 -11.9057 -11.4567 -11.3754 -10.1278  -9.8593  -9.3393  -8.9277
    -8.7244  -8.6521  -8.1983  -7.8179  -7.7873  -7.4174  -7.3900  -7.2002
    -6.3639  -6.2834  -5.9233  -5.8438  -5.7532  -5.5803  -5.3318  -5.2944
    -5.2147  -5.0286  -4.8585  -4.7342  -4.5692  -4.3208  -4.2065  -4.1961
    -4.1018  -3.9212  -3.7794  -3.7214  -3.5291  -3.4952  -3.4790  -3.3012
    -3.3000  -3.2135  -3.2109  -3.0422  -3.0178  -2.8835  -2.7335  -2.4867
    -2.3501  -2.1349  -2.1083  -2.0816  -2.0006  -1.8152  -1.0124  -0.9541
    -0.8778  -0.7373  -0.6631  -0.5720   0.3141   0.4840   0.5892   0.6565
     0.6830   0.8275   0.9200   0.9627   1.0420   1.1352   1.7120   1.7596
     3.0015   3.1181   5.8732   6.0166   6.1732   6.2446   7.1429   7.5338
     7.6059   7.8398   8.0640   8.0912   8.4510   8.6591   8.7597   8.8251
     8.9009

          k =-0.5000-0.2261 0.1821 ( 58012 PWs)   bands (ev):

   -19.0517 -19.0286 -18.9564 -18.9462 -18.2634 -18.1769 -18.0627 -18.0061
   -17.2885 -17.2760 -17.2250 -17.2000 -13.7488 -13.7483 -12.3401 -12.2298
   -11.9129 -11.8920 -11.4235 -11.3925 -10.0604  -9.9555  -9.1319  -9.1228
    -8.7314  -8.6653  -8.0716  -8.0362  -7.6409  -7.5643  -7.2691  -7.2197
    -6.3711  -6.1929  -5.9539  -5.8478  -5.6873  -5.6504  -5.3534  -5.2549
    -5.1543  -5.1475  -4.8846  -4.8310  -4.4374  -4.3704  -4.2612  -4.1727
    -3.9808  -3.9292  -3.8163  -3.6123  -3.6010  -3.5516  -3.4530  -3.4519
    -3.1584  -3.1440  -3.0655  -3.0601  -2.9779  -2.8888  -2.7514  -2.6248
    -2.2689  -2.2242  -2.1449  -2.0920  -1.8969  -1.8915  -1.0444  -0.9950
    -0.8726  -0.7601  -0.6905  -0.5961   0.3573   0.4921   0.6221   0.6223
     0.7726   0.8054   0.9297   0.9702   1.0591   1.0990   1.7146   1.7446
     3.0427   3.0800   5.9159   5.9703   6.2014   6.2086   7.1901   7.4541
     7.7320   7.8226   7.9748   8.1480   8.2911   8.6330   8.8226   8.8405
     8.9849

          k =-0.5000-0.2261-0.0821 ( 58000 PWs)   bands (ev):

   -19.0512 -19.0275 -18.9564 -18.9469 -18.2646 -18.1792 -18.0916 -17.9721
   -17.2852 -17.2755 -17.2276 -17.2037 -13.7504 -13.7478 -12.3652 -12.2031
   -11.9045 -11.8907 -11.4224 -11.4007 -10.0520  -9.9886  -9.1547  -9.0918
    -8.7719  -8.5871  -8.0775  -8.0327  -7.6186  -7.5876  -7.2708  -7.2382
    -6.3420  -6.2461  -5.8842  -5.8650  -5.6645  -5.6093  -5.3995  -5.2706
    -5.1519  -5.1031  -4.9697  -4.9389  -4.4469  -4.4233  -4.1334  -4.1270
    -3.9935  -3.9310  -3.8245  -3.6259  -3.5724  -3.4850  -3.4452  -3.4033
    -3.1745  -3.1694  -3.0923  -3.0517  -3.0149  -2.9799  -2.6877  -2.6372
    -2.2833  -2.2154  -2.1112  -2.1052  -1.9282  -1.8740  -0.9938  -0.9728
    -0.8323  -0.7540  -0.7178  -0.6158   0.3717   0.3781   0.5938   0.6368
     0.7980   0.8590   0.9048   0.9487   1.0832   1.1118   1.7119   1.7424
     3.0594   3.0693   5.9428   5.9465   6.1879   6.2182   7.1405   7.5147
     7.7731   7.8018   8.0525   8.1258   8.2681   8.5852   8.8053   8.8799
     9.0757

     highest occupied, lowest unoccupied level (ev):     1.7619    2.9780

!    total energy              =    -848.27435728 Ry
     Harris-Foulkes estimate   =    -848.27435728 Ry
     estimated scf accuracy    <          4.9E-10 Ry

     total all-electron energy =     -3199.526608 Ry

     The total energy is the sum of the following terms:

     one-electron contribution =    -407.39682738 Ry
     hartree contribution      =     274.64732412 Ry
     xc contribution           =    -184.02165282 Ry
     ewald contribution        =    -288.98644494 Ry
     Dispersion Correction     =      -0.29373886 Ry
     one-center paw contrib.   =    -242.22301741 Ry

     convergence has been achieved in  19 iterations

     Forces acting on atoms (cartesian axes, Ry/au):

     atom    1 type  4   force =    -0.00379989   -0.00790783   -0.00164707
     atom    2 type  4   force =     0.00379989    0.00790783    0.00164707
     atom    3 type  4   force =     0.00355934    0.00728007   -0.00048248
     atom    4 type  4   force =    -0.00355934   -0.00728007    0.00048248
     atom    5 type  2   force =     0.00909404    0.00023240    0.00663307
     atom    6 type  2   force =    -0.00909404   -0.00023240   -0.00663307
     atom    7 type  2   force =    -0.00800740   -0.00077128    0.00765026
     atom    8 type  2   force =     0.00800740    0.00077128   -0.00765026
     atom    9 type  4   force =    -0.00343405   -0.00796985    0.00289927
     atom   10 type  4   force =     0.00343405    0.00796985   -0.00289927
     atom   11 type  1   force =    -0.00017793    0.00058928    0.00075901
     atom   12 type  1   force =     0.00017793   -0.00058928   -0.00075901
     atom   13 type  4   force =     0.00446264    0.00733386    0.00432791
     atom   14 type  4   force =    -0.00446264   -0.00733386   -0.00432791
     atom   15 type  1   force =     0.00019738    0.00056630   -0.00070429
     atom   16 type  1   force =    -0.00019738   -0.00056630    0.00070429
     atom   17 type  1   force =    -0.01256835    0.00428234   -0.00244112
     atom   18 type  1   force =     0.01256835   -0.00428234    0.00244112
     atom   19 type  1   force =    -0.01371691    0.00674277    0.00575012
     atom   20 type  1   force =     0.01371691   -0.00674277   -0.00575012
     atom   21 type  1   force =     0.01282735   -0.00610422    0.00366992
     atom   22 type  1   force =    -0.01282735    0.00610422   -0.00366992
     atom   23 type  1   force =     0.01349416   -0.00441627   -0.00363289
     atom   24 type  1   force =    -0.01349416    0.00441627    0.00363289
     atom   25 type  1   force =     0.00308774    0.00420926   -0.00549967
     atom   26 type  1   force =    -0.00308774   -0.00420926    0.00549967
     atom   27 type  1   force =    -0.00512898   -0.00263996   -0.00606487
     atom   28 type  1   force =     0.00512898    0.00263996    0.00606487
     atom   29 type  1   force =    -0.00054730   -0.00770065   -0.01246833
     atom   30 type  1   force =     0.00054730    0.00770065    0.01246833
     atom   31 type  1   force =    -0.00197391    0.00789275   -0.01114378
     atom   32 type  1   force =     0.00197391   -0.00789275    0.01114378
     atom   33 type  3   force =     0.00044563   -0.00055330    0.00208275
     atom   34 type  3   force =    -0.00044563    0.00055330   -0.00208275
     atom   35 type  3   force =     0.00030289   -0.00012589    0.00131071
     atom   36 type  3   force =    -0.00030289    0.00012589   -0.00131071
     atom   37 type  3   force =    -0.00121805    0.00089816    0.00023796
     atom   38 type  3   force =     0.00121805   -0.00089816   -0.00023796
     atom   39 type  3   force =    -0.00272988    0.00403312    0.00221861
     atom   40 type  3   force =     0.00272988   -0.00403312   -0.00221861
     atom   41 type  3   force =     0.00214470   -0.00006348    0.00171549
     atom   42 type  3   force =    -0.00214470    0.00006348   -0.00171549
     atom   43 type  3   force =    -0.00101050   -0.00001328   -0.00139019
     atom   44 type  3   force =     0.00101050    0.00001328    0.00139019
     atom   45 type  3   force =    -0.00131396    0.00161626    0.00235931
     atom   46 type  3   force =     0.00131396   -0.00161626   -0.00235931
     atom   47 type  3   force =    -0.00023389    0.00021439    0.00034741
     atom   48 type  3   force =     0.00023389   -0.00021439   -0.00034741
     atom   49 type  3   force =     0.00070920   -0.00188510   -0.00031439
     atom   50 type  3   force =    -0.00070920    0.00188510    0.00031439
     atom   51 type  3   force =    -0.00106660    0.00041811    0.00072870
     atom   52 type  3   force =     0.00106660   -0.00041811   -0.00072870
     atom   53 type  3   force =     0.00272809   -0.00445148   -0.00011132
     atom   54 type  3   force =    -0.00272809    0.00445148    0.00011132
     atom   55 type  3   force =     0.00150313    0.00028897    0.00086430
     atom   56 type  3   force =    -0.00150313   -0.00028897   -0.00086430
     atom   57 type  3   force =     0.00169428   -0.00224999    0.00248081
     atom   58 type  3   force =    -0.00169428    0.00224999   -0.00248081
     atom   59 type  3   force =     0.00017293   -0.00095204    0.00027213
     atom   60 type  3   force =    -0.00017293    0.00095204   -0.00027213

     Total force =     0.064735     Total SCF correction =     0.000053


     Computing stress (Cartesian axis) and pressure

          total   stress  (Ry/bohr**3)                   (kbar)     P=  -12.49
  -0.00012328  -0.00005059   0.00000833        -18.13     -7.44      1.23
  -0.00005059  -0.00004864   0.00000983         -7.44     -7.16      1.45
   0.00000833   0.00000983  -0.00008288          1.23      1.45    -12.19


     Writing output data file scf.save
 
     init_run     :     19.58s CPU     19.93s WALL (       1 calls)
     electrons    :    677.75s CPU    693.88s WALL (       1 calls)
     forces       :      9.94s CPU     10.01s WALL (       1 calls)
     stress       :     29.61s CPU     29.70s WALL (       1 calls)

     Called by init_run:
     wfcinit      :     13.59s CPU     13.88s WALL (       1 calls)
     potinit      :      2.16s CPU      2.18s WALL (       1 calls)

     Called by electrons:
     c_bands      :    604.59s CPU    618.86s WALL (      19 calls)
     sum_band     :     63.55s CPU     65.22s WALL (      19 calls)
     v_of_rho     :      1.27s CPU      1.36s WALL (      20 calls)
     newd         :      2.79s CPU      2.83s WALL (      20 calls)
     PAW_pot      :      5.02s CPU      5.03s WALL (      20 calls)
     mix_rho      :      0.32s CPU      0.34s WALL (      19 calls)

     Called by c_bands:
     init_us_2    :      4.87s CPU      4.88s WALL (     492 calls)
     cegterg      :    586.77s CPU    600.87s WALL (     228 calls)

     Called by sum_band:
     sum_band:bec :      0.06s CPU      0.05s WALL (     228 calls)
     addusdens    :      2.78s CPU      2.81s WALL (      19 calls)

     Called by *egterg:
     h_psi        :    331.67s CPU    340.74s WALL (    1007 calls)
     s_psi        :     59.58s CPU     59.60s WALL (    1007 calls)
     g_psi        :      2.10s CPU      2.11s WALL (     767 calls)
     cdiaghg      :     34.61s CPU     34.60s WALL (     995 calls)

     Called by h_psi:
     h_psi:pot    :    329.28s CPU    338.32s WALL (    1007 calls)
     h_psi:calbec :     61.25s CPU     61.50s WALL (    1007 calls)
     vloc_psi     :    208.66s CPU    217.44s WALL (    1007 calls)
     add_vuspsi   :     59.36s CPU     59.37s WALL (    1007 calls)

     General routines
     calbec       :     89.95s CPU     90.27s WALL (    1295 calls)
     fft          :      1.43s CPU      1.56s WALL (     284 calls)
     fftw         :    221.19s CPU    230.82s WALL (  165746 calls)
 
     Parallel routines
     fft_scatter  :     76.03s CPU     81.92s WALL (  166030 calls)
 
     PWSCF        : 12m22.39s CPU    12m41.35s WALL

 
   This run was terminated on:   5:49:44  15Dec2017            

=------------------------------------------------------------------------------=
   JOB DONE.
=------------------------------------------------------------------------------=
