
     Program PWSCF v.6.1 (svn rev. 13369) starts on  5Nov2017 at  0: 1:39 

     This program is part of the open-source Quantum ESPRESSO suite
     for quantum simulation of materials; please cite
         "P. Giannozzi et al., J. Phys.:Condens. Matter 21 395502 (2009);
          URL http://www.quantum-espresso.org", 
     in publications or presentations arising from this work. More details at
     http://www.quantum-espresso.org/quote

     Parallel version (MPI), running on     8 processors
     R & G space division:  proc/nbgrp/npool/nimage =       8
     Waiting for input...
     Reading input from standard input

     Current dimensions of program PWSCF are:
     Max number of different atomic species (ntypx) = 10
     Max number of k-points (npk) =  40000
     Max angular momentum in pseudopotentials (lmaxx) =  3
               file C.pbe-n-kjpaw_psl.0.1.UPF: wavefunction(s)  2P renormalized
               file N.pbe-n-kjpaw_psl.0.1.UPF: wavefunction(s)  2P renormalized
               file H.pbe-kjpaw_psl.0.1.UPF: wavefunction(s)  1S renormalized
               file O.pbe-n-kjpaw_psl.0.1.UPF: wavefunction(s)  2P renormalized

     -------------------------------------
     Parameters for Dispersion Correction:
     -------------------------------------
       atom      VdW radius       C_6     

        C          2.744         60.710
        N          2.640         42.670
        H          1.892          4.857
        O          2.536         24.284

     Subspace diagonalization in iterative solution of the eigenvalue problem:
     a serial algorithm will be used

 
     Parallelization info
     --------------------
     sticks:   dense  smooth     PW     G-vecs:    dense   smooth      PW
     Min        1245    1245    337                49571    49571    6977
     Max        1246    1246    338                49572    49572    6978
     Sum        9963    9963   2701               396573   396573   55817
 


     bravais-lattice index     =            0
     lattice parameter (alat)  =      20.2276  a.u.
     unit-cell volume          =    2936.1644 (a.u.)^3
     number of atoms/cell      =           40
     number of atomic types    =            4
     number of electrons       =       168.00
     number of Kohn-Sham states=          100
     kinetic-energy cutoff     =     100.0000  Ry
     charge density cutoff     =     400.0000  Ry
     convergence threshold     =      1.0E-08
     mixing beta               =       0.5000
     number of iterations used =            8  plain     mixing
     Exchange-correlation      =  SLA  PW   PBX  PBC ( 1  4  3  4 0 0)

     celldm(1)=  20.227629  celldm(2)=   0.000000  celldm(3)=   0.000000
     celldm(4)=   0.000000  celldm(5)=   0.000000  celldm(6)=   0.000000

     crystal axes: (cart. coord. in units of alat)
               a(1) = (   1.000000   0.000000   0.000000 )  
               a(2) = (   0.000000   0.764854   0.000000 )  
               a(3) = (  -0.018792   0.000000   0.463838 )  

     reciprocal axes: (cart. coord. in units 2 pi/alat)
               b(1) = (  1.000000  0.000000  0.040514 )  
               b(2) = (  0.000000  1.307439  0.000000 )  
               b(3) = (  0.000000  0.000000  2.155923 )  


     PseudoPot. # 1 for  C read from file:
     /scratch/ahofstet/pseudo/C.pbe-n-kjpaw_psl.0.1.UPF
     MD5 check sum: 430fe95172b1e11ef3f8ed03bac87931
     Pseudo is Projector augmented-wave + core cor, Zval =  4.0
     Generated using "atomic" code by A. Dal Corso  v.5.0.99 svn rev. 10869
     Shape of augmentation charge: BESSEL
     Using radial grid of 1073 points,  4 beta functions with: 
                l(1) =   0
                l(2) =   0
                l(3) =   1
                l(4) =   1
     Q(r) pseudized with 0 coefficients 


     PseudoPot. # 2 for  N read from file:
     /scratch/ahofstet/pseudo/N.pbe-n-kjpaw_psl.0.1.UPF
     MD5 check sum: f73187c8b701007e77325f868c9291d7
     Pseudo is Projector augmented-wave + core cor, Zval =  5.0
     Generated using "atomic" code by A. Dal Corso  v.5.0.99 svn rev. 10869
     Shape of augmentation charge: PSQ
     Using radial grid of 1085 points,  4 beta functions with: 
                l(1) =   0
                l(2) =   0
                l(3) =   1
                l(4) =   1
     Q(r) pseudized with 0 coefficients 


     PseudoPot. # 3 for  H read from file:
     /scratch/ahofstet/pseudo/H.pbe-kjpaw_psl.0.1.UPF
     MD5 check sum: 94e484f906d9e9773b2f6e52662335b2
     Pseudo is Projector augmented-wave, Zval =  1.0
     Generated using "atomic" code by A. Dal Corso  v.5.0.99 svn rev. 10869
     Shape of augmentation charge: PSQ
     Using radial grid of  929 points,  2 beta functions with: 
                l(1) =   0
                l(2) =   0
     Q(r) pseudized with 0 coefficients 


     PseudoPot. # 4 for  O read from file:
     /scratch/ahofstet/pseudo/O.pbe-n-kjpaw_psl.0.1.UPF
     MD5 check sum: 3f94a2996a3169367d6eb21d9b593f20
     Pseudo is Projector augmented-wave + core cor, Zval =  6.0
     Generated using "atomic" code by A. Dal Corso  v.5.0.99 svn rev. 10869
     Shape of augmentation charge: BESSEL
     Using radial grid of 1095 points,  4 beta functions with: 
                l(1) =   0
                l(2) =   0
                l(3) =   1
                l(4) =   1
     Q(r) pseudized with 0 coefficients 


     atomic species   valence    mass     pseudopotential
        C              4.00    12.01070      C( 1.00)
        N              5.00    14.00670      N( 1.00)
        H              1.00     1.00794      H( 1.00)
        O              6.00    15.99940      O( 1.00)

      2 Sym. Ops., with inversion, found
          (note:  2 additional sym.ops. were found but ignored
           their fractional translations are incommensurate with FFT grid)


   Cartesian axes

     site n.     atom                  positions (alat units)
         1           N   tau(   1) = (   0.1804321   0.2466793   0.2157798  )
         2           N   tau(   2) = (   0.3101719   0.6291065   0.0161395  )
         3           N   tau(   3) = (   0.8007760   0.5181749   0.2480587  )
         4           N   tau(   4) = (   0.6710362   0.1357478   0.4476990  )
         5           C   tau(   5) = (   0.2884761   0.2790136   0.1499895  )
         6           C   tau(   6) = (   0.2021280   0.6614407   0.0819297  )
         7           C   tau(   7) = (   0.6927321   0.4858407   0.3138490  )
         8           C   tau(   8) = (   0.7790802   0.1034135   0.3819088  )
         9           O   tau(   9) = (   0.2948564   0.3428750   0.0562516  )
        10           O   tau(  10) = (   0.1957477   0.7253021   0.1756676  )
        11           O   tau(  11) = (   0.6863518   0.4219792   0.4075869  )
        12           O   tau(  12) = (   0.7854605   0.0395521   0.2881708  )
        13           N   tau(  13) = (   0.3894833   0.2259436   0.2141598  )
        14           N   tau(  14) = (   0.1011207   0.6083708   0.0177594  )
        15           N   tau(  15) = (   0.5917248   0.5389106   0.2496787  )
        16           N   tau(  16) = (   0.8800874   0.1564835   0.4460790  )
        17           C   tau(  17) = (   0.3509580   0.1613905   0.3174925  )
        18           C   tau(  18) = (   0.1208542   0.5438177   0.3782652  )
        19           C   tau(  19) = (   0.6302502   0.6034637   0.1463460  )
        20           C   tau(  20) = (   0.8603539   0.2210366   0.0855733  )
        21           O   tau(  21) = (   0.4131634   0.1042808   0.3945233  )
        22           O   tau(  22) = (   0.0586489   0.4867079   0.3012344  )
        23           O   tau(  23) = (   0.5680448   0.6605735   0.0693151  )
        24           O   tau(  24) = (   0.9225593   0.2781464   0.1626041  )
        25           C   tau(  25) = (   0.2063597   0.1744188   0.3178642  )
        26           C   tau(  26) = (   0.2654525   0.5568459   0.3778935  )
        27           C   tau(  27) = (   0.7748484   0.5904355   0.1459743  )
        28           C   tau(  28) = (   0.7157557   0.2080083   0.0859450  )
        29           O   tau(  29) = (   0.1350859   0.1268267   0.3935976  )
        30           O   tau(  30) = (   0.3367263   0.5092538   0.3021601  )
        31           O   tau(  31) = (   0.8461223   0.6380275   0.0702408  )
        32           O   tau(  32) = (   0.6444818   0.2556004   0.1616784  )
        33           H   tau(  33) = (   0.0912651   0.2720936   0.1876820  )
        34           H   tau(  34) = (   0.3993389   0.6545207   0.0442372  )
        35           H   tau(  35) = (   0.8899430   0.4927607   0.2761565  )
        36           H   tau(  36) = (   0.5818692   0.1103335   0.4196012  )
        37           H   tau(  37) = (   0.4816628   0.2363708   0.1847738  )
        38           H   tau(  38) = (   0.0089413   0.6187979   0.0471454  )
        39           H   tau(  39) = (   0.4995454   0.5284835   0.2790647  )
        40           H   tau(  40) = (   0.9722669   0.1460564   0.4166930  )

     number of k points=    14
                       cart. coord. in units 2pi/alat
        k(    1) = (   0.0000000   0.0000000   0.0000000), wk =   0.0833333
        k(    2) = (   0.0000000   0.0000000   0.5389807), wk =   0.1666667
        k(    3) = (   0.0000000   0.0000000  -1.0779615), wk =   0.0833333
        k(    4) = (   0.0000000   0.4358129   0.0000000), wk =   0.1666667
        k(    5) = (   0.0000000   0.4358129   0.5389807), wk =   0.1666667
        k(    6) = (   0.0000000   0.4358129  -1.0779615), wk =   0.1666667
        k(    7) = (  -0.5000000   0.0000000  -0.0202569), wk =   0.0833333
        k(    8) = (  -0.5000000   0.0000000   0.5187238), wk =   0.1666667
        k(    9) = (  -0.5000000   0.0000000  -1.0982184), wk =   0.0833333
        k(   10) = (  -0.5000000   0.4358129  -0.0202569), wk =   0.1666667
        k(   11) = (  -0.5000000   0.4358129   0.5187238), wk =   0.1666667
        k(   12) = (  -0.5000000   0.4358129  -1.0982184), wk =   0.1666667
        k(   13) = (   0.0000000   0.4358129  -0.5389807), wk =   0.1666667
        k(   14) = (   0.5000000   0.4358129  -0.5187238), wk =   0.1666667

     Dense  grid:   396573 G-vectors     FFT dimensions: ( 135, 100,  60)

     Estimated max dynamical RAM per process >     278.04MB

     Estimated total allocated dynamical RAM >    2224.35MB

     Check: negative/imaginary core charge=   -0.000003    0.000000

     Initial potential from superposition of free atoms

     starting charge  167.99935, renormalised to  168.00000
     Starting wfc are  136 randomized atomic wfcs
     Checking if some PAW data can be deallocated... 

     total cpu time spent up to now is       16.2 secs

     per-process dynamical memory:   280.4 Mb

     Self-consistent Calculation

     iteration #  1     ecut=   100.00 Ry     beta=0.50
     Davidson diagonalization with overlap
     ethr =  1.00E-02,  avg # of iterations =  4.1

     total cpu time spent up to now is       52.8 secs

     total energy              =    -955.62323647 Ry
     Harris-Foulkes estimate   =    -958.18358652 Ry
     estimated scf accuracy    <       4.54310537 Ry

     iteration #  2     ecut=   100.00 Ry     beta=0.50
     Davidson diagonalization with overlap
     ethr =  2.70E-03,  avg # of iterations =  3.0

     total cpu time spent up to now is       78.0 secs

     total energy              =    -956.48660519 Ry
     Harris-Foulkes estimate   =    -957.03552038 Ry
     estimated scf accuracy    <       1.14349389 Ry

     iteration #  3     ecut=   100.00 Ry     beta=0.50
     Davidson diagonalization with overlap
     ethr =  6.81E-04,  avg # of iterations =  4.7

     total cpu time spent up to now is      105.3 secs

     total energy              =    -956.77517943 Ry
     Harris-Foulkes estimate   =    -956.84232860 Ry
     estimated scf accuracy    <       0.17431698 Ry

     iteration #  4     ecut=   100.00 Ry     beta=0.50
     Davidson diagonalization with overlap
     ethr =  1.04E-04,  avg # of iterations =  7.1

     total cpu time spent up to now is      132.9 secs

     total energy              =    -956.80345957 Ry
     Harris-Foulkes estimate   =    -956.80915666 Ry
     estimated scf accuracy    <       0.02427525 Ry

     iteration #  5     ecut=   100.00 Ry     beta=0.50
     Davidson diagonalization with overlap
     ethr =  1.44E-05,  avg # of iterations =  7.2

     total cpu time spent up to now is      167.8 secs

     total energy              =    -956.80847240 Ry
     Harris-Foulkes estimate   =    -956.81064431 Ry
     estimated scf accuracy    <       0.00547975 Ry

     iteration #  6     ecut=   100.00 Ry     beta=0.50
     Davidson diagonalization with overlap
     ethr =  3.26E-06,  avg # of iterations =  3.3

     total cpu time spent up to now is      192.0 secs

     total energy              =    -956.80929397 Ry
     Harris-Foulkes estimate   =    -956.80969519 Ry
     estimated scf accuracy    <       0.00105229 Ry

     iteration #  7     ecut=   100.00 Ry     beta=0.50
     Davidson diagonalization with overlap
     ethr =  6.26E-07,  avg # of iterations =  3.0

     total cpu time spent up to now is      218.7 secs

     total energy              =    -956.80958244 Ry
     Harris-Foulkes estimate   =    -956.80961042 Ry
     estimated scf accuracy    <       0.00011395 Ry

     iteration #  8     ecut=   100.00 Ry     beta=0.50
     Davidson diagonalization with overlap
     ethr =  6.78E-08,  avg # of iterations =  3.0

     total cpu time spent up to now is      242.5 secs

     total energy              =    -956.80960087 Ry
     Harris-Foulkes estimate   =    -956.80960388 Ry
     estimated scf accuracy    <       0.00001103 Ry

     iteration #  9     ecut=   100.00 Ry     beta=0.50
     Davidson diagonalization with overlap
     ethr =  6.56E-09,  avg # of iterations =  4.0

     total cpu time spent up to now is      277.9 secs

     total energy              =    -956.80960654 Ry
     Harris-Foulkes estimate   =    -956.80960869 Ry
     estimated scf accuracy    <       0.00000575 Ry

     iteration # 10     ecut=   100.00 Ry     beta=0.50
     Davidson diagonalization with overlap
     ethr =  3.42E-09,  avg # of iterations =  2.0

     total cpu time spent up to now is      298.4 secs

     total energy              =    -956.80960681 Ry
     Harris-Foulkes estimate   =    -956.80960722 Ry
     estimated scf accuracy    <       0.00000084 Ry

     iteration # 11     ecut=   100.00 Ry     beta=0.50
     Davidson diagonalization with overlap
     ethr =  5.02E-10,  avg # of iterations =  4.0

     total cpu time spent up to now is      334.5 secs

     total energy              =    -956.80960719 Ry
     Harris-Foulkes estimate   =    -956.80960765 Ry
     estimated scf accuracy    <       0.00000090 Ry

     iteration # 12     ecut=   100.00 Ry     beta=0.50
     Davidson diagonalization with overlap
     ethr =  5.02E-10,  avg # of iterations =  3.0

     total cpu time spent up to now is      357.9 secs

     total energy              =    -956.80960737 Ry
     Harris-Foulkes estimate   =    -956.80960737 Ry
     estimated scf accuracy    <       0.00000002 Ry

     iteration # 13     ecut=   100.00 Ry     beta=0.50
     Davidson diagonalization with overlap
     ethr =  1.05E-11,  avg # of iterations =  4.1

     total cpu time spent up to now is      398.0 secs

     total energy              =    -956.80960740 Ry
     Harris-Foulkes estimate   =    -956.80960741 Ry
     estimated scf accuracy    <       0.00000002 Ry

     iteration # 14     ecut=   100.00 Ry     beta=0.50
     Davidson diagonalization with overlap
     ethr =  1.05E-11,  avg # of iterations =  2.1

     total cpu time spent up to now is      418.6 secs

     End of self-consistent calculation

          k = 0.0000 0.0000 0.0000 ( 49531 PWs)   bands (ev):

   -20.5213 -20.4324 -20.3883 -20.3100 -19.6198 -19.5960 -19.5262 -19.5176
   -19.4308 -19.3877 -19.3228 -19.3079 -17.7099 -17.6328 -17.6190 -17.5506
   -15.6802 -15.6383 -15.5432 -15.5179 -10.5969 -10.4468 -10.2268 -10.0897
    -9.1940  -9.1907  -9.1642  -9.1129  -8.2939  -8.1960  -8.0855  -8.0603
    -6.5879  -6.4756  -5.9701  -5.8854  -5.8461  -5.7200  -5.5704  -5.4507
    -5.3366  -5.1691  -4.7415  -4.7375  -4.6687  -4.5424  -4.3799  -4.2422
    -4.1609  -4.0028  -3.9474  -3.9199  -3.7865  -3.7313  -3.5334  -3.5008
    -3.4360  -3.4201  -3.2629  -3.2477  -2.8477  -2.7440  -2.5696  -2.5365
    -0.9476  -0.8580  -0.8354  -0.8006  -0.6266  -0.6099  -0.3312  -0.3066
    -0.0840  -0.0431   0.0207   0.0330   0.1985   0.2059   0.2134   0.3041
     0.3748   0.3988   0.9840   1.0092   4.0640   4.1123   4.3845   4.4535
     6.8042   7.0015   7.0819   7.1198   7.2963   7.7894   7.9336   7.9470
     8.0173   8.2812   8.4691   9.1147

          k = 0.0000 0.0000 0.5390 ( 49579 PWs)   bands (ev):

   -20.4495 -20.3796 -20.3491 -20.2872 -19.6564 -19.6347 -19.5986 -19.5799
   -19.4102 -19.3762 -19.3351 -19.3199 -17.6868 -17.6404 -17.6290 -17.5785
   -15.6751 -15.6319 -15.5784 -15.5463 -10.4797 -10.3787 -10.2195 -10.1071
    -9.1951  -9.1737  -9.1711  -9.1365  -8.2427  -8.1519  -8.0978  -8.0524
    -6.4726  -6.3940  -5.9637  -5.8791  -5.8639  -5.8089  -5.7691  -5.6658
    -5.5336  -5.4225  -5.1118  -5.1033  -4.4077  -4.3897  -4.2502  -4.1229
    -4.0999  -4.0067  -3.9796  -3.9355  -3.8016  -3.7375  -3.6862  -3.6491
    -3.0804  -3.0347  -2.9682  -2.9506  -2.7743  -2.7511  -2.6097  -2.5783
    -0.9421  -0.9109  -0.8823  -0.8488  -0.5790  -0.5779  -0.2067  -0.1810
    -0.0498  -0.0329   0.0943   0.1082   0.2485   0.2599   0.3055   0.3319
     0.3770   0.4793   0.8457   0.9176   3.8450   3.8886   4.0425   4.0713
     6.9320   7.0713   7.0940   7.1885   7.6154   7.7419   7.7847   7.8314
     7.8558   8.5088   8.8116   9.4433

          k = 0.0000 0.0000-1.0780 ( 49614 PWs)   bands (ev):

   -20.3146 -20.3146 -20.3104 -20.3104 -19.6830 -19.6830 -19.6737 -19.6737
   -19.3689 -19.3689 -19.3453 -19.3453 -17.6435 -17.6435 -17.6350 -17.6350
   -15.6416 -15.6416 -15.6003 -15.6003 -10.2672 -10.2672 -10.2399 -10.2399
    -9.1828  -9.1828  -9.1598  -9.1598  -8.1491  -8.1491  -8.0767  -8.0767
    -6.1697  -6.1697  -6.1484  -6.1484  -5.9327  -5.9327  -5.8040  -5.8040
    -5.5344  -5.5344  -5.4296  -5.4296  -4.2321  -4.2321  -4.1088  -4.1088
    -4.0390  -4.0390  -4.0063  -4.0063  -3.8759  -3.8759  -3.7007  -3.7007
    -3.0225  -3.0225  -2.7376  -2.7376  -2.5622  -2.5622  -2.4841  -2.4841
    -0.9181  -0.9181  -0.8784  -0.8784  -0.3982  -0.3982  -0.2906  -0.2906
    -0.0836  -0.0836   0.2140   0.2140   0.3439   0.3440   0.3774   0.3774
     0.5430   0.5430   0.6922   0.6922   3.6495   3.6495   3.6932   3.6932
     7.0588   7.0588   7.2135   7.2135   7.5575   7.5575   7.6938   7.6938
     8.5165   8.5166   9.2477   9.2477

          k = 0.0000 0.4358 0.0000 ( 49509 PWs)   bands (ev):

   -20.4912 -20.4252 -20.4044 -20.3436 -19.5924 -19.5762 -19.5464 -19.5372
   -19.4167 -19.3947 -19.3198 -19.3125 -17.6910 -17.6525 -17.6023 -17.5681
   -15.6699 -15.6489 -15.5369 -15.5242 -10.5597 -10.4846 -10.1925 -10.1240
    -9.1917  -9.1901  -9.1498  -9.1242  -8.2721  -8.2233  -8.0805  -8.0679
    -6.5552  -6.4990  -5.9641  -5.9343  -5.7856  -5.7362  -5.5270  -5.4650
    -5.2691  -5.1404  -5.0629  -4.9504  -4.4426  -4.3759  -4.2549  -4.1744
    -4.0685  -4.0635  -3.9540  -3.9154  -3.8746  -3.8359  -3.7248  -3.5971
    -3.3545  -3.2815  -3.2673  -3.2253  -2.7684  -2.6825  -2.6368  -2.5804
    -0.9286  -0.8915  -0.8332  -0.8217  -0.4911  -0.4524  -0.3237  -0.2387
    -0.1713  -0.1260  -0.0910  -0.0689   0.1964   0.2062   0.2620   0.3203
     0.3394   0.3804   0.9836   0.9960   4.1526   4.2134   4.3124   4.3825
     6.8590   6.9362   7.0871   7.1041   7.6204   7.8240   7.8268   7.9827
     8.0071   8.3472   8.7148   8.8150

          k = 0.0000 0.4358 0.5390 ( 49595 PWs)   bands (ev):

   -20.4263 -20.3765 -20.3577 -20.3119 -19.6400 -19.6202 -19.6111 -19.5930
   -19.4015 -19.3846 -19.3305 -19.3230 -17.6754 -17.6523 -17.6162 -17.5911
   -15.6644 -15.6428 -15.5702 -15.5543 -10.4556 -10.4053 -10.1912 -10.1352
    -9.1895  -9.1789  -9.1605  -9.1438  -8.2216  -8.1769  -8.0855  -8.0635
    -6.4550  -6.4159  -5.9559  -5.9261  -5.8221  -5.7972  -5.7375  -5.6827
    -5.4512  -5.3719  -5.2506  -5.2054  -4.3394  -4.3230  -4.1632  -4.1085
    -4.0774  -4.0365  -3.9858  -3.9386  -3.9141  -3.8068  -3.6997  -3.6705
    -3.0485  -3.0193  -2.9598  -2.9393  -2.7335  -2.7284  -2.6439  -2.6268
    -0.9312  -0.9068  -0.8769  -0.8549  -0.4854  -0.4559  -0.2594  -0.2062
    -0.0983  -0.0290   0.0253   0.0919   0.2532   0.2555   0.3425   0.3500
     0.3725   0.4350   0.8637   0.8996   3.8900   3.9352   3.9935   4.0317
     6.9675   7.0359   7.1046   7.1499   7.6378   7.7155   7.8076   7.8434
     8.0686   8.5550   8.8950   9.2423

          k = 0.0000 0.4358-1.0780 ( 49606 PWs)   bands (ev):

   -20.3153 -20.3153 -20.3090 -20.3090 -19.6823 -19.6823 -19.6752 -19.6752
   -19.3655 -19.3655 -19.3491 -19.3491 -17.6410 -17.6410 -17.6368 -17.6367
   -15.6320 -15.6320 -15.6097 -15.6097 -10.2715 -10.2715 -10.2375 -10.2375
    -9.1773  -9.1773  -9.1656  -9.1656  -8.1347  -8.1347  -8.0896  -8.0896
    -6.1939  -6.1939  -6.1264  -6.1264  -5.9323  -5.9323  -5.8081  -5.8081
    -5.4745  -5.4745  -5.4168  -5.4168  -4.3287  -4.3287  -4.2756  -4.2756
    -4.0577  -4.0577  -3.9907  -3.9907  -3.7435  -3.7435  -3.6373  -3.6373
    -2.9559  -2.9559  -2.8145  -2.8145  -2.5452  -2.5452  -2.5053  -2.5053
    -0.9007  -0.9007  -0.8782  -0.8782  -0.3916  -0.3916  -0.3301  -0.3301
     0.0076   0.0076   0.1649   0.1649   0.3422   0.3422   0.3830   0.3830
     0.5764   0.5764   0.6669   0.6669   3.6437   3.6437   3.6775   3.6775
     7.0783   7.0783   7.1665   7.1665   7.5780   7.5780   7.6713   7.6713
     8.6685   8.6685   9.3078   9.3078

          k =-0.5000 0.0000-0.0203 ( 49546 PWs)   bands (ev):

   -20.4792 -20.4792 -20.3506 -20.3506 -19.6086 -19.6086 -19.5241 -19.5241
   -19.3736 -19.3736 -19.3437 -19.3437 -17.6660 -17.6660 -17.5929 -17.5929
   -15.6130 -15.6130 -15.5769 -15.5769 -10.4072 -10.4072 -10.2597 -10.2597
    -9.2132  -9.2132  -9.1889  -9.1889  -8.1503  -8.1503  -8.1004  -8.1004
    -6.4430  -6.4429  -6.3126  -6.3126  -5.4798  -5.4798  -5.4322  -5.4322
    -5.2551  -5.2551  -4.7395  -4.7395  -4.4555  -4.4555  -4.3729  -4.3729
    -4.2402  -4.2402  -4.0860  -4.0860  -3.6138  -3.6138  -3.5201  -3.5201
    -3.4298  -3.4298  -3.2612  -3.2612  -2.8038  -2.8038  -2.5536  -2.5536
    -0.9295  -0.9295  -0.8770  -0.8770  -0.6020  -0.6020  -0.3335  -0.3334
    -0.0847  -0.0847   0.0267   0.0267   0.2279   0.2279   0.3154   0.3154
     0.6676   0.6676   0.7403   0.7403   4.0925   4.0925   4.4218   4.4218
     6.9313   6.9313   7.0549   7.0549   7.5889   7.5889   7.8853   7.8853
     7.9842   7.9842   9.2561   9.2562

          k =-0.5000 0.0000 0.5187 ( 49597 PWs)   bands (ev):

   -20.4175 -20.4140 -20.3206 -20.3175 -19.6483 -19.6460 -19.5931 -19.5875
   -19.3761 -19.3671 -19.3467 -19.3413 -17.6593 -17.6570 -17.6130 -17.6067
   -15.6361 -15.6203 -15.5913 -15.5881 -10.3367 -10.3317 -10.2453 -10.2138
    -9.2113  -9.2076  -9.1980  -9.1734  -8.1611  -8.1370  -8.1006  -8.0762
    -6.4573  -6.4525  -6.4343  -6.3185  -5.5800  -5.5189  -5.4172  -5.4056
    -5.3918  -5.3431  -5.0715  -5.0498  -4.4789  -4.4204  -4.3404  -4.3390
    -4.2006  -4.1800  -4.0433  -4.0053  -3.7095  -3.6682  -3.6324  -3.6111
    -3.0479  -3.0408  -2.9932  -2.9371  -2.7949  -2.7485  -2.6009  -2.5835
    -0.9849  -0.9478  -0.9132  -0.9016  -0.5983  -0.5518  -0.2019  -0.1882
    -0.0606  -0.0278   0.0800   0.1078   0.2309   0.2638   0.2654   0.3007
     0.6714   0.6777   0.7773   0.7784   3.8658   3.8782   4.0567   4.0664
     7.0030   7.0242   7.1089   7.1636   7.6102   7.6924   7.7867   7.8256
     8.0138   8.1258   9.3214   9.4829

          k =-0.5000 0.0000-1.0982 ( 49568 PWs)   bands (ev):

   -20.3134 -20.3129 -20.3109 -20.3100 -19.6909 -19.6804 -19.6790 -19.6755
   -19.3699 -19.3581 -19.3471 -19.3430 -17.6462 -17.6371 -17.6361 -17.6346
   -15.6535 -15.6338 -15.6058 -15.5989 -10.2609 -10.2288 -10.2248 -10.2026
    -9.2151  -9.2075  -9.1917  -9.1642  -8.1593  -8.1340  -8.0959  -8.0603
    -6.5182  -6.4723  -6.4525  -6.3696  -5.6023  -5.6015  -5.5683  -5.4927
    -5.3553  -5.3236  -5.2549  -5.2000  -4.5281  -4.4151  -4.3956  -4.3362
    -4.1062  -4.0874  -4.0770  -3.9756  -3.7512  -3.7156  -3.7005  -3.6730
    -3.0293  -3.0091  -2.7786  -2.7032  -2.5788  -2.5323  -2.4941  -2.4731
    -0.9728  -0.9423  -0.9344  -0.9250  -0.4047  -0.3885  -0.2917  -0.2890
    -0.1033  -0.0561   0.1709   0.2247   0.2484   0.2857   0.3028   0.3367
     0.6909   0.6943   0.7789   0.8124   3.6516   3.6641   3.6865   3.7081
     7.0536   7.0723   7.1887   7.3013   7.5259   7.5530   7.6244   7.6785
     8.5100   8.7229   8.8162   9.1088

          k =-0.5000 0.4358-0.0203 ( 49576 PWs)   bands (ev):

   -20.4500 -20.4500 -20.3861 -20.3861 -19.5850 -19.5850 -19.5417 -19.5417
   -19.3673 -19.3673 -19.3492 -19.3492 -17.6481 -17.6481 -17.6115 -17.6115
   -15.6047 -15.6047 -15.5853 -15.5853 -10.3706 -10.3706 -10.2967 -10.2967
    -9.2083  -9.2083  -9.1907  -9.1907  -8.1399  -8.1399  -8.1148  -8.1148
    -6.4264  -6.4264  -6.3240  -6.3240  -5.4678  -5.4678  -5.4297  -5.4297
    -5.2011  -5.2011  -4.9766  -4.9766  -4.3895  -4.3895  -4.2413  -4.2413
    -4.1907  -4.1907  -4.0335  -4.0335  -3.7763  -3.7763  -3.6398  -3.6398
    -3.3135  -3.3135  -3.2437  -3.2437  -2.7319  -2.7319  -2.6118  -2.6118
    -0.9252  -0.9252  -0.8949  -0.8949  -0.4635  -0.4635  -0.3011  -0.3011
    -0.1356  -0.1356  -0.0863  -0.0863   0.2354   0.2354   0.2980   0.2980
     0.6734   0.6734   0.7251   0.7251   4.1864   4.1864   4.3516   4.3516
     6.9636   6.9636   7.0209   7.0209   7.7412   7.7412   7.9466   7.9466
     8.0519   8.0519   8.7692   8.7692

          k =-0.5000 0.4358 0.5187 ( 49570 PWs)   bands (ev):

   -20.3955 -20.3911 -20.3473 -20.3428 -19.6360 -19.6270 -19.6079 -19.5984
   -19.3703 -19.3641 -19.3499 -19.3454 -17.6493 -17.6430 -17.6257 -17.6182
   -15.6264 -15.6118 -15.6038 -15.5938 -10.3172 -10.3006 -10.2699 -10.2424
    -9.2070  -9.2007  -9.1977  -9.1805  -8.1475  -8.1221  -8.1171  -8.0914
    -6.4703  -6.4591  -6.3929  -6.3421  -5.5362  -5.4816  -5.4467  -5.4164
    -5.3437  -5.2924  -5.1685  -5.1476  -4.4609  -4.4342  -4.3577  -4.2912
    -4.1655  -4.1005  -4.0356  -3.9742  -3.7998  -3.7472  -3.6724  -3.6168
    -3.0438  -3.0168  -2.9496  -2.9443  -2.7459  -2.7231  -2.6434  -2.6265
    -0.9629  -0.9416  -0.9254  -0.9109  -0.4741  -0.4578  -0.2427  -0.2198
    -0.0754  -0.0547   0.0425   0.0578   0.2403   0.2540   0.2652   0.3031
     0.6904   0.6977   0.7544   0.7635   3.9114   3.9275   4.0064   4.0247
     7.0203   7.0340   7.1014   7.1252   7.6302   7.6702   7.7825   7.8098
     8.2783   8.3467   8.9328   9.0153

          k =-0.5000 0.4358-1.0982 ( 49590 PWs)   bands (ev):

   -20.3144 -20.3132 -20.3099 -20.3084 -19.6882 -19.6820 -19.6791 -19.6782
   -19.3651 -19.3540 -19.3539 -19.3461 -17.6438 -17.6395 -17.6348 -17.6343
   -15.6436 -15.6230 -15.6205 -15.6047 -10.2546 -10.2367 -10.2220 -10.2087
    -9.2099  -9.1981  -9.1953  -9.1739  -8.1448  -8.1133  -8.1128  -8.0766
    -6.5141  -6.4982  -6.4218  -6.3871  -5.5828  -5.5642  -5.5511  -5.4980
    -5.3111  -5.2742  -5.2466  -5.2125  -4.5474  -4.4827  -4.4405  -4.3933
    -4.2078  -4.1993  -4.0917  -4.0593  -3.6673  -3.6647  -3.6040  -3.5620
    -2.9701  -2.9294  -2.8466  -2.7799  -2.5560  -2.5285  -2.5135  -2.4990
    -0.9614  -0.9406  -0.9268  -0.9162  -0.3999  -0.3790  -0.3355  -0.3231
    -0.0247   0.0594   0.1083   0.1965   0.2414   0.2764   0.3084   0.3416
     0.7147   0.7252   0.7592   0.7880   3.6506   3.6621   3.6685   3.6856
     7.0605   7.0787   7.1899   7.2335   7.5372   7.5921   7.5960   7.6441
     8.6852   8.8187   9.0110   9.2794

          k = 0.0000 0.4358-0.5390 ( 49595 PWs)   bands (ev):

   -20.4263 -20.3765 -20.3577 -20.3119 -19.6400 -19.6202 -19.6111 -19.5930
   -19.4015 -19.3846 -19.3305 -19.3230 -17.6754 -17.6523 -17.6162 -17.5911
   -15.6644 -15.6428 -15.5702 -15.5543 -10.4556 -10.4053 -10.1912 -10.1352
    -9.1895  -9.1789  -9.1605  -9.1438  -8.2216  -8.1769  -8.0855  -8.0635
    -6.4550  -6.4159  -5.9559  -5.9261  -5.8221  -5.7972  -5.7375  -5.6827
    -5.4512  -5.3719  -5.2506  -5.2054  -4.3394  -4.3230  -4.1632  -4.1085
    -4.0774  -4.0365  -3.9858  -3.9385  -3.9141  -3.8067  -3.6997  -3.6705
    -3.0485  -3.0193  -2.9598  -2.9394  -2.7335  -2.7284  -2.6439  -2.6268
    -0.9312  -0.9068  -0.8769  -0.8549  -0.4854  -0.4559  -0.2594  -0.2062
    -0.0983  -0.0290   0.0253   0.0919   0.2532   0.2555   0.3425   0.3500
     0.3725   0.4350   0.8637   0.8996   3.8900   3.9352   3.9935   4.0317
     6.9675   7.0359   7.1046   7.1499   7.6378   7.7154   7.8076   7.8434
     8.0686   8.5550   8.8950   9.2423

          k = 0.5000 0.4358-0.5187 ( 49570 PWs)   bands (ev):

   -20.3955 -20.3911 -20.3473 -20.3428 -19.6360 -19.6270 -19.6079 -19.5984
   -19.3703 -19.3641 -19.3499 -19.3454 -17.6493 -17.6430 -17.6257 -17.6182
   -15.6264 -15.6118 -15.6038 -15.5938 -10.3172 -10.3006 -10.2699 -10.2424
    -9.2070  -9.2007  -9.1977  -9.1805  -8.1475  -8.1221  -8.1171  -8.0914
    -6.4703  -6.4591  -6.3929  -6.3421  -5.5362  -5.4816  -5.4467  -5.4164
    -5.3437  -5.2924  -5.1685  -5.1476  -4.4609  -4.4342  -4.3577  -4.2912
    -4.1655  -4.1006  -4.0356  -3.9742  -3.7998  -3.7472  -3.6724  -3.6168
    -3.0438  -3.0168  -2.9496  -2.9443  -2.7459  -2.7231  -2.6434  -2.6265
    -0.9629  -0.9416  -0.9254  -0.9109  -0.4741  -0.4578  -0.2427  -0.2198
    -0.0754  -0.0547   0.0425   0.0578   0.2403   0.2540   0.2652   0.3031
     0.6904   0.6977   0.7544   0.7635   3.9114   3.9275   4.0064   4.0247
     7.0203   7.0340   7.1014   7.1252   7.6302   7.6702   7.7825   7.8098
     8.2783   8.3467   8.9328   9.0153

     highest occupied, lowest unoccupied level (ev):     1.0092    3.6437

!    total energy              =    -956.80960740 Ry
     Harris-Foulkes estimate   =    -956.80960740 Ry
     estimated scf accuracy    <          2.5E-09 Ry

     total all-electron energy =     -3606.531907 Ry

     The total energy is the sum of the following terms:

     one-electron contribution =    -466.89601489 Ry
     hartree contribution      =     303.96032963 Ry
     xc contribution           =    -187.69868696 Ry
     ewald contribution        =    -345.77165075 Ry
     Dispersion Correction     =      -0.17958049 Ry
     one-center paw contrib.   =    -260.22400395 Ry

     convergence has been achieved in  14 iterations

     Forces acting on atoms (cartesian axes, Ry/au):

     atom    1 type  2   force =    -0.00311712   -0.00454512    0.00533487
     atom    2 type  2   force =     0.00312423   -0.00454832   -0.00533520
     atom    3 type  2   force =     0.00311712    0.00454512   -0.00533487
     atom    4 type  2   force =    -0.00312423    0.00454832    0.00533520
     atom    5 type  1   force =     0.00140692    0.00725383    0.00607700
     atom    6 type  1   force =    -0.00140919    0.00725185   -0.00607418
     atom    7 type  1   force =    -0.00140692   -0.00725383   -0.00607700
     atom    8 type  1   force =     0.00140919   -0.00725185    0.00607418
     atom    9 type  4   force =    -0.00235803   -0.00906407    0.00646147
     atom   10 type  4   force =     0.00236603   -0.00906641   -0.00646283
     atom   11 type  4   force =     0.00235803    0.00906407   -0.00646147
     atom   12 type  4   force =    -0.00236603    0.00906641    0.00646283
     atom   13 type  2   force =    -0.00019283   -0.00425476    0.00278603
     atom   14 type  2   force =     0.00019416   -0.00425806   -0.00278581
     atom   15 type  2   force =     0.00019283    0.00425476   -0.00278603
     atom   16 type  2   force =    -0.00019416    0.00425806    0.00278581
     atom   17 type  1   force =    -0.00148976    0.00082557   -0.00363219
     atom   18 type  1   force =     0.00150078    0.00082256    0.00363275
     atom   19 type  1   force =     0.00148976   -0.00082557    0.00363219
     atom   20 type  1   force =    -0.00150078   -0.00082256   -0.00363275
     atom   21 type  4   force =     0.00008278    0.00370623   -0.00511631
     atom   22 type  4   force =    -0.00008442    0.00370147    0.00511118
     atom   23 type  4   force =    -0.00008278   -0.00370623    0.00511631
     atom   24 type  4   force =     0.00008442   -0.00370147   -0.00511118
     atom   25 type  1   force =     0.00100925   -0.00054151   -0.00702130
     atom   26 type  1   force =    -0.00100664   -0.00054732    0.00701586
     atom   27 type  1   force =    -0.00100925    0.00054151    0.00702130
     atom   28 type  1   force =     0.00100664    0.00054732   -0.00701586
     atom   29 type  4   force =     0.00395709    0.00841935   -0.00543830
     atom   30 type  4   force =    -0.00394741    0.00841281    0.00543114
     atom   31 type  4   force =    -0.00395709   -0.00841935    0.00543830
     atom   32 type  4   force =     0.00394741   -0.00841281   -0.00543114
     atom   33 type  3   force =     0.00188308   -0.00156117    0.00079480
     atom   34 type  3   force =    -0.00188244   -0.00156149   -0.00079479
     atom   35 type  3   force =    -0.00188308    0.00156117   -0.00079480
     atom   36 type  3   force =     0.00188244    0.00156149    0.00079479
     atom   37 type  3   force =    -0.00223677   -0.00038767    0.00135934
     atom   38 type  3   force =     0.00223665   -0.00038804   -0.00135934
     atom   39 type  3   force =     0.00223677    0.00038767   -0.00135934
     atom   40 type  3   force =    -0.00223665    0.00038804    0.00135934

     Total force =     0.046560     Total SCF correction =     0.000134


     Computing stress (Cartesian axis) and pressure

          total   stress  (Ry/bohr**3)                   (kbar)     P=  -11.20
  -0.00008202  -0.00000000   0.00002577        -12.07     -0.00      3.79
  -0.00000000  -0.00003381   0.00000000         -0.00     -4.97      0.00
   0.00002577   0.00000000  -0.00011247          3.79      0.00    -16.55


     Writing output data file scf.save
 
     init_run     :     15.11s CPU     15.59s WALL (       1 calls)
     electrons    :    383.53s CPU    402.53s WALL (       1 calls)
     forces       :      7.21s CPU      7.26s WALL (       1 calls)
     stress       :     28.01s CPU     28.03s WALL (       1 calls)

     Called by init_run:
     wfcinit      :      9.59s CPU     10.00s WALL (       1 calls)
     potinit      :      1.88s CPU      1.91s WALL (       1 calls)

     Called by electrons:
     c_bands      :    337.02s CPU    353.97s WALL (      14 calls)
     sum_band     :     41.12s CPU     42.92s WALL (      14 calls)
     v_of_rho     :      0.77s CPU      0.86s WALL (      15 calls)
     newd         :      1.71s CPU      1.74s WALL (      15 calls)
     PAW_pot      :      2.72s CPU      2.73s WALL (      15 calls)
     mix_rho      :      0.18s CPU      0.19s WALL (      14 calls)

     Called by c_bands:
     init_us_2    :      3.14s CPU      3.15s WALL (     434 calls)
     cegterg      :    324.65s CPU    341.56s WALL (     196 calls)

     Called by sum_band:
     sum_band:bec :      0.04s CPU      0.04s WALL (     196 calls)
     addusdens    :      1.78s CPU      1.80s WALL (      14 calls)

     Called by *egterg:
     h_psi        :    208.50s CPU    220.62s WALL (     974 calls)
     s_psi        :     22.19s CPU     22.20s WALL (     974 calls)
     g_psi        :      1.55s CPU      1.55s WALL (     764 calls)
     cdiaghg      :     20.52s CPU     20.51s WALL (     960 calls)

     Called by h_psi:
     h_psi:pot    :    206.57s CPU    218.65s WALL (     974 calls)
     h_psi:calbec :     24.37s CPU     24.51s WALL (     974 calls)
     vloc_psi     :    159.94s CPU    171.88s WALL (     974 calls)
     add_vuspsi   :     22.25s CPU     22.26s WALL (     974 calls)

     General routines
     calbec       :     37.50s CPU     37.68s WALL (    1240 calls)
     fft          :      1.71s CPU      1.88s WALL (     219 calls)
     fftw         :    172.62s CPU    185.83s WALL (  134722 calls)
 
     Parallel routines
     fft_scatter  :     50.12s CPU     57.59s WALL (  134941 calls)
 
     PWSCF        :  7m18.67s CPU     7m39.43s WALL

 
   This run was terminated on:   0: 9:19   5Nov2017            

=------------------------------------------------------------------------------=
   JOB DONE.
=------------------------------------------------------------------------------=
