
     Program PWSCF v.6.1 (svn rev. 13369) starts on  4Nov2017 at  2:19: 7 

     This program is part of the open-source Quantum ESPRESSO suite
     for quantum simulation of materials; please cite
         "P. Giannozzi et al., J. Phys.:Condens. Matter 21 395502 (2009);
          URL http://www.quantum-espresso.org", 
     in publications or presentations arising from this work. More details at
     http://www.quantum-espresso.org/quote

     Parallel version (MPI), running on     8 processors
     R & G space division:  proc/nbgrp/npool/nimage =       8
     Waiting for input...
     Reading input from standard input

     Current dimensions of program PWSCF are:
     Max number of different atomic species (ntypx) = 10
     Max number of k-points (npk) =  40000
     Max angular momentum in pseudopotentials (lmaxx) =  3
               file C.pbe-n-kjpaw_psl.0.1.UPF: wavefunction(s)  2P renormalized
               file N.pbe-n-kjpaw_psl.0.1.UPF: wavefunction(s)  2P renormalized
               file H.pbe-kjpaw_psl.0.1.UPF: wavefunction(s)  1S renormalized
               file O.pbe-n-kjpaw_psl.0.1.UPF: wavefunction(s)  2P renormalized

     -------------------------------------
     Parameters for Dispersion Correction:
     -------------------------------------
       atom      VdW radius       C_6     

        C          2.744         60.710
        N          2.640         42.670
        H          1.892          4.857
        O          2.536         24.284

     Subspace diagonalization in iterative solution of the eigenvalue problem:
     a serial algorithm will be used

 
     Parallelization info
     --------------------
     sticks:   dense  smooth     PW     G-vecs:    dense   smooth      PW
     Min        1169    1169    308                99597    99597   13458
     Max        1170    1170    309                99600    99600   13459
     Sum        9359    9359   2469               796789   796789  107669
 


     bravais-lattice index     =            0
     lattice parameter (alat)  =      12.9046  a.u.
     unit-cell volume          =    5898.2313 (a.u.)^3
     number of atoms/cell      =           84
     number of atomic types    =            4
     number of electrons       =       368.00
     number of Kohn-Sham states=          220
     kinetic-energy cutoff     =     100.0000  Ry
     charge density cutoff     =     400.0000  Ry
     convergence threshold     =      1.0E-08
     mixing beta               =       0.5000
     number of iterations used =            8  plain     mixing
     Exchange-correlation      =  SLA  PW   PBX  PBC ( 1  4  3  4 0 0)

     celldm(1)=  12.904562  celldm(2)=   0.000000  celldm(3)=   0.000000
     celldm(4)=   0.000000  celldm(5)=   0.000000  celldm(6)=   0.000000

     crystal axes: (cart. coord. in units of alat)
               a(1) = (   1.000000   0.000000   0.000000 )  
               a(2) = (   0.000000   1.764146   0.000000 )  
               a(3) = (  -0.046094   0.000000   1.555813 )  

     reciprocal axes: (cart. coord. in units 2 pi/alat)
               b(1) = (  1.000000  0.000000  0.029627 )  
               b(2) = (  0.000000  0.566847  0.000000 )  
               b(3) = (  0.000000  0.000000  0.642751 )  


     PseudoPot. # 1 for  C read from file:
     /scratch/ahofstet/pseudo/C.pbe-n-kjpaw_psl.0.1.UPF
     MD5 check sum: 430fe95172b1e11ef3f8ed03bac87931
     Pseudo is Projector augmented-wave + core cor, Zval =  4.0
     Generated using "atomic" code by A. Dal Corso  v.5.0.99 svn rev. 10869
     Shape of augmentation charge: BESSEL
     Using radial grid of 1073 points,  4 beta functions with: 
                l(1) =   0
                l(2) =   0
                l(3) =   1
                l(4) =   1
     Q(r) pseudized with 0 coefficients 


     PseudoPot. # 2 for  N read from file:
     /scratch/ahofstet/pseudo/N.pbe-n-kjpaw_psl.0.1.UPF
     MD5 check sum: f73187c8b701007e77325f868c9291d7
     Pseudo is Projector augmented-wave + core cor, Zval =  5.0
     Generated using "atomic" code by A. Dal Corso  v.5.0.99 svn rev. 10869
     Shape of augmentation charge: PSQ
     Using radial grid of 1085 points,  4 beta functions with: 
                l(1) =   0
                l(2) =   0
                l(3) =   1
                l(4) =   1
     Q(r) pseudized with 0 coefficients 


     PseudoPot. # 3 for  H read from file:
     /scratch/ahofstet/pseudo/H.pbe-kjpaw_psl.0.1.UPF
     MD5 check sum: 94e484f906d9e9773b2f6e52662335b2
     Pseudo is Projector augmented-wave, Zval =  1.0
     Generated using "atomic" code by A. Dal Corso  v.5.0.99 svn rev. 10869
     Shape of augmentation charge: PSQ
     Using radial grid of  929 points,  2 beta functions with: 
                l(1) =   0
                l(2) =   0
     Q(r) pseudized with 0 coefficients 


     PseudoPot. # 4 for  O read from file:
     /scratch/ahofstet/pseudo/O.pbe-n-kjpaw_psl.0.1.UPF
     MD5 check sum: 3f94a2996a3169367d6eb21d9b593f20
     Pseudo is Projector augmented-wave + core cor, Zval =  6.0
     Generated using "atomic" code by A. Dal Corso  v.5.0.99 svn rev. 10869
     Shape of augmentation charge: BESSEL
     Using radial grid of 1095 points,  4 beta functions with: 
                l(1) =   0
                l(2) =   0
                l(3) =   1
                l(4) =   1
     Q(r) pseudized with 0 coefficients 


     atomic species   valence    mass     pseudopotential
        C              4.00    12.01070      C( 1.00)
        N              5.00    14.00670      N( 1.00)
        H              1.00     1.00794      H( 1.00)
        O              6.00    15.99940      O( 1.00)

      4 Sym. Ops., with inversion, found ( 2 have fractional translation)



   Cartesian axes

     site n.     atom                  positions (alat units)
         1           C   tau(   1) = (   0.0519844   1.1509793   0.4135184  )
         2           C   tau(   2) = (   0.4249687   0.2689064   0.3643882  )
         3           C   tau(   3) = (   0.9019217   0.6131666   1.1422949  )
         4           C   tau(   4) = (   0.5289374   1.4952396   1.1914251  )
         5           N   tau(   5) = (   0.1505071   1.1340817   0.6032139  )
         6           N   tau(   6) = (   0.3264459   0.2520087   0.1746928  )
         7           N   tau(   7) = (   0.8033989   0.6300643   0.9525995  )
         8           N   tau(   8) = (   0.6274602   1.5121373   1.3811206  )
         9           C   tau(   9) = (   0.2135159   1.3169440   0.6798242  )
        10           C   tau(  10) = (   0.2634371   0.4348710   0.0980825  )
        11           C   tau(  11) = (   0.7403902   0.4472020   0.8759892  )
        12           C   tau(  12) = (   0.6904689   1.3292750   1.4577309  )
        13           O   tau(  13) = (   0.1753471   1.4532751   0.5452418  )
        14           O   tau(  14) = (   0.3016059   0.5712021   0.2326649  )
        15           O   tau(  15) = (   0.7785589   0.3108709   1.0105716  )
        16           O   tau(  16) = (   0.6523002   1.1929438   1.3231485  )
        17           C   tau(  17) = (   0.0940710   1.3696191   0.3695079  )
        18           C   tau(  18) = (   0.3828821   0.4875462   0.4083988  )
        19           C   tau(  19) = (   0.8598351   0.3945268   1.1863055  )
        20           C   tau(  20) = (   0.5710240   1.2765998   1.1474146  )
        21           H   tau(  21) = (   0.2026918   1.3831894   0.2522624  )
        22           H   tau(  22) = (   0.2742612   0.5011164   0.5256443  )
        23           H   tau(  23) = (   0.7512142   0.3809565   1.3035509  )
        24           H   tau(  24) = (   0.6796449   1.2630295   1.0301691  )
        25           H   tau(  25) = (   0.9619479   1.4515225   0.3316422  )
        26           H   tau(  26) = (   0.5150051   0.5694495   0.4462645  )
        27           H   tau(  27) = (  -0.0080418   0.3126235   1.2241711  )
        28           H   tau(  28) = (   0.4389009   1.1946965   1.1095489  )
        29           N   tau(  29) = (   0.8457052   1.0983081   0.4179939  )
        30           N   tau(  30) = (   0.6312479   0.2162351   0.3599128  )
        31           N   tau(  31) = (   0.1082009   0.6658379   1.1378194  )
        32           N   tau(  32) = (   0.3226582   1.5479108   1.1959006  )
        33           C   tau(  33) = (   0.7954881   0.9427075   0.2895395  )
        34           C   tau(  34) = (   0.6814649   0.0606346   0.4883671  )
        35           C   tau(  35) = (   0.1584179   0.8214384   1.2662738  )
        36           C   tau(  36) = (   0.2724412   1.7035114   1.0674462  )
        37           O   tau(  37) = (   0.9644922   0.8766764   0.2119298  )
        38           O   tau(  38) = (   0.5124608   1.7587494   0.5659769  )
        39           O   tau(  39) = (  -0.0105861   0.8874696   1.3438836  )
        40           O   tau(  40) = (   0.4414452   0.0053966   0.9898364  )
        41           C   tau(  41) = (   0.1231693   1.0113648   0.2490010  )
        42           C   tau(  42) = (   0.3537837   0.1292918   0.5289057  )
        43           C   tau(  43) = (   0.8307367   0.7527812   1.3068124  )
        44           C   tau(  44) = (   0.6001224   1.6348542   1.0269076  )
        45           H   tau(  45) = (   0.1481407   1.0952228   0.1141934  )
        46           H   tau(  46) = (   0.3288123   0.2131498   0.6637133  )
        47           H   tau(  47) = (   0.8057653   0.6689231   1.4416200  )
        48           H   tau(  48) = (   0.6250938   1.5509961   0.8921001  )
        49           H   tau(  49) = (   0.2546104   0.9281741   0.2885157  )
        50           H   tau(  50) = (   0.2223426   0.0461011   0.4893910  )
        51           H   tau(  51) = (   0.6992956   0.8359719   1.2672977  )
        52           H   tau(  52) = (   0.7315635   1.7180449   1.0664223  )
        53           N   tau(  53) = (   0.1845627   0.9541891   0.6940750  )
        54           N   tau(  54) = (   0.2923904   0.0721161   0.0838317  )
        55           N   tau(  55) = (   0.7693434   0.8099569   0.8617384  )
        56           N   tau(  56) = (   0.6615157   1.6920299   1.4719816  )
        57           O   tau(  57) = (   0.2866505   0.9508664   0.8409170  )
        58           O   tau(  58) = (   0.1442086   0.0687934   1.4928030  )
        59           O   tau(  59) = (   0.6672555   0.8132796   0.7148963  )
        60           O   tau(  60) = (   0.8096975   1.6953526   0.0630103  )
        61           O   tau(  61) = (   0.1059226   0.8127805   0.6133940  )
        62           O   tau(  62) = (   0.3710304   1.6948535   0.1645126  )
        63           O   tau(  63) = (   0.8479834   0.9513654   0.9424193  )
        64           O   tau(  64) = (   0.5828757   0.0692925   1.3913007  )
        65           O   tau(  65) = (   0.2857302   1.3485339   0.8373583  )
        66           O   tau(  66) = (   0.1451289   0.4664609   1.4963617  )
        67           O   tau(  67) = (   0.6681759   0.4156121   0.7184550  )
        68           O   tau(  68) = (   0.8087771   1.2976851   0.0594516  )
        69           N   tau(  69) = (   0.7058213   1.2176864   0.5103928  )
        70           N   tau(  70) = (   0.7711317   0.3356134   0.2675139  )
        71           N   tau(  71) = (   0.2480848   0.5464596   1.0454206  )
        72           N   tau(  72) = (   0.1827743   1.4285326   1.2882995  )
        73           O   tau(  73) = (   0.5385823   1.2100172   0.4482659  )
        74           O   tau(  74) = (   0.9383708   0.3279442   0.3296408  )
        75           O   tau(  75) = (   0.4153238   0.5541288   1.1075475  )
        76           O   tau(  76) = (   0.0155353   1.4362018   1.2261725  )
        77           O   tau(  77) = (   0.7682985   1.3190577   0.6453286  )
        78           O   tau(  78) = (   0.7086545   0.4369847   0.1325780  )
        79           O   tau(  79) = (   0.1856075   0.4450883   0.9104847  )
        80           O   tau(  80) = (   0.2452516   1.3271613   1.4232353  )
        81           O   tau(  81) = (   0.6361984   0.8740431   0.2590567  )
        82           O   tau(  82) = (   0.8407546   1.7561161   0.5188500  )
        83           O   tau(  83) = (   0.3177076   0.8901028   1.2967567  )
        84           O   tau(  84) = (   0.1131515   0.0080299   1.0369634  )

     number of k points=     8
                       cart. coord. in units 2pi/alat
        k(    1) = (   0.0000000   0.0000000   0.0000000), wk =   0.1666667
        k(    2) = (   0.0000000   0.0000000  -0.3213753), wk =   0.1666667
        k(    3) = (   0.0000000  -0.2834233   0.0000000), wk =   0.1666667
        k(    4) = (   0.0000000  -0.2834233  -0.3213753), wk =   0.1666667
        k(    5) = (   0.3333333   0.0000000   0.0098756), wk =   0.3333333
        k(    6) = (   0.3333333   0.0000000  -0.3114997), wk =   0.3333333
        k(    7) = (   0.3333333  -0.2834233   0.0098756), wk =   0.3333333
        k(    8) = (   0.3333333  -0.2834233  -0.3114997), wk =   0.3333333

     Dense  grid:   796789 G-vectors     FFT dimensions: (  90, 150, 128)

     Estimated max dynamical RAM per process >     904.77MB

     Estimated total allocated dynamical RAM >    7238.16MB

     Check: negative/imaginary core charge=   -0.000003    0.000000

     Initial potential from superposition of free atoms

     starting charge  367.99885, renormalised to  368.00000
     Starting wfc are  288 randomized atomic wfcs
     Checking if some PAW data can be deallocated... 

     total cpu time spent up to now is       46.4 secs

     per-process dynamical memory:   619.8 Mb

     Self-consistent Calculation

     iteration #  1     ecut=   100.00 Ry     beta=0.50
     Davidson diagonalization with overlap
     ethr =  1.00E-02,  avg # of iterations =  3.6

     total cpu time spent up to now is      177.9 secs

     total energy              =   -2167.78868242 Ry
     Harris-Foulkes estimate   =   -2173.20017585 Ry
     estimated scf accuracy    <       9.45559662 Ry

     iteration #  2     ecut=   100.00 Ry     beta=0.50
     Davidson diagonalization with overlap
     ethr =  2.57E-03,  avg # of iterations =  3.0

     total cpu time spent up to now is      273.3 secs

     total energy              =   -2169.56169313 Ry
     Harris-Foulkes estimate   =   -2171.43637899 Ry
     estimated scf accuracy    <       4.19917656 Ry

     iteration #  3     ecut=   100.00 Ry     beta=0.50
     Davidson diagonalization with overlap
     ethr =  1.14E-03,  avg # of iterations =  3.0

     total cpu time spent up to now is      353.3 secs

     total energy              =   -2170.35702238 Ry
     Harris-Foulkes estimate   =   -2170.48094258 Ry
     estimated scf accuracy    <       0.32828915 Ry

     iteration #  4     ecut=   100.00 Ry     beta=0.50
     Davidson diagonalization with overlap
     ethr =  8.92E-05,  avg # of iterations =  6.9

     total cpu time spent up to now is      494.2 secs

     total energy              =   -2170.46954395 Ry
     Harris-Foulkes estimate   =   -2170.51294186 Ry
     estimated scf accuracy    <       0.11683068 Ry

     iteration #  5     ecut=   100.00 Ry     beta=0.50
     Davidson diagonalization with overlap
     ethr =  3.17E-05,  avg # of iterations =  2.0

     total cpu time spent up to now is      566.8 secs

     total energy              =   -2170.47930125 Ry
     Harris-Foulkes estimate   =   -2170.48988182 Ry
     estimated scf accuracy    <       0.02688101 Ry

     iteration #  6     ecut=   100.00 Ry     beta=0.50
     Davidson diagonalization with overlap
     ethr =  7.30E-06,  avg # of iterations =  5.5

     total cpu time spent up to now is      674.2 secs

     total energy              =   -2170.48685352 Ry
     Harris-Foulkes estimate   =   -2170.48929333 Ry
     estimated scf accuracy    <       0.00740819 Ry

     iteration #  7     ecut=   100.00 Ry     beta=0.50
     Davidson diagonalization with overlap
     ethr =  2.01E-06,  avg # of iterations =  5.4

     total cpu time spent up to now is      756.6 secs

     total energy              =   -2170.48783172 Ry
     Harris-Foulkes estimate   =   -2170.48809957 Ry
     estimated scf accuracy    <       0.00071487 Ry

     iteration #  8     ecut=   100.00 Ry     beta=0.50
     Davidson diagonalization with overlap
     ethr =  1.94E-07,  avg # of iterations =  3.0

     total cpu time spent up to now is      860.0 secs

     total energy              =   -2170.48804429 Ry
     Harris-Foulkes estimate   =   -2170.48809540 Ry
     estimated scf accuracy    <       0.00014349 Ry

     iteration #  9     ecut=   100.00 Ry     beta=0.50
     Davidson diagonalization with overlap
     ethr =  3.90E-08,  avg # of iterations =  3.0

     total cpu time spent up to now is      940.6 secs

     total energy              =   -2170.48806533 Ry
     Harris-Foulkes estimate   =   -2170.48807918 Ry
     estimated scf accuracy    <       0.00004163 Ry

     iteration # 10     ecut=   100.00 Ry     beta=0.50
     Davidson diagonalization with overlap
     ethr =  1.13E-08,  avg # of iterations =  2.0

     total cpu time spent up to now is     1015.0 secs

     total energy              =   -2170.48807140 Ry
     Harris-Foulkes estimate   =   -2170.48807404 Ry
     estimated scf accuracy    <       0.00000847 Ry

     iteration # 11     ecut=   100.00 Ry     beta=0.50
     Davidson diagonalization with overlap
     ethr =  2.30E-09,  avg # of iterations =  3.4

     total cpu time spent up to now is     1120.5 secs

     total energy              =   -2170.48807372 Ry
     Harris-Foulkes estimate   =   -2170.48807460 Ry
     estimated scf accuracy    <       0.00000199 Ry

     iteration # 12     ecut=   100.00 Ry     beta=0.50
     Davidson diagonalization with overlap
     ethr =  5.40E-10,  avg # of iterations =  4.0

     total cpu time spent up to now is     1200.5 secs

     total energy              =   -2170.48807415 Ry
     Harris-Foulkes estimate   =   -2170.48807419 Ry
     estimated scf accuracy    <       0.00000024 Ry

     iteration # 13     ecut=   100.00 Ry     beta=0.50
     Davidson diagonalization with overlap
     ethr =  6.59E-11,  avg # of iterations =  4.0

     total cpu time spent up to now is     1320.9 secs

     total energy              =   -2170.48807423 Ry
     Harris-Foulkes estimate   =   -2170.48807428 Ry
     estimated scf accuracy    <       0.00000011 Ry

     iteration # 14     ecut=   100.00 Ry     beta=0.50
     Davidson diagonalization with overlap
     ethr =  2.95E-11,  avg # of iterations =  3.0

     total cpu time spent up to now is     1392.7 secs

     total energy              =   -2170.48807424 Ry
     Harris-Foulkes estimate   =   -2170.48807424 Ry
     estimated scf accuracy    <       0.00000002 Ry

     iteration # 15     ecut=   100.00 Ry     beta=0.50
     Davidson diagonalization with overlap
     ethr =  5.38E-12,  avg # of iterations =  4.0

     total cpu time spent up to now is     1517.1 secs

     total energy              =   -2170.48807425 Ry
     Harris-Foulkes estimate   =   -2170.48807425 Ry
     estimated scf accuracy    <       0.00000001 Ry

     iteration # 16     ecut=   100.00 Ry     beta=0.50
     Davidson diagonalization with overlap
     ethr =  3.33E-12,  avg # of iterations =  1.0

     total cpu time spent up to now is     1583.7 secs

     End of self-consistent calculation

          k = 0.0000 0.0000 0.0000 ( 99643 PWs)   bands (ev):

   -24.4440 -24.4421 -24.3440 -24.3434 -24.3030 -24.3018 -24.2998 -24.2995
   -21.2032 -21.1920 -21.1812 -21.1774 -20.8908 -20.8558 -20.8435 -20.8434
   -19.7454 -19.7454 -19.7224 -19.7179 -19.6833 -19.6801 -19.6770 -19.6760
   -18.7907 -18.7851 -18.7649 -18.7628 -18.5060 -18.5024 -18.4926 -18.4890
   -17.6985 -17.6837 -17.6737 -17.6709 -16.7747 -16.7535 -16.7477 -16.7246
   -13.0494 -13.0332 -13.0113 -12.9775 -11.2674 -11.2251 -11.2227 -11.1972
   -11.0541 -11.0199 -11.0112 -10.9981 -10.5835 -10.5532 -10.5406 -10.5288
    -9.0332  -9.0048  -8.9904  -8.9733  -8.0063  -7.9022  -7.8609  -7.6929
    -7.5153  -7.5130  -7.4513  -7.3449  -7.0493  -7.0344  -7.0319  -7.0192
    -6.8717  -6.8414  -6.7312  -6.6884  -6.5896  -6.5358  -6.5189  -6.3872
    -6.3486  -6.2989  -6.2632  -6.2158  -5.8957  -5.8850  -5.8280  -5.7439
    -5.6670  -5.5763  -5.5321  -5.5240  -5.3654  -5.3556  -5.3219  -5.2461
    -4.8578  -4.8148  -4.8011  -4.7618  -4.7070  -4.6059  -4.5898  -4.5232
    -4.4162  -4.2051  -4.1236  -4.0172  -3.8486  -3.8441  -3.8140  -3.8093
    -3.8007  -3.6492  -3.5037  -3.4783  -3.3767  -3.3374  -3.2507  -3.2170
    -3.0354  -3.0122  -2.9886  -2.8531  -2.7781  -2.7495  -2.7014  -2.6030
    -2.5099  -2.4930  -2.4373  -2.3094  -1.6561  -1.5916  -1.5662  -1.4181
    -1.0838  -1.0304  -0.9543  -0.9271  -0.8876  -0.8406  -0.7972  -0.7736
    -0.6716  -0.6499  -0.6156  -0.6030  -0.5957  -0.5298  -0.5253  -0.5182
    -0.1938  -0.1755  -0.1603  -0.1551  -0.1219  -0.0564  -0.0067  -0.0008
     0.0525   0.0783   0.0995   0.1065   0.1370   0.1532   0.1584   0.2829
     0.3003   0.3133   0.3223   0.3739   0.3996   0.4094   0.4762   0.4831
     0.5051   0.5064   0.5367   0.6491   0.6964   0.7116   0.7176   0.7440
     4.3174   4.3400   4.3664   4.3769   4.3995   4.4422   4.4749   4.5321
     6.9367   6.9482   6.9631   7.0034   7.1502   7.1889   7.1983   7.3375
     7.5665   7.9248   8.0271   8.0831   8.2339   8.2504   8.3976   8.4619
     8.6480   8.7858   8.7971   8.8088   9.0269   9.1043   9.1333   9.2531
     9.2608   9.3240   9.4491   9.4989

          k = 0.0000 0.0000-0.3214 ( 99662 PWs)   bands (ev):

   -24.4430 -24.4430 -24.3437 -24.3437 -24.3025 -24.3025 -24.2996 -24.2996
   -21.1930 -21.1930 -21.1846 -21.1846 -20.8770 -20.8770 -20.8388 -20.8388
   -19.7454 -19.7454 -19.7203 -19.7203 -19.6824 -19.6824 -19.6759 -19.6759
   -18.7781 -18.7781 -18.7737 -18.7737 -18.5045 -18.5045 -18.4906 -18.4906
   -17.6966 -17.6966 -17.6669 -17.6669 -16.7556 -16.7556 -16.7445 -16.7445
   -13.0277 -13.0277 -13.0080 -13.0080 -11.2482 -11.2482 -11.2089 -11.2089
   -11.0366 -11.0366 -11.0040 -11.0040 -10.5677 -10.5677 -10.5385 -10.5385
    -9.0121  -9.0121  -8.9858  -8.9858  -7.9253  -7.9253  -7.7979  -7.7979
    -7.5179  -7.5179  -7.4057  -7.4057  -7.0406  -7.0406  -7.0285  -7.0285
    -6.8674  -6.8674  -6.7060  -6.7060  -6.5692  -6.5692  -6.4451  -6.4451
    -6.3243  -6.3242  -6.2367  -6.2367  -5.8741  -5.8741  -5.7993  -5.7993
    -5.6058  -5.6058  -5.5464  -5.5464  -5.3650  -5.3650  -5.2867  -5.2867
    -4.8074  -4.8074  -4.7440  -4.7440  -4.6437  -4.6437  -4.6229  -4.6229
    -4.2732  -4.2732  -4.1671  -4.1671  -3.9668  -3.9668  -3.7701  -3.7701
    -3.5882  -3.5882  -3.4419  -3.4419  -3.3640  -3.3640  -3.2044  -3.2044
    -3.0845  -3.0845  -2.9473  -2.9473  -2.7161  -2.7161  -2.6479  -2.6479
    -2.5140  -2.5140  -2.3907  -2.3907  -1.6280  -1.6280  -1.4768  -1.4768
    -1.0631  -1.0631  -0.9419  -0.9419  -0.8353  -0.8353  -0.8152  -0.8152
    -0.6535  -0.6535  -0.6216  -0.6216  -0.5868  -0.5868  -0.5470  -0.5470
    -0.1713  -0.1713  -0.1602  -0.1602  -0.0643  -0.0643  -0.0178  -0.0178
     0.0850   0.0850   0.1243   0.1243   0.1421   0.1421   0.2167   0.2167
     0.2960   0.2960   0.3386   0.3386   0.4250   0.4250   0.4786   0.4786
     0.5007   0.5007   0.5904   0.5904   0.7020   0.7020   0.7350   0.7350
     4.3332   4.3332   4.3640   4.3640   4.4274   4.4274   4.4935   4.4935
     6.9473   6.9473   6.9762   6.9762   7.1508   7.1508   7.2810   7.2810
     7.8233   7.8233   7.9741   7.9741   8.2542   8.2542   8.3787   8.3787
     8.6093   8.6093   8.7878   8.7878   9.0537   9.0537   9.2323   9.2323
     9.3930   9.3930   9.4525   9.4525

          k = 0.0000-0.2834 0.0000 ( 99696 PWs)   bands (ev):

   -24.4431 -24.4431 -24.3437 -24.3437 -24.3024 -24.3024 -24.2996 -24.2996
   -21.1978 -21.1978 -21.1794 -21.1794 -20.8754 -20.8754 -20.8412 -20.8412
   -19.7454 -19.7454 -19.7202 -19.7202 -19.6818 -19.6818 -19.6764 -19.6764
   -18.7879 -18.7879 -18.7639 -18.7639 -18.5041 -18.5041 -18.4908 -18.4908
   -17.6870 -17.6870 -17.6764 -17.6764 -16.7680 -16.7680 -16.7323 -16.7323
   -13.0442 -13.0442 -12.9918 -12.9918 -11.2457 -11.2457 -11.2107 -11.2107
   -11.0393 -11.0393 -10.9978 -10.9978 -10.5738 -10.5738 -10.5347 -10.5347
    -9.0221  -9.0221  -8.9765  -8.9765  -7.9804  -7.9804  -7.7522  -7.7522
    -7.5159  -7.5159  -7.3968  -7.3968  -7.0386  -7.0386  -7.0283  -7.0283
    -6.8574  -6.8574  -6.7106  -6.7106  -6.5639  -6.5639  -6.4657  -6.4657
    -6.3133  -6.3133  -6.2366  -6.2366  -5.8901  -5.8901  -5.7951  -5.7951
    -5.6043  -5.6043  -5.5445  -5.5445  -5.3365  -5.3365  -5.2918  -5.2918
    -4.8419  -4.8419  -4.7862  -4.7862  -4.6577  -4.6577  -4.5752  -4.5752
    -4.3091  -4.3091  -4.0233  -4.0233  -3.9016  -3.9016  -3.7699  -3.7699
    -3.7381  -3.7381  -3.4971  -3.4971  -3.2973  -3.2973  -3.2810  -3.2810
    -2.9999  -2.9999  -2.9303  -2.9303  -2.8252  -2.8252  -2.6645  -2.6645
    -2.4471  -2.4471  -2.3760  -2.3760  -1.6268  -1.6268  -1.4822  -1.4822
    -1.0648  -1.0648  -0.9335  -0.9335  -0.8703  -0.8703  -0.7894  -0.7894
    -0.6583  -0.6583  -0.6149  -0.6149  -0.5717  -0.5717  -0.4958  -0.4958
    -0.1838  -0.1838  -0.1533  -0.1533  -0.0894  -0.0894  -0.0444  -0.0444
     0.0900   0.0900   0.1100   0.1100   0.1369   0.1369   0.2312   0.2312
     0.3072   0.3072   0.3596   0.3596   0.3834   0.3834   0.4842   0.4842
     0.4923   0.4923   0.5976   0.5976   0.7190   0.7190   0.7250   0.7250
     4.3345   4.3345   4.3691   4.3691   4.4122   4.4122   4.5088   4.5088
     6.9345   6.9345   6.9944   6.9944   7.1394   7.1394   7.2900   7.2900
     7.7505   7.7505   8.0558   8.0558   8.1570   8.1570   8.4868   8.4868
     8.7147   8.7147   8.9258   8.9258   9.0217   9.0217   9.1841   9.1841
     9.2174   9.2174   9.3759   9.3759

          k = 0.0000-0.2834-0.3214 ( 99604 PWs)   bands (ev):

   -24.4430 -24.4430 -24.3437 -24.3437 -24.3024 -24.3024 -24.2996 -24.2996
   -21.1908 -21.1908 -21.1870 -21.1870 -20.8749 -20.8749 -20.8407 -20.8407
   -19.7453 -19.7453 -19.7204 -19.7204 -19.6822 -19.6822 -19.6762 -19.6762
   -18.7761 -18.7761 -18.7758 -18.7758 -18.5042 -18.5042 -18.4908 -18.4908
   -17.6930 -17.6930 -17.6705 -17.6705 -16.7555 -16.7555 -16.7445 -16.7445
   -13.0268 -13.0268 -13.0093 -13.0093 -11.2303 -11.2303 -11.2275 -11.2275
   -11.0322 -11.0322 -11.0032 -11.0032 -10.5695 -10.5695 -10.5422 -10.5422
    -9.0104  -9.0104  -8.9856  -8.9856  -7.9238  -7.9238  -7.8005  -7.8005
    -7.5139  -7.5139  -7.4094  -7.4094  -7.0418  -7.0418  -7.0278  -7.0278
    -6.8646  -6.8646  -6.7089  -6.7089  -6.5664  -6.5664  -6.4529  -6.4529
    -6.3138  -6.3138  -6.2419  -6.2419  -5.8782  -5.8782  -5.7962  -5.7962
    -5.5920  -5.5920  -5.5628  -5.5628  -5.3471  -5.3471  -5.2984  -5.2984
    -4.8038  -4.8038  -4.7254  -4.7254  -4.6539  -4.6539  -4.6517  -4.6517
    -4.2564  -4.2564  -4.1715  -4.1715  -3.9425  -3.9425  -3.7912  -3.7912
    -3.5749  -3.5749  -3.4817  -3.4817  -3.3370  -3.3370  -3.2113  -3.2113
    -3.0083  -3.0083  -2.9894  -2.9894  -2.7478  -2.7478  -2.7163  -2.7163
    -2.4266  -2.4266  -2.4082  -2.4082  -1.6043  -1.6043  -1.4952  -1.4952
    -1.0681  -1.0681  -0.9469  -0.9469  -0.8341  -0.8341  -0.8186  -0.8186
    -0.6534  -0.6534  -0.6164  -0.6164  -0.5799  -0.5799  -0.5429  -0.5429
    -0.1711  -0.1711  -0.1648  -0.1648  -0.0562  -0.0562  -0.0351  -0.0351
     0.1012   0.1012   0.1030   0.1030   0.1422   0.1422   0.2330   0.2330
     0.3119   0.3119   0.3183   0.3183   0.4345   0.4345   0.4664   0.4664
     0.5156   0.5156   0.5669   0.5669   0.7149   0.7149   0.7329   0.7329
     4.3438   4.3438   4.3546   4.3546   4.4256   4.4256   4.4943   4.4943
     6.9470   6.9470   6.9716   6.9716   7.1557   7.1557   7.2742   7.2742
     7.8871   7.8871   7.9201   7.9201   8.2764   8.2764   8.3405   8.3405
     8.6541   8.6541   8.7527   8.7527   9.0446   9.0446   9.2272   9.2272
     9.3906   9.3906   9.4162   9.4162

          k = 0.3333 0.0000 0.0099 ( 99584 PWs)   bands (ev):

   -24.4299 -24.4288 -24.3436 -24.3433 -24.3121 -24.3114 -24.3032 -24.3031
   -21.2046 -21.1977 -21.1943 -21.1902 -20.8795 -20.8621 -20.8406 -20.8402
   -19.7393 -19.7357 -19.7246 -19.7224 -19.6874 -19.6866 -19.6681 -19.6676
   -18.7824 -18.7802 -18.7704 -18.7683 -18.5077 -18.5056 -18.4937 -18.4916
   -17.6988 -17.6898 -17.6812 -17.6806 -16.7499 -16.7371 -16.7313 -16.7166
   -13.0332 -13.0139 -13.0061 -12.9780 -11.2688 -11.2476 -11.2253 -11.2196
   -11.0459 -11.0354 -11.0133 -11.0069 -10.5695 -10.5485 -10.5306 -10.5188
    -9.0423  -9.0288  -8.9908  -8.9845  -7.9820  -7.9194  -7.9151  -7.8388
    -7.6815  -7.6617  -7.5718  -7.4967  -7.0922  -7.0745  -6.9877  -6.9867
    -6.7891  -6.7659  -6.6554  -6.6479  -6.5545  -6.5330  -6.3576  -6.3403
    -6.3063  -6.2568  -6.2078  -6.1874  -5.8252  -5.8219  -5.7700  -5.7382
    -5.5681  -5.5362  -5.4896  -5.4533  -5.3843  -5.3308  -5.2823  -5.2432
    -4.9061  -4.8644  -4.7901  -4.7817  -4.7418  -4.7110  -4.6695  -4.6136
    -4.3557  -4.2813  -4.2324  -4.1675  -3.9918  -3.9871  -3.8754  -3.8180
    -3.5708  -3.5432  -3.5315  -3.4770  -3.3176  -3.1856  -3.1401  -3.0753
    -2.9552  -2.9489  -2.9057  -2.8862  -2.7406  -2.7262  -2.6574  -2.6290
    -2.5228  -2.4903  -2.4343  -2.3361  -1.6578  -1.6185  -1.5279  -1.4554
    -1.0640  -1.0529  -0.9895  -0.9450  -0.8826  -0.8745  -0.8583  -0.8166
    -0.7635  -0.7418  -0.6021  -0.5845  -0.5763  -0.5343  -0.4246  -0.4193
    -0.2385  -0.2076  -0.2041  -0.1961  -0.1219  -0.1209  -0.1059  -0.0527
    -0.0033   0.0530   0.0862   0.0990   0.1741   0.1783   0.2498   0.2912
     0.2933   0.3077   0.3201   0.3431   0.4105   0.4458   0.5096   0.5224
     0.5350   0.5480   0.5510   0.6109   0.7406   0.7452   0.7463   0.7612
     4.2160   4.2281   4.3915   4.4256   4.4278   4.4472   4.5041   4.5263
     6.9158   6.9539   6.9612   6.9979   7.1472   7.2165   7.2266   7.2958
     7.7485   7.9024   7.9335   8.0826   8.0838   8.3407   8.4628   8.5760
     8.6230   8.6736   8.8384   8.9040   9.0201   9.0861   9.2364   9.2909
     9.2971   9.3313   9.4792   9.4812

          k = 0.3333 0.0000-0.3115 ( 99580 PWs)   bands (ev):

   -24.4295 -24.4291 -24.3439 -24.3430 -24.3124 -24.3112 -24.3031 -24.3031
   -21.2094 -21.2010 -21.1896 -21.1867 -20.8828 -20.8649 -20.8435 -20.8311
   -19.7377 -19.7376 -19.7248 -19.7220 -19.6876 -19.6872 -19.6683 -19.6669
   -18.7865 -18.7835 -18.7660 -18.7651 -18.5090 -18.5021 -18.4982 -18.4893
   -17.7009 -17.7004 -17.6823 -17.6663 -16.7521 -16.7392 -16.7239 -16.7205
   -13.0312 -13.0082 -13.0040 -12.9879 -11.2579 -11.2560 -11.2380 -11.2065
   -11.0594 -11.0338 -11.0200 -10.9887 -10.5609 -10.5566 -10.5488 -10.5001
    -9.0752  -9.0251  -8.9787  -8.9712  -8.0129  -7.9393  -7.8986  -7.8288
    -7.6600  -7.6563  -7.5546  -7.5195  -7.0817  -7.0718  -6.9890  -6.9847
    -6.7855  -6.7739  -6.6783  -6.6206  -6.5827  -6.5058  -6.3747  -6.3211
    -6.2940  -6.2661  -6.2201  -6.1798  -5.8125  -5.7968  -5.7703  -5.7683
    -5.5589  -5.5408  -5.5241  -5.4436  -5.3680  -5.3251  -5.2791  -5.2492
    -4.9433  -4.8441  -4.8106  -4.8000  -4.7786  -4.7365  -4.6260  -4.5592
    -4.4203  -4.2605  -4.1907  -4.0959  -4.0890  -3.8971  -3.8532  -3.8385
    -3.6560  -3.6065  -3.5082  -3.4972  -3.3159  -3.1727  -3.0757  -3.0544
    -2.9721  -2.9408  -2.8792  -2.8606  -2.7879  -2.6916  -2.6748  -2.6099
    -2.5167  -2.4793  -2.4529  -2.3722  -1.6514  -1.6118  -1.5392  -1.4476
    -1.0654  -1.0647  -0.9837  -0.9151  -0.9061  -0.8711  -0.8648  -0.8096
    -0.7772  -0.7446  -0.6101  -0.6069  -0.5809  -0.5507  -0.4496  -0.4094
    -0.2762  -0.1896  -0.1888  -0.1640  -0.1357  -0.1114  -0.0959  -0.0427
     0.0032   0.0328   0.0658   0.1404   0.1916   0.2218   0.2285   0.2732
     0.2807   0.2972   0.3031   0.3775   0.4585   0.4620   0.4935   0.5146
     0.5207   0.5321   0.5562   0.5950   0.7359   0.7450   0.7512   0.7583
     4.2151   4.2341   4.3988   4.4111   4.4253   4.4516   4.5001   4.5223
     6.9231   6.9395   6.9921   7.0205   7.0768   7.2150   7.2342   7.3193
     7.7864   7.8143   8.0342   8.0423   8.1480   8.3516   8.3714   8.4970
     8.6018   8.7066   8.7529   8.9967   9.0107   9.1017   9.1662   9.2431
     9.3157   9.3261   9.4266   9.5374

          k = 0.3333-0.2834 0.0099 ( 99534 PWs)   bands (ev):

   -24.4293 -24.4293 -24.3435 -24.3435 -24.3118 -24.3118 -24.3031 -24.3031
   -21.2013 -21.2013 -21.1922 -21.1922 -20.8712 -20.8712 -20.8399 -20.8399
   -19.7375 -19.7375 -19.7235 -19.7235 -19.6870 -19.6870 -19.6679 -19.6679
   -18.7813 -18.7813 -18.7693 -18.7693 -18.5052 -18.5052 -18.4941 -18.4941
   -17.6920 -17.6920 -17.6832 -17.6832 -16.7454 -16.7454 -16.7221 -16.7221
   -13.0272 -13.0272 -12.9885 -12.9885 -11.2534 -11.2534 -11.2278 -11.2278
   -11.0425 -11.0425 -11.0055 -11.0055 -10.5582 -10.5582 -10.5285 -10.5285
    -9.0330  -9.0330  -8.9888  -8.9888  -7.9643  -7.9643  -7.8594  -7.8594
    -7.6786  -7.6786  -7.5335  -7.5335  -7.0791  -7.0791  -6.9924  -6.9924
    -6.7783  -6.7783  -6.6541  -6.6541  -6.5420  -6.5420  -6.3348  -6.3348
    -6.2869  -6.2869  -6.2076  -6.2076  -5.8209  -5.8209  -5.7529  -5.7529
    -5.5494  -5.5494  -5.4814  -5.4814  -5.3339  -5.3339  -5.2770  -5.2770
    -4.8621  -4.8621  -4.8100  -4.8100  -4.7361  -4.7361  -4.6291  -4.6291
    -4.3107  -4.3107  -4.1900  -4.1900  -4.0303  -4.0303  -3.8298  -3.8298
    -3.5716  -3.5716  -3.4916  -3.4916  -3.2331  -3.2331  -3.1319  -3.1319
    -2.9634  -2.9634  -2.8722  -2.8722  -2.7490  -2.7490  -2.6502  -2.6502
    -2.4859  -2.4859  -2.3795  -2.3795  -1.6382  -1.6382  -1.5052  -1.5052
    -1.0531  -1.0531  -0.9606  -0.9606  -0.8827  -0.8827  -0.8494  -0.8494
    -0.7482  -0.7482  -0.5924  -0.5924  -0.5475  -0.5475  -0.4185  -0.4185
    -0.2195  -0.2195  -0.1951  -0.1951  -0.1255  -0.1255  -0.0885  -0.0885
     0.0081   0.0081   0.1175   0.1175   0.1879   0.1879   0.2471   0.2471
     0.3089   0.3089   0.3204   0.3204   0.4327   0.4327   0.5159   0.5159
     0.5400   0.5400   0.5899   0.5899   0.7427   0.7427   0.7501   0.7501
     4.2209   4.2209   4.4074   4.4074   4.4396   4.4396   4.5148   4.5148
     6.9303   6.9303   6.9813   6.9813   7.1742   7.1742   7.2653   7.2653
     7.8492   7.8492   7.9431   7.9431   8.2503   8.2503   8.4482   8.4482
     8.7422   8.7422   8.9266   8.9266   9.0446   9.0446   9.1699   9.1699
     9.3189   9.3189   9.3757   9.3757

          k = 0.3333-0.2834-0.3115 ( 99618 PWs)   bands (ev):

   -24.4293 -24.4293 -24.3435 -24.3435 -24.3118 -24.3118 -24.3031 -24.3031
   -21.2053 -21.2053 -21.1881 -21.1881 -20.8747 -20.8747 -20.8364 -20.8364
   -19.7375 -19.7375 -19.7235 -19.7235 -19.6874 -19.6874 -19.6676 -19.6676
   -18.7850 -18.7850 -18.7656 -18.7656 -18.5053 -18.5053 -18.4941 -18.4941
   -17.7003 -17.7003 -17.6746 -17.6746 -16.7462 -16.7462 -16.7216 -16.7216
   -13.0234 -13.0234 -12.9924 -12.9924 -11.2511 -11.2511 -11.2296 -11.2296
   -11.0469 -11.0469 -11.0001 -11.0001 -10.5645 -10.5645 -10.5219 -10.5219
    -9.0509  -9.0509  -8.9731  -8.9731  -7.9794  -7.9794  -7.8571  -7.8571
    -7.6663  -7.6663  -7.5327  -7.5327  -7.0814  -7.0814  -6.9847  -6.9847
    -6.7813  -6.7813  -6.6517  -6.6517  -6.5380  -6.5380  -6.3484  -6.3484
    -6.2894  -6.2894  -6.1925  -6.1925  -5.8050  -5.8050  -5.7686  -5.7686
    -5.5571  -5.5571  -5.4784  -5.4784  -5.3350  -5.3350  -5.2699  -5.2699
    -4.8854  -4.8854  -4.8127  -4.8127  -4.7702  -4.7702  -4.5807  -4.5807
    -4.3394  -4.3394  -4.1484  -4.1484  -4.0144  -4.0144  -3.8329  -3.8329
    -3.6415  -3.6415  -3.4813  -3.4813  -3.2353  -3.2353  -3.0915  -3.0915
    -2.9558  -2.9558  -2.8613  -2.8613  -2.7534  -2.7534  -2.6454  -2.6454
    -2.4747  -2.4747  -2.4056  -2.4056  -1.6276  -1.6276  -1.5118  -1.5118
    -1.0620  -1.0620  -0.9569  -0.9569  -0.8796  -0.8796  -0.8414  -0.8414
    -0.7643  -0.7643  -0.6015  -0.6015  -0.5573  -0.5573  -0.4260  -0.4260
    -0.2315  -0.2315  -0.1834  -0.1834  -0.1217  -0.1217  -0.0808  -0.0808
     0.0026   0.0026   0.1302   0.1302   0.1850   0.1850   0.2435   0.2435
     0.3081   0.3081   0.3505   0.3505   0.4539   0.4539   0.5132   0.5132
     0.5286   0.5286   0.5707   0.5707   0.7372   0.7372   0.7543   0.7543
     4.2223   4.2223   4.4082   4.4082   4.4348   4.4348   4.5131   4.5131
     6.9273   6.9273   7.0128   7.0128   7.1331   7.1331   7.2821   7.2821
     7.8111   7.8111   7.9929   7.9929   8.3195   8.3195   8.3807   8.3807
     8.6413   8.6413   8.9371   8.9371   9.0061   9.0061   9.2321   9.2321
     9.2759   9.2759   9.4800   9.4801

     highest occupied, lowest unoccupied level (ev):     0.7612    4.2151

!    total energy              =   -2170.48807425 Ry
     Harris-Foulkes estimate   =   -2170.48807425 Ry
     estimated scf accuracy    <          5.3E-09 Ry

     total all-electron energy =     -8109.651408 Ry

     The total energy is the sum of the following terms:

     one-electron contribution =   -1204.70076750 Ry
     hartree contribution      =     759.28518270 Ry
     xc contribution           =    -417.29086201 Ry
     ewald contribution        =    -737.30741549 Ry
     Dispersion Correction     =      -0.41546401 Ry
     one-center paw contrib.   =    -570.05874794 Ry

     convergence has been achieved in  16 iterations

     Forces acting on atoms (cartesian axes, Ry/au):

     atom    1 type  1   force =     0.00019351   -0.00008775    0.00073373
     atom    2 type  1   force =    -0.00019351   -0.00008775   -0.00073373
     atom    3 type  1   force =    -0.00019351    0.00008775   -0.00073373
     atom    4 type  1   force =     0.00019351    0.00008775    0.00073373
     atom    5 type  2   force =     0.00011091   -0.00067308   -0.00426504
     atom    6 type  2   force =    -0.00011091   -0.00067308    0.00426504
     atom    7 type  2   force =    -0.00011091    0.00067308    0.00426504
     atom    8 type  2   force =     0.00011091    0.00067308   -0.00426504
     atom    9 type  1   force =     0.00163801    0.00096593    0.00053034
     atom   10 type  1   force =    -0.00163801    0.00096593   -0.00053034
     atom   11 type  1   force =    -0.00163801   -0.00096593   -0.00053034
     atom   12 type  1   force =     0.00163801   -0.00096593    0.00053034
     atom   13 type  4   force =     0.00003147    0.00075911    0.00097402
     atom   14 type  4   force =    -0.00003147    0.00075911   -0.00097402
     atom   15 type  4   force =    -0.00003147   -0.00075911   -0.00097402
     atom   16 type  4   force =     0.00003147   -0.00075911    0.00097402
     atom   17 type  1   force =    -0.00024353   -0.00026490    0.00125187
     atom   18 type  1   force =     0.00024353   -0.00026490   -0.00125187
     atom   19 type  1   force =     0.00024353    0.00026490   -0.00125187
     atom   20 type  1   force =    -0.00024353    0.00026490    0.00125187
     atom   21 type  3   force =     0.00124242   -0.00001442   -0.00056025
     atom   22 type  3   force =    -0.00124242   -0.00001442    0.00056025
     atom   23 type  3   force =    -0.00124242    0.00001442    0.00056025
     atom   24 type  3   force =     0.00124242    0.00001442   -0.00056025
     atom   25 type  3   force =     0.00013343   -0.00020794   -0.00001559
     atom   26 type  3   force =    -0.00013343   -0.00020794    0.00001559
     atom   27 type  3   force =    -0.00013343    0.00020794    0.00001559
     atom   28 type  3   force =     0.00013343    0.00020794   -0.00001559
     atom   29 type  2   force =    -0.00104419    0.00398330    0.00400548
     atom   30 type  2   force =     0.00104419    0.00398330   -0.00400548
     atom   31 type  2   force =     0.00104419   -0.00398330   -0.00400548
     atom   32 type  2   force =    -0.00104419   -0.00398330    0.00400548
     atom   33 type  1   force =    -0.00071078   -0.00503208   -0.00348839
     atom   34 type  1   force =     0.00071078   -0.00503208    0.00348839
     atom   35 type  1   force =     0.00071078    0.00503208    0.00348839
     atom   36 type  1   force =    -0.00071078    0.00503208   -0.00348839
     atom   37 type  4   force =    -0.00256861    0.00265343   -0.00065451
     atom   38 type  4   force =     0.00256861    0.00265343    0.00065451
     atom   39 type  4   force =     0.00256861   -0.00265343    0.00065451
     atom   40 type  4   force =    -0.00256861   -0.00265343   -0.00065451
     atom   41 type  1   force =     0.00020065    0.00034502   -0.00013765
     atom   42 type  1   force =    -0.00020065    0.00034502    0.00013765
     atom   43 type  1   force =    -0.00020065   -0.00034502    0.00013765
     atom   44 type  1   force =     0.00020065   -0.00034502   -0.00013765
     atom   45 type  3   force =     0.00026354   -0.00051618    0.00021041
     atom   46 type  3   force =    -0.00026354   -0.00051618   -0.00021041
     atom   47 type  3   force =    -0.00026354    0.00051618   -0.00021041
     atom   48 type  3   force =     0.00026354    0.00051618    0.00021041
     atom   49 type  3   force =    -0.00260426    0.00256844   -0.00017278
     atom   50 type  3   force =     0.00260426    0.00256844    0.00017278
     atom   51 type  3   force =     0.00260426   -0.00256844    0.00017278
     atom   52 type  3   force =    -0.00260426   -0.00256844   -0.00017278
     atom   53 type  2   force =     0.00318716   -0.00179062    0.00115758
     atom   54 type  2   force =    -0.00318716   -0.00179062   -0.00115758
     atom   55 type  2   force =    -0.00318716    0.00179062   -0.00115758
     atom   56 type  2   force =     0.00318716    0.00179062    0.00115758
     atom   57 type  4   force =    -0.00290671    0.00086219   -0.00308440
     atom   58 type  4   force =     0.00290671    0.00086219    0.00308440
     atom   59 type  4   force =     0.00290671   -0.00086219    0.00308440
     atom   60 type  4   force =    -0.00290671   -0.00086219   -0.00308440
     atom   61 type  4   force =     0.00134084    0.00020870    0.00083039
     atom   62 type  4   force =    -0.00134084    0.00020870   -0.00083039
     atom   63 type  4   force =    -0.00134084   -0.00020870   -0.00083039
     atom   64 type  4   force =     0.00134084   -0.00020870    0.00083039
     atom   65 type  4   force =    -0.00076435    0.00044746   -0.00042200
     atom   66 type  4   force =     0.00076435    0.00044746    0.00042200
     atom   67 type  4   force =     0.00076435   -0.00044746    0.00042200
     atom   68 type  4   force =    -0.00076435   -0.00044746   -0.00042200
     atom   69 type  2   force =     0.00435941   -0.00201798   -0.00318692
     atom   70 type  2   force =    -0.00435941   -0.00201798    0.00318692
     atom   71 type  2   force =    -0.00435941    0.00201798    0.00318692
     atom   72 type  2   force =     0.00435941    0.00201798   -0.00318692
     atom   73 type  4   force =    -0.00549075    0.00021756    0.00244265
     atom   74 type  4   force =     0.00549075    0.00021756   -0.00244265
     atom   75 type  4   force =     0.00549075   -0.00021756   -0.00244265
     atom   76 type  4   force =    -0.00549075   -0.00021756    0.00244265
     atom   77 type  4   force =     0.00067700    0.00007361   -0.00145875
     atom   78 type  4   force =    -0.00067700    0.00007361    0.00145875
     atom   79 type  4   force =    -0.00067700   -0.00007361    0.00145875
     atom   80 type  4   force =     0.00067700   -0.00007361   -0.00145875
     atom   81 type  4   force =     0.00522887   -0.00131927    0.00438618
     atom   82 type  4   force =    -0.00522887   -0.00131927   -0.00438618
     atom   83 type  4   force =    -0.00522887    0.00131927   -0.00438618
     atom   84 type  4   force =     0.00522887    0.00131927    0.00438618

     Total force =     0.033735     Total SCF correction =     0.000174


     Computing stress (Cartesian axis) and pressure

          total   stress  (Ry/bohr**3)                   (kbar)     P=    0.20
  -0.00000676   0.00000000  -0.00000697         -0.99      0.00     -1.03
   0.00000000   0.00000801   0.00000000          0.00      1.18      0.00
  -0.00000697   0.00000000   0.00000291         -1.03      0.00      0.43


     Writing output data file scf.save
 
     init_run     :     43.80s CPU     45.56s WALL (       1 calls)
     electrons    :   1480.60s CPU   1537.55s WALL (       1 calls)
     forces       :     22.16s CPU     22.34s WALL (       1 calls)
     stress       :    149.40s CPU    149.76s WALL (       1 calls)

     Called by init_run:
     wfcinit      :     32.52s CPU     33.88s WALL (       1 calls)
     potinit      :      3.98s CPU      4.17s WALL (       1 calls)

     Called by electrons:
     c_bands      :   1323.50s CPU   1373.06s WALL (      16 calls)
     sum_band     :    143.77s CPU    150.05s WALL (      16 calls)
     v_of_rho     :      1.95s CPU      2.13s WALL (      17 calls)
     newd         :      4.53s CPU      5.35s WALL (      17 calls)
     PAW_pot      :      6.34s CPU      6.43s WALL (      17 calls)
     mix_rho      :      0.47s CPU      0.52s WALL (      16 calls)

     Called by c_bands:
     init_us_2    :      9.47s CPU      9.50s WALL (     280 calls)
     cegterg      :   1286.64s CPU   1336.14s WALL (     128 calls)

     Called by sum_band:
     sum_band:bec :      0.10s CPU      0.10s WALL (     128 calls)
     addusdens    :      4.78s CPU      5.54s WALL (      16 calls)

     Called by *egterg:
     h_psi        :    736.70s CPU    772.41s WALL (     590 calls)
     s_psi        :    132.15s CPU    132.19s WALL (     590 calls)
     g_psi        :      5.02s CPU      5.03s WALL (     454 calls)
     cdiaghg      :     91.82s CPU     91.86s WALL (     582 calls)

     Called by h_psi:
     h_psi:pot    :    730.83s CPU    766.44s WALL (     590 calls)
     h_psi:calbec :    126.34s CPU    126.70s WALL (     590 calls)
     vloc_psi     :    472.51s CPU    507.73s WALL (     590 calls)
     add_vuspsi   :    131.97s CPU    132.01s WALL (     590 calls)

     General routines
     calbec       :    184.88s CPU    185.37s WALL (     758 calls)
     fft          :      1.03s CPU      1.44s WALL (     245 calls)
     fftw         :    510.48s CPU    547.08s WALL (  184166 calls)
 
     Parallel routines
     fft_scatter  :     93.68s CPU    121.07s WALL (  184411 calls)
 
     PWSCF        : 28m28.25s CPU    30m23.37s WALL

 
   This run was terminated on:   2:49:31   4Nov2017            

=------------------------------------------------------------------------------=
   JOB DONE.
=------------------------------------------------------------------------------=
