
     Program PWSCF v.6.1 (svn rev. 13369) starts on 13Nov2017 at 12:24: 2 

     This program is part of the open-source Quantum ESPRESSO suite
     for quantum simulation of materials; please cite
         "P. Giannozzi et al., J. Phys.:Condens. Matter 21 395502 (2009);
          URL http://www.quantum-espresso.org", 
     in publications or presentations arising from this work. More details at
     http://www.quantum-espresso.org/quote

     Parallel version (MPI), running on     8 processors
     R & G space division:  proc/nbgrp/npool/nimage =       8
     Waiting for input...
     Reading input from standard input

     Current dimensions of program PWSCF are:
     Max number of different atomic species (ntypx) = 10
     Max number of k-points (npk) =  40000
     Max angular momentum in pseudopotentials (lmaxx) =  3
               file C.pbe-n-kjpaw_psl.0.1.UPF: wavefunction(s)  2P renormalized
               file N.pbe-n-kjpaw_psl.0.1.UPF: wavefunction(s)  2P renormalized
               file H.pbe-kjpaw_psl.0.1.UPF: wavefunction(s)  1S renormalized
               file O.pbe-n-kjpaw_psl.0.1.UPF: wavefunction(s)  2P renormalized

     -------------------------------------
     Parameters for Dispersion Correction:
     -------------------------------------
       atom      VdW radius       C_6     

        C          2.744         60.710
        N          2.640         42.670
        H          1.892          4.857
        O          2.536         24.284

     Subspace diagonalization in iterative solution of the eigenvalue problem:
     a serial algorithm will be used

 
     Parallelization info
     --------------------
     sticks:   dense  smooth     PW     G-vecs:    dense   smooth      PW
     Min        2794    2794    732               145158   145158   19479
     Max        2796    2796    734               145159   145159   19480
     Sum       22359   22359   5865              1161267  1161267  155839
 


     bravais-lattice index     =            0
     lattice parameter (alat)  =      29.6725  a.u.
     unit-cell volume          =    8597.5524 (a.u.)^3
     number of atoms/cell      =          120
     number of atomic types    =            4
     number of electrons       =       392.00
     number of Kohn-Sham states=          235
     kinetic-energy cutoff     =     100.0000  Ry
     charge density cutoff     =     400.0000  Ry
     convergence threshold     =      1.0E-08
     mixing beta               =       0.5000
     number of iterations used =            8  plain     mixing
     Exchange-correlation      =  SLA  PW   PBX  PBC ( 1  4  3  4 0 0)

     celldm(1)=  29.672480  celldm(2)=   0.000000  celldm(3)=   0.000000
     celldm(4)=   0.000000  celldm(5)=   0.000000  celldm(6)=   0.000000

     crystal axes: (cart. coord. in units of alat)
               a(1) = (   1.000000   0.000000   0.000000 )  
               a(2) = (   0.000000   0.797924   0.000000 )  
               a(3) = (   0.000000   0.000000   0.412432 )  

     reciprocal axes: (cart. coord. in units 2 pi/alat)
               b(1) = (  1.000000  0.000000  0.000000 )  
               b(2) = (  0.000000  1.253252  0.000000 )  
               b(3) = (  0.000000  0.000000  2.424645 )  


     PseudoPot. # 1 for  C read from file:
     /scratch/ahofstet/pseudo/C.pbe-n-kjpaw_psl.0.1.UPF
     MD5 check sum: 430fe95172b1e11ef3f8ed03bac87931
     Pseudo is Projector augmented-wave + core cor, Zval =  4.0
     Generated using "atomic" code by A. Dal Corso  v.5.0.99 svn rev. 10869
     Shape of augmentation charge: BESSEL
     Using radial grid of 1073 points,  4 beta functions with: 
                l(1) =   0
                l(2) =   0
                l(3) =   1
                l(4) =   1
     Q(r) pseudized with 0 coefficients 


     PseudoPot. # 2 for  N read from file:
     /scratch/ahofstet/pseudo/N.pbe-n-kjpaw_psl.0.1.UPF
     MD5 check sum: f73187c8b701007e77325f868c9291d7
     Pseudo is Projector augmented-wave + core cor, Zval =  5.0
     Generated using "atomic" code by A. Dal Corso  v.5.0.99 svn rev. 10869
     Shape of augmentation charge: PSQ
     Using radial grid of 1085 points,  4 beta functions with: 
                l(1) =   0
                l(2) =   0
                l(3) =   1
                l(4) =   1
     Q(r) pseudized with 0 coefficients 


     PseudoPot. # 3 for  H read from file:
     /scratch/ahofstet/pseudo/H.pbe-kjpaw_psl.0.1.UPF
     MD5 check sum: 94e484f906d9e9773b2f6e52662335b2
     Pseudo is Projector augmented-wave, Zval =  1.0
     Generated using "atomic" code by A. Dal Corso  v.5.0.99 svn rev. 10869
     Shape of augmentation charge: PSQ
     Using radial grid of  929 points,  2 beta functions with: 
                l(1) =   0
                l(2) =   0
     Q(r) pseudized with 0 coefficients 


     PseudoPot. # 4 for  O read from file:
     /scratch/ahofstet/pseudo/O.pbe-n-kjpaw_psl.0.1.UPF
     MD5 check sum: 3f94a2996a3169367d6eb21d9b593f20
     Pseudo is Projector augmented-wave + core cor, Zval =  6.0
     Generated using "atomic" code by A. Dal Corso  v.5.0.99 svn rev. 10869
     Shape of augmentation charge: BESSEL
     Using radial grid of 1095 points,  4 beta functions with: 
                l(1) =   0
                l(2) =   0
                l(3) =   1
                l(4) =   1
     Q(r) pseudized with 0 coefficients 


     atomic species   valence    mass     pseudopotential
        C              4.00    12.01070      C( 1.00)
        N              5.00    14.00670      N( 1.00)
        H              1.00     1.00794      H( 1.00)
        O              6.00    15.99940      O( 1.00)

      4 Sym. Ops. (no inversion) found ( 3 have fractional translation)



   Cartesian axes

     site n.     atom                  positions (alat units)
         1           C   tau(   1) = (   0.4546094   0.7831171   0.1875455  )
         2           C   tau(   2) = (   0.0453906   0.3841552   0.3937613  )
         3           C   tau(   3) = (   0.9546094   0.4137686   0.1875455  )
         4           C   tau(   4) = (   0.5453906   0.0148067   0.3937613  )
         5           N   tau(   5) = (   0.3780801   0.7448779   0.2013731  )
         6           N   tau(   6) = (   0.1219199   0.3459160   0.4075888  )
         7           N   tau(   7) = (   0.8780801   0.4520079   0.2013731  )
         8           N   tau(   8) = (   0.6219199   0.0530459   0.4075888  )
         9           N   tau(   9) = (   0.3953003   0.6627627   0.1981612  )
        10           N   tau(  10) = (   0.1046997   0.2638008   0.4043770  )
        11           N   tau(  11) = (   0.8953003   0.5341230   0.1981612  )
        12           N   tau(  12) = (   0.6046997   0.1351611   0.4043770  )
        13           N   tau(  13) = (   0.4798260   0.6510328   0.1847504  )
        14           N   tau(  14) = (   0.0201740   0.2520709   0.3909662  )
        15           N   tau(  15) = (   0.9798260   0.5458530   0.1847504  )
        16           N   tau(  16) = (   0.5201740   0.1468910   0.3909662  )
        17           N   tau(  17) = (   0.5179193   0.7246214   0.1768128  )
        18           N   tau(  18) = (   0.9820807   0.3256595   0.3830286  )
        19           N   tau(  19) = (   0.0179193   0.4722643   0.1768128  )
        20           N   tau(  20) = (   0.4820807   0.0733024   0.3830286  )
        21           N   tau(  21) = (   0.4627786   0.0716935   0.1839772  )
        22           N   tau(  22) = (   0.0372214   0.4706554   0.3901929  )
        23           N   tau(  23) = (   0.9627786   0.3272684   0.1839772  )
        24           N   tau(  24) = (   0.5372214   0.7262303   0.3901929  )
        25           N   tau(  25) = (   0.5428302   0.0943831   0.1973506  )
        26           N   tau(  26) = (   0.9571698   0.4933450   0.4035664  )
        27           N   tau(  27) = (   0.0428302   0.3045788   0.1973506  )
        28           N   tau(  28) = (   0.4571698   0.7035407   0.4035664  )
        29           O   tau(  29) = (   0.5559007   0.1732549   0.1921544  )
        30           O   tau(  30) = (   0.9440993   0.5722169   0.3983701  )
        31           O   tau(  31) = (   0.0559007   0.2257070   0.1921544  )
        32           O   tau(  32) = (   0.4440993   0.6246689   0.3983701  )
        33           C   tau(  33) = (   0.3330618   0.5966824   0.2052967  )
        34           C   tau(  34) = (   0.1669382   0.1977205   0.4115125  )
        35           C   tau(  35) = (   0.8330618   0.6002033   0.2052967  )
        36           C   tau(  36) = (   0.6669382   0.2012414   0.4115125  )
        37           C   tau(  37) = (   0.2781124   0.5979815   0.2751537  )
        38           C   tau(  38) = (   0.2218876   0.1990196   0.0689380  )
        39           C   tau(  39) = (   0.7781124   0.5989042   0.2751537  )
        40           C   tau(  40) = (   0.7218876   0.1999423   0.0689380  )
        41           C   tau(  41) = (   0.2174954   0.5333922   0.2822566  )
        42           C   tau(  42) = (   0.2825046   0.1344303   0.0760408  )
        43           C   tau(  43) = (   0.7174954   0.6634935   0.2822566  )
        44           C   tau(  44) = (   0.7825046   0.2645316   0.0760408  )
        45           C   tau(  45) = (   0.2136756   0.4688255   0.2209193  )
        46           C   tau(  46) = (   0.2863244   0.0698636   0.0147035  )
        47           C   tau(  47) = (   0.7136756   0.7280602   0.2209193  )
        48           C   tau(  48) = (   0.7863244   0.3290983   0.0147035  )
        49           C   tau(  49) = (   0.2688411   0.4695520   0.1510491  )
        50           C   tau(  50) = (   0.2311589   0.0705901   0.3572648  )
        51           C   tau(  51) = (   0.7688411   0.7273338   0.1510491  )
        52           C   tau(  52) = (   0.7311589   0.3283719   0.3572648  )
        53           C   tau(  53) = (   0.3292687   0.5341287   0.1421600  )
        54           C   tau(  54) = (   0.1707313   0.1351668   0.3483757  )
        55           C   tau(  55) = (   0.8292687   0.6627571   0.1421600  )
        56           C   tau(  56) = (   0.6707313   0.2637952   0.3483757  )
        57           C   tau(  57) = (   0.5241932   0.5713273   0.1801929  )
        58           C   tau(  58) = (   0.9758068   0.1723654   0.3864087  )
        59           C   tau(  59) = (   0.0241932   0.6255585   0.1801929  )
        60           C   tau(  60) = (   0.4758068   0.2265966   0.3864087  )
        61           C   tau(  61) = (   0.5092861   0.5092422   0.2419906  )
        62           C   tau(  62) = (   0.9907139   0.1102803   0.0357749  )
        63           C   tau(  63) = (   0.0092861   0.6876435   0.2419906  )
        64           C   tau(  64) = (   0.4907139   0.2886816   0.0357749  )
        65           C   tau(  65) = (   0.5553380   0.4333952   0.2371501  )
        66           C   tau(  66) = (   0.9446620   0.0344333   0.0309343  )
        67           C   tau(  67) = (   0.0553380   0.7634905   0.2371501  )
        68           C   tau(  68) = (   0.4446620   0.3645286   0.0309343  )
        69           C   tau(  69) = (   0.6157634   0.4216084   0.1728191  )
        70           C   tau(  70) = (   0.8842366   0.0226465   0.3790348  )
        71           C   tau(  71) = (   0.1157634   0.7752773   0.1728191  )
        72           C   tau(  72) = (   0.3842366   0.3763154   0.3790348  )
        73           C   tau(  73) = (   0.6304193   0.4855280   0.1125657  )
        74           C   tau(  74) = (   0.8695807   0.0865661   0.3187815  )
        75           C   tau(  75) = (   0.1304193   0.7113577   0.1125657  )
        76           C   tau(  76) = (   0.3695807   0.3123958   0.3187815  )
        77           C   tau(  77) = (   0.5842037   0.5613735   0.1153055  )
        78           C   tau(  78) = (   0.9157963   0.1624116   0.3215213  )
        79           C   tau(  79) = (   0.0842037   0.6355123   0.1153055  )
        80           C   tau(  80) = (   0.4157963   0.2365504   0.3215213  )
        81           H   tau(  81) = (   0.2847072   0.6476545   0.3230264  )
        82           H   tau(  82) = (   0.2152928   0.2486926   0.1168107  )
        83           H   tau(  83) = (   0.7847072   0.5492313   0.3230264  )
        84           H   tau(  84) = (   0.7152928   0.1502694   0.1168107  )
        85           H   tau(  85) = (   0.1722544   0.5330539   0.3349802  )
        86           H   tau(  86) = (   0.3277456   0.1340920   0.1287644  )
        87           H   tau(  87) = (   0.6722544   0.6638318   0.3349802  )
        88           H   tau(  88) = (   0.8277456   0.2648699   0.1287644  )
        89           H   tau(  89) = (   0.1656959   0.4188995   0.2263555  )
        90           H   tau(  90) = (   0.3343041   0.0199376   0.0201398  )
        91           H   tau(  91) = (   0.6656959   0.7779863   0.2263555  )
        92           H   tau(  92) = (   0.8343041   0.3790243   0.0201398  )
        93           H   tau(  93) = (   0.2638490   0.4205488   0.1021004  )
        94           H   tau(  94) = (   0.2361510   0.0215869   0.3083161  )
        95           H   tau(  95) = (   0.7638490   0.7763370   0.1021004  )
        96           H   tau(  96) = (   0.7361510   0.3773750   0.3083161  )
        97           H   tau(  97) = (   0.3718481   0.5377514   0.0874620  )
        98           H   tau(  98) = (   0.1281519   0.1387895   0.2936778  )
        99           H   tau(  99) = (   0.8718481   0.6591343   0.0874620  )
       100           H   tau( 100) = (   0.6281519   0.2601724   0.2936778  )
       101           H   tau( 101) = (   0.4648035   0.5214111   0.2936904  )
       102           H   tau( 102) = (   0.0351965   0.1224491   0.0874746  )
       103           H   tau( 103) = (   0.9648035   0.6754747   0.2936904  )
       104           H   tau( 104) = (   0.5351965   0.2765128   0.0874746  )
       105           H   tau( 105) = (   0.5439518   0.3842409   0.2847792  )
       106           H   tau( 106) = (   0.9560482   0.7832029   0.0785634  )
       107           H   tau( 107) = (   0.0439518   0.0147210   0.2847792  )
       108           H   tau( 108) = (   0.4560482   0.4136829   0.0785634  )
       109           H   tau( 109) = (   0.6521368   0.3625082   0.1694990  )
       110           H   tau( 110) = (   0.8478632   0.7614701   0.3757148  )
       111           H   tau( 111) = (   0.1521368   0.0364537   0.1694990  )
       112           H   tau( 112) = (   0.3478632   0.4354156   0.3757148  )
       113           H   tau( 113) = (   0.6779537   0.4759823   0.0629241  )
       114           H   tau( 114) = (   0.8220463   0.0770204   0.2691399  )
       115           H   tau( 115) = (   0.1779537   0.7209034   0.0629241  )
       116           H   tau( 116) = (   0.3220463   0.3219415   0.2691399  )
       117           H   tau( 117) = (   0.5929623   0.6118940   0.0684723  )
       118           H   tau( 118) = (   0.9070377   0.2129320   0.2746881  )
       119           H   tau( 119) = (   0.0929623   0.5849918   0.0684723  )
       120           H   tau( 120) = (   0.4070377   0.1860299   0.2746881  )

     number of k points=     8
                       cart. coord. in units 2pi/alat
        k(    1) = (   0.0000000   0.0000000   0.0000000), wk =   0.1666667
        k(    2) = (   0.0000000   0.0000000   0.8082149), wk =   0.3333333
        k(    3) = (   0.0000000  -0.6266262   0.0000000), wk =   0.1666667
        k(    4) = (   0.0000000  -0.6266262   0.8082149), wk =   0.3333333
        k(    5) = (  -0.5000000   0.0000000   0.0000000), wk =   0.1666667
        k(    6) = (  -0.5000000   0.0000000   0.8082149), wk =   0.3333333
        k(    7) = (  -0.5000000  -0.6266262   0.0000000), wk =   0.1666667
        k(    8) = (  -0.5000000  -0.6266262   0.8082149), wk =   0.3333333

     Dense  grid:  1161267 G-vectors     FFT dimensions: ( 192, 160,  80)

     Estimated max dynamical RAM per process >    1421.09MB

     Estimated total allocated dynamical RAM >   11368.72MB

     Check: negative/imaginary core charge=   -0.000002    0.000000

     Initial potential from superposition of free atoms

     starting charge  391.99727, renormalised to  392.00000
     Starting wfc are  360 randomized atomic wfcs
     Checking if some PAW data can be deallocated... 

     total cpu time spent up to now is       91.6 secs

     per-process dynamical memory:   939.6 Mb

     Self-consistent Calculation

     iteration #  1     ecut=   100.00 Ry     beta=0.50
     Davidson diagonalization with overlap
     ethr =  1.00E-02,  avg # of iterations =  4.0

     total cpu time spent up to now is      374.2 secs

     total energy              =   -1846.39806136 Ry
     Harris-Foulkes estimate   =   -1853.17671027 Ry
     estimated scf accuracy    <      12.74920981 Ry

     iteration #  2     ecut=   100.00 Ry     beta=0.50
     Davidson diagonalization with overlap
     ethr =  3.25E-03,  avg # of iterations =  2.1

     total cpu time spent up to now is      517.2 secs

     total energy              =   -1846.57707740 Ry
     Harris-Foulkes estimate   =   -1847.92772296 Ry
     estimated scf accuracy    <       2.55203723 Ry

     iteration #  3     ecut=   100.00 Ry     beta=0.50
     Davidson diagonalization with overlap
     ethr =  6.51E-04,  avg # of iterations =  7.1

     total cpu time spent up to now is      860.8 secs

     total energy              =   -1848.39753606 Ry
     Harris-Foulkes estimate   =   -1849.32027245 Ry
     estimated scf accuracy    <       2.37679851 Ry

     iteration #  4     ecut=   100.00 Ry     beta=0.50
     Davidson diagonalization with overlap
     ethr =  6.06E-04,  avg # of iterations =  2.0

     total cpu time spent up to now is     1000.4 secs

     total energy              =   -1848.22675029 Ry
     Harris-Foulkes estimate   =   -1848.56546269 Ry
     estimated scf accuracy    <       0.66077017 Ry

     iteration #  5     ecut=   100.00 Ry     beta=0.50
     Davidson diagonalization with overlap
     ethr =  1.69E-04,  avg # of iterations =  8.2

     total cpu time spent up to now is     1297.1 secs

     total energy              =   -1848.62843099 Ry
     Harris-Foulkes estimate   =   -1848.70305977 Ry
     estimated scf accuracy    <       0.33000555 Ry

     iteration #  6     ecut=   100.00 Ry     beta=0.50
     Davidson diagonalization with overlap
     ethr =  8.42E-05,  avg # of iterations =  2.0

     total cpu time spent up to now is     1440.0 secs

     total energy              =   -1848.58671835 Ry
     Harris-Foulkes estimate   =   -1848.66481872 Ry
     estimated scf accuracy    <       0.16997638 Ry

     iteration #  7     ecut=   100.00 Ry     beta=0.50
     Davidson diagonalization with overlap
     ethr =  4.34E-05,  avg # of iterations =  3.4

     total cpu time spent up to now is     1585.6 secs

     total energy              =   -1848.58476313 Ry
     Harris-Foulkes estimate   =   -1848.60329647 Ry
     estimated scf accuracy    <       0.03273692 Ry

     iteration #  8     ecut=   100.00 Ry     beta=0.50
     Davidson diagonalization with overlap
     ethr =  8.35E-06,  avg # of iterations =  7.1

     total cpu time spent up to now is     1913.1 secs

     total energy              =   -1848.61733328 Ry
     Harris-Foulkes estimate   =   -1848.62853906 Ry
     estimated scf accuracy    <       0.02798704 Ry

     iteration #  9     ecut=   100.00 Ry     beta=0.50
     Davidson diagonalization with overlap
     c_bands:  2 eigenvalues not converged
     c_bands:  2 eigenvalues not converged
     c_bands:  1 eigenvalues not converged
     ethr =  7.14E-06,  avg # of iterations = 11.1

     total cpu time spent up to now is     2074.5 secs

     total energy              =   -1848.61445865 Ry
     Harris-Foulkes estimate   =   -1848.61866056 Ry
     estimated scf accuracy    <       0.00857184 Ry

     iteration # 10     ecut=   100.00 Ry     beta=0.50
     Davidson diagonalization with overlap
     ethr =  2.19E-06,  avg # of iterations = 12.0

     total cpu time spent up to now is     2386.2 secs

     total energy              =   -1848.61955542 Ry
     Harris-Foulkes estimate   =   -1848.62008632 Ry
     estimated scf accuracy    <       0.00167498 Ry

     iteration # 11     ecut=   100.00 Ry     beta=0.50
     Davidson diagonalization with overlap
     ethr =  4.27E-07,  avg # of iterations =  1.0

     total cpu time spent up to now is     2521.2 secs

     total energy              =   -1848.61927708 Ry
     Harris-Foulkes estimate   =   -1848.61962225 Ry
     estimated scf accuracy    <       0.00071273 Ry

     iteration # 12     ecut=   100.00 Ry     beta=0.50
     Davidson diagonalization with overlap
     ethr =  1.82E-07,  avg # of iterations =  4.0

     total cpu time spent up to now is     2747.6 secs

     total energy              =   -1848.61956652 Ry
     Harris-Foulkes estimate   =   -1848.61959411 Ry
     estimated scf accuracy    <       0.00004784 Ry

     iteration # 13     ecut=   100.00 Ry     beta=0.50
     Davidson diagonalization with overlap
     ethr =  1.22E-08,  avg # of iterations =  5.8

     total cpu time spent up to now is     2975.1 secs

     total energy              =   -1848.61958449 Ry
     Harris-Foulkes estimate   =   -1848.61958695 Ry
     estimated scf accuracy    <       0.00001060 Ry

     iteration # 14     ecut=   100.00 Ry     beta=0.50
     Davidson diagonalization with overlap
     ethr =  2.71E-09,  avg # of iterations =  2.9

     total cpu time spent up to now is     3118.6 secs

     total energy              =   -1848.61958238 Ry
     Harris-Foulkes estimate   =   -1848.61958519 Ry
     estimated scf accuracy    <       0.00000587 Ry

     iteration # 15     ecut=   100.00 Ry     beta=0.50
     Davidson diagonalization with overlap
     ethr =  1.50E-09,  avg # of iterations =  3.1

     total cpu time spent up to now is     3318.9 secs

     total energy              =   -1848.61958412 Ry
     Harris-Foulkes estimate   =   -1848.61958413 Ry
     estimated scf accuracy    <       0.00000011 Ry

     iteration # 16     ecut=   100.00 Ry     beta=0.50
     Davidson diagonalization with overlap
     ethr =  2.77E-11,  avg # of iterations =  5.0

     total cpu time spent up to now is     3650.9 secs

     total energy              =   -1848.61958423 Ry
     Harris-Foulkes estimate   =   -1848.61958429 Ry
     estimated scf accuracy    <       0.00000018 Ry

     iteration # 17     ecut=   100.00 Ry     beta=0.50
     Davidson diagonalization with overlap
     ethr =  2.77E-11,  avg # of iterations =  2.0

     total cpu time spent up to now is     3791.2 secs

     total energy              =   -1848.61958423 Ry
     Harris-Foulkes estimate   =   -1848.61958424 Ry
     estimated scf accuracy    <       0.00000005 Ry

     iteration # 18     ecut=   100.00 Ry     beta=0.50
     Davidson diagonalization with overlap
     ethr =  1.39E-11,  avg # of iterations =  4.4

     total cpu time spent up to now is     4004.2 secs

     End of self-consistent calculation

          k = 0.0000 0.0000 0.0000 (145211 PWs)   bands (ev):

   -23.6998 -23.6998 -23.6873 -23.6873 -21.2245 -21.2245 -21.2197 -21.2197
   -18.9992 -18.9978 -18.9964 -18.9955 -17.7637 -17.7628 -17.6493 -17.6480
   -16.2008 -16.2004 -16.1313 -16.1240 -15.3760 -15.3665 -15.3497 -15.3479
   -15.0133 -14.9736 -14.9637 -14.9256 -13.4415 -13.4127 -13.4085 -13.3994
   -12.7711 -12.7047 -12.6996 -12.6610 -12.4350 -12.4313 -12.4217 -12.4164
   -12.3809 -12.3720 -12.3579 -12.3422 -11.2620 -11.2473 -11.2367 -11.2242
   -10.9161 -10.8931 -10.8906 -10.8869 -10.1633 -10.1465 -10.1122 -10.0528
    -9.0759  -9.0639  -9.0518  -9.0339  -8.9009  -8.8845  -8.8788  -8.8570
    -8.5562  -8.5514  -8.5415  -8.5146  -8.1290  -8.0947  -8.0927  -8.0694
    -7.4935  -7.4721  -7.3973  -7.3957  -7.2246  -7.1929  -7.1687  -7.0977
    -7.0492  -7.0374  -7.0183  -6.9805  -6.1977  -6.1306  -5.7788  -5.7785
    -5.7622  -5.7577  -5.7562  -5.6612  -5.4309  -5.4171  -5.2635  -5.2271
    -5.0915  -5.0910  -5.0581  -5.0569  -4.9901  -4.9400  -4.8442  -4.8379
    -4.5575  -4.5421  -4.5000  -4.4791  -4.4772  -4.4128  -4.4122  -4.3629
    -4.3475  -4.3375  -4.2343  -4.2221  -4.1608  -4.1403  -4.1222  -4.1110
    -4.0584  -3.9861  -3.9264  -3.8310  -3.6747  -3.6319  -3.6202  -3.5963
    -3.5752  -3.5219  -3.4711  -3.4266  -3.1979  -3.1596  -2.9209  -2.9095
    -2.9087  -2.8719  -2.7792  -2.6860  -2.6533  -2.5773  -2.5596  -2.5528
    -2.4814  -2.4521  -2.4463  -2.4194  -2.3501  -2.2868  -2.2784  -2.2643
    -2.2487  -2.2028  -2.1883  -2.1505  -2.0657  -2.0600  -2.0137  -1.9599
    -1.9489  -1.8862  -1.6502  -1.5940  -1.4285  -1.3969  -1.3447  -1.3243
    -0.5828  -0.5636  -0.5164  -0.4640  -0.4087  -0.4044  -0.3524  -0.3200
    -0.3056  -0.2276  -0.2194  -0.2177  -0.1251  -0.0991  -0.0971  -0.0819
     0.0218   0.0619   0.0809   0.0863   0.4789   0.5747   1.0280   1.0316
     1.9982   2.0154   2.0210   2.0318   3.1593   3.1702   3.1939   3.2349
     4.2693   4.2700   4.2859   4.3260   4.6151   4.6704   4.7529   4.7786
     4.7819   4.8046   4.8817   4.8888   4.9117   5.0407   5.0945   5.1912
     5.2163   5.2429   5.2665   5.3247   6.3894   6.5270   6.5757   6.6530
     6.8617   6.8948   6.9456   7.1007   7.3141   7.5832   7.7364   7.8613
     7.9776   7.9892   8.0295

          k = 0.0000 0.0000 0.8082 (145187 PWs)   bands (ev):

   -23.6960 -23.6959 -23.6897 -23.6897 -21.2250 -21.2250 -21.2226 -21.2226
   -18.9981 -18.9968 -18.9967 -18.9957 -17.7352 -17.7348 -17.6780 -17.6773
   -16.1834 -16.1816 -16.1486 -16.1434 -15.3707 -15.3659 -15.3477 -15.3468
   -14.9993 -14.9743 -14.9610 -14.9370 -13.4306 -13.4101 -13.4095 -13.4079
   -12.7553 -12.7195 -12.6970 -12.6753 -12.4404 -12.4346 -12.4329 -12.4286
   -12.3794 -12.3738 -12.3651 -12.3620 -11.2561 -11.2489 -11.2348 -11.2282
   -10.9115 -10.8999 -10.8891 -10.8877 -10.1446 -10.1212 -10.1197 -10.0742
    -9.0727  -9.0707  -9.0589  -9.0396  -8.9031  -8.8841  -8.8809  -8.8745
    -8.5453  -8.5435  -8.5377  -8.5237  -8.0989  -8.0766  -8.0741  -8.0738
    -7.4661  -7.4430  -7.4239  -7.3939  -7.1542  -7.1133  -7.0869  -7.0763
    -7.0580  -7.0344  -7.0067  -6.9938  -6.1018  -6.0412  -5.8943  -5.8335
    -5.7561  -5.7463  -5.7111  -5.6889  -5.4234  -5.3791  -5.3469  -5.2845
    -5.0974  -5.0961  -5.0809  -5.0802  -4.9495  -4.9160  -4.8596  -4.8584
    -4.6216  -4.6008  -4.5963  -4.5711  -4.4358  -4.4054  -4.3785  -4.3201
    -4.2570  -4.2527  -4.2424  -4.2082  -4.1802  -4.1756  -4.1283  -4.1201
    -4.0694  -3.9994  -3.9845  -3.9313  -3.7116  -3.6439  -3.6393  -3.5846
    -3.5755  -3.5147  -3.4554  -3.4240  -3.1844  -3.1830  -2.9680  -2.9474
    -2.8757  -2.8747  -2.7693  -2.7369  -2.6770  -2.6140  -2.6082  -2.5625
    -2.4956  -2.4441  -2.3954  -2.3867  -2.3222  -2.3042  -2.2759  -2.2527
    -2.2504  -2.2467  -2.2040  -2.2016  -2.0449  -2.0117  -1.9690  -1.9494
    -1.9368  -1.8908  -1.8030  -1.7167  -1.4117  -1.3948  -1.3278  -1.3215
    -0.5528  -0.5354  -0.5162  -0.4595  -0.3426  -0.3325  -0.3111  -0.2756
    -0.2205  -0.1884  -0.1747  -0.1654  -0.1024  -0.1006  -0.0637  -0.0522
    -0.0007   0.0653   0.0818   0.0867   0.5914   0.6648   0.8634   0.8862
     2.0307   2.0434   2.0494   2.0509   3.1452   3.1487   3.1797   3.2034
     4.2571   4.2592   4.2676   4.2913   4.6230   4.6247   4.6675   4.6760
     4.8280   4.8491   4.9056   4.9656   5.0333   5.0844   5.1121   5.1241
     5.1783   5.1864   5.2345   5.2455   6.6427   6.6499   6.7144   6.8274
     6.8417   6.9623   6.9883   7.0061   7.3935   7.3990   7.5320   7.7736
     7.9549   7.9826   8.0435

          k = 0.0000-0.6266 0.0000 (145100 PWs)   bands (ev):

   -23.6998 -23.6998 -23.6873 -23.6873 -21.2245 -21.2245 -21.2197 -21.2197
   -18.9986 -18.9986 -18.9959 -18.9959 -17.7626 -17.7626 -17.6491 -17.6491
   -16.2066 -16.2066 -16.1226 -16.1226 -15.3713 -15.3713 -15.3480 -15.3480
   -15.0020 -15.0020 -14.9350 -14.9350 -13.4249 -13.4249 -13.4068 -13.4068
   -12.7476 -12.7476 -12.6752 -12.6752 -12.4308 -12.4308 -12.4178 -12.4178
   -12.3780 -12.3780 -12.3506 -12.3506 -11.2554 -11.2554 -11.2234 -11.2234
   -10.9149 -10.9149 -10.8898 -10.8898 -10.1277 -10.1277 -10.0926 -10.0926
    -9.0699  -9.0699  -9.0466  -9.0466  -8.8837  -8.8837  -8.8765  -8.8765
    -8.5650  -8.5650  -8.5356  -8.5356  -8.1336  -8.1336  -8.0396  -8.0396
    -7.5292  -7.5292  -7.3818  -7.3818  -7.2148  -7.2148  -7.1213  -7.1213
    -7.0397  -7.0397  -6.9919  -6.9919  -5.9876  -5.9876  -5.9535  -5.9535
    -5.7845  -5.7845  -5.7278  -5.7278  -5.3521  -5.3521  -5.2457  -5.2457
    -5.1285  -5.1285  -5.0641  -5.0641  -4.9856  -4.9856  -4.8203  -4.8203
    -4.5681  -4.5681  -4.5103  -4.5103  -4.4516  -4.4516  -4.3964  -4.3964
    -4.3412  -4.3412  -4.2121  -4.2121  -4.1169  -4.1169  -4.0651  -4.0651
    -3.9686  -3.9686  -3.9113  -3.9113  -3.6347  -3.6347  -3.6248  -3.6248
    -3.5575  -3.5575  -3.4384  -3.4384  -3.2171  -3.2171  -2.9272  -2.9272
    -2.9173  -2.9173  -2.7310  -2.7310  -2.5998  -2.5998  -2.5737  -2.5737
    -2.4734  -2.4734  -2.4451  -2.4451  -2.3534  -2.3534  -2.2600  -2.2600
    -2.2083  -2.2083  -2.1513  -2.1513  -2.0244  -2.0244  -1.9585  -1.9585
    -1.9145  -1.9145  -1.6717  -1.6717  -1.4063  -1.4063  -1.3299  -1.3299
    -0.5669  -0.5669  -0.5243  -0.5243  -0.4274  -0.4274  -0.2965  -0.2965
    -0.2603  -0.2603  -0.1785  -0.1785  -0.1368  -0.1368  -0.0606  -0.0606
     0.0078   0.0078   0.0659   0.0659   0.5434   0.5434   1.0292   1.0292
     2.0111   2.0111   2.0244   2.0244   3.1009   3.1009   3.2718   3.2718
     4.2755   4.2755   4.3079   4.3079   4.6310   4.6310   4.7474   4.7474
     4.8298   4.8298   4.8698   4.8698   4.9773   4.9773   5.1416   5.1416
     5.2471   5.2471   5.2732   5.2732   6.5478   6.5478   6.6148   6.6148
     6.7551   6.7551   6.9038   6.9038   7.6743   7.6743   7.8698   7.8698
     7.9581   7.9581   8.0575

          k = 0.0000-0.6266 0.8082 (145204 PWs)   bands (ev):

   -23.6959 -23.6959 -23.6897 -23.6897 -21.2250 -21.2250 -21.2226 -21.2226
   -18.9977 -18.9977 -18.9960 -18.9960 -17.7346 -17.7346 -17.6778 -17.6778
   -16.1861 -16.1861 -16.1439 -16.1439 -15.3683 -15.3683 -15.3469 -15.3469
   -14.9900 -14.9900 -14.9432 -14.9432 -13.4225 -13.4225 -13.4075 -13.4075
   -12.7441 -12.7441 -12.6860 -12.6860 -12.4333 -12.4333 -12.4277 -12.4277
   -12.3793 -12.3793 -12.3643 -12.3643 -11.2515 -11.2515 -11.2272 -11.2272
   -10.9118 -10.9118 -10.8908 -10.8908 -10.1283 -10.1283 -10.0879 -10.0879
    -9.0717  -9.0717  -9.0466  -9.0466  -8.9155  -8.9155  -8.8600  -8.8600
    -8.5526  -8.5526  -8.5369  -8.5369  -8.1010  -8.1010  -8.0499  -8.0499
    -7.4890  -7.4890  -7.4047  -7.4047  -7.1287  -7.1287  -7.0790  -7.0790
    -7.0367  -7.0367  -6.9988  -6.9988  -5.9564  -5.9564  -5.9109  -5.9109
    -5.7883  -5.7883  -5.7157  -5.7157  -5.4019  -5.4019  -5.3212  -5.3212
    -5.1138  -5.1138  -5.0806  -5.0806  -4.9485  -4.9485  -4.8540  -4.8540
    -4.6025  -4.6025  -4.5528  -4.5528  -4.4350  -4.4350  -4.3832  -4.3832
    -4.2981  -4.2981  -4.1979  -4.1979  -4.1538  -4.1538  -4.1020  -4.1020
    -3.9963  -3.9963  -3.9634  -3.9634  -3.6939  -3.6939  -3.6049  -3.6049
    -3.5575  -3.5575  -3.4384  -3.4384  -3.2122  -3.2122  -2.9209  -2.9209
    -2.9018  -2.9018  -2.7516  -2.7516  -2.6441  -2.6441  -2.5569  -2.5569
    -2.4885  -2.4885  -2.3937  -2.3937  -2.3336  -2.3336  -2.2879  -2.2879
    -2.2101  -2.2101  -2.1941  -2.1941  -2.0139  -2.0139  -1.9899  -1.9899
    -1.8911  -1.8911  -1.7646  -1.7646  -1.3980  -1.3980  -1.3253  -1.3253
    -0.5521  -0.5521  -0.4809  -0.4809  -0.3528  -0.3528  -0.2856  -0.2856
    -0.2415  -0.2415  -0.1705  -0.1705  -0.1018  -0.1018  -0.0474  -0.0474
     0.0423   0.0423   0.0969   0.0969   0.6309   0.6309   0.8792   0.8792
     2.0385   2.0385   2.0492   2.0492   3.1202   3.1202   3.2178   3.2178
     4.2587   4.2587   4.2706   4.2706   4.6435   4.6435   4.6985   4.6985
     4.8142   4.8142   4.9238   4.9238   5.0505   5.0505   5.1192   5.1192
     5.1903   5.1903   5.2330   5.2330   6.6392   6.6392   6.7331   6.7331
     6.8812   6.8812   7.0416   7.0416   7.3921   7.3921   7.6096   7.6097
     7.9297   7.9297   8.1098

          k =-0.5000 0.0000 0.0000 (145294 PWs)   bands (ev):

   -23.6998 -23.6998 -23.6873 -23.6873 -21.2245 -21.2245 -21.2197 -21.2197
   -18.9985 -18.9985 -18.9960 -18.9960 -17.7633 -17.7633 -17.6486 -17.6486
   -16.2006 -16.2006 -16.1276 -16.1276 -15.3647 -15.3647 -15.3563 -15.3563
   -14.9932 -14.9932 -14.9440 -14.9440 -13.4305 -13.4305 -13.4005 -13.4005
   -12.7395 -12.7395 -12.6790 -12.6790 -12.4336 -12.4336 -12.4187 -12.4187
   -12.3783 -12.3783 -12.3484 -12.3484 -11.2458 -11.2458 -11.2383 -11.2383
   -10.9066 -10.9066 -10.8867 -10.8867 -10.1571 -10.1571 -10.0811 -10.0811
    -9.0719  -9.0719  -9.0405  -9.0405  -8.8969  -8.8969  -8.8641  -8.8641
    -8.5514  -8.5514  -8.5302  -8.5302  -8.1187  -8.1187  -8.0743  -8.0743
    -7.4834  -7.4834  -7.3975  -7.3975  -7.1980  -7.1980  -7.1515  -7.1515
    -7.0395  -7.0395  -6.9941  -6.9941  -6.1642  -6.1642  -5.7783  -5.7783
    -5.7655  -5.7655  -5.7040  -5.7040  -5.4267  -5.4267  -5.2404  -5.2404
    -5.0913  -5.0913  -5.0586  -5.0586  -4.9710  -4.9710  -4.8364  -4.8364
    -4.5470  -4.5470  -4.4958  -4.4958  -4.4475  -4.4475  -4.3879  -4.3879
    -4.3434  -4.3434  -4.2221  -4.2221  -4.1458  -4.1458  -4.1141  -4.1141
    -4.0479  -4.0479  -3.8533  -3.8533  -3.6765  -3.6765  -3.5775  -3.5775
    -3.5460  -3.5460  -3.4952  -3.4952  -3.0571  -3.0571  -3.0124  -3.0124
    -2.8471  -2.8471  -2.7967  -2.7967  -2.5918  -2.5918  -2.5244  -2.5244
    -2.5105  -2.5105  -2.4437  -2.4437  -2.3273  -2.3273  -2.2512  -2.2512
    -2.2146  -2.2146  -2.1677  -2.1677  -2.0609  -2.0609  -1.9706  -1.9706
    -1.9277  -1.9277  -1.6345  -1.6345  -1.4012  -1.4012  -1.3502  -1.3502
    -0.5598  -0.5598  -0.4774  -0.4774  -0.4060  -0.4060  -0.3272  -0.3272
    -0.2873  -0.2873  -0.2178  -0.2178  -0.1184  -0.1184  -0.0712  -0.0712
     0.0282   0.0282   0.0827   0.0827   0.5225   0.5225   1.0310   1.0310
     2.0065   2.0065   2.0269   2.0269   3.1761   3.1761   3.2039   3.2039
     4.2692   4.2692   4.3035   4.3035   4.6445   4.6445   4.7584   4.7584
     4.8244   4.8244   4.8529   4.8529   4.9629   4.9629   5.1609   5.1609
     5.2280   5.2280   5.3048   5.3048   6.4601   6.4601   6.6002   6.6002
     6.8801   6.8801   7.0413   7.0413   7.3911   7.3911   7.8260   7.8260
     8.0431   8.0434   8.0875

          k =-0.5000 0.0000 0.8082 (145144 PWs)   bands (ev):

   -23.6959 -23.6959 -23.6897 -23.6897 -21.2250 -21.2250 -21.2226 -21.2226
   -18.9975 -18.9975 -18.9962 -18.9962 -17.7350 -17.7350 -17.6777 -17.6777
   -16.1825 -16.1825 -16.1460 -16.1460 -15.3604 -15.3604 -15.3561 -15.3561
   -14.9799 -14.9799 -14.9552 -14.9552 -13.4220 -13.4220 -13.4069 -13.4069
   -12.7271 -12.7271 -12.6969 -12.6969 -12.4387 -12.4387 -12.4295 -12.4295
   -12.3773 -12.3773 -12.3631 -12.3631 -11.2434 -11.2434 -11.2394 -11.2394
   -10.9023 -10.9023 -10.8919 -10.8919 -10.1341 -10.1341 -10.0963 -10.0963
    -9.0698  -9.0698  -9.0520  -9.0520  -8.8949  -8.8949  -8.8759  -8.8759
    -8.5420  -8.5420  -8.5324  -8.5324  -8.0907  -8.0907  -8.0712  -8.0712
    -7.4561  -7.4561  -7.4072  -7.4072  -7.1288  -7.1288  -7.0907  -7.0907
    -7.0441  -7.0441  -6.9987  -6.9987  -6.0699  -6.0699  -5.8627  -5.8627
    -5.7441  -5.7441  -5.7170  -5.7170  -5.3982  -5.3982  -5.3096  -5.3096
    -5.0975  -5.0975  -5.0801  -5.0801  -4.9360  -4.9360  -4.8563  -4.8563
    -4.6176  -4.6176  -4.5771  -4.5771  -4.4251  -4.4251  -4.3470  -4.3470
    -4.2673  -4.2673  -4.2197  -4.2197  -4.1747  -4.1747  -4.1018  -4.1018
    -4.0632  -4.0632  -3.9469  -3.9469  -3.6973  -3.6973  -3.5998  -3.5998
    -3.5379  -3.5379  -3.4729  -3.4729  -3.0444  -3.0444  -3.0277  -3.0277
    -2.8585  -2.8585  -2.8356  -2.8356  -2.6359  -2.6359  -2.5753  -2.5753
    -2.4569  -2.4569  -2.4315  -2.4315  -2.3049  -2.3049  -2.2463  -2.2463
    -2.2238  -2.2238  -2.2138  -2.2138  -2.0203  -2.0203  -1.9605  -1.9605
    -1.9184  -1.9184  -1.7622  -1.7622  -1.3839  -1.3839  -1.3582  -1.3582
    -0.5178  -0.5178  -0.4874  -0.4874  -0.3320  -0.3320  -0.2939  -0.2939
    -0.2169  -0.2169  -0.1684  -0.1684  -0.1098  -0.1098  -0.0552  -0.0552
     0.0354   0.0354   0.0791   0.0791   0.6258   0.6258   0.8750   0.8750
     2.0370   2.0370   2.0505   2.0505   3.1616   3.1616   3.1778   3.1778
     4.2575   4.2575   4.2791   4.2791   4.6174   4.6174   4.6773   4.6773
     4.8412   4.8412   4.9341   4.9341   5.0501   5.0501   5.1340   5.1340
     5.1823   5.1823   5.2350   5.2350   6.6477   6.6477   6.7551   6.7551
     6.9174   6.9174   6.9939   6.9939   7.3905   7.3905   7.6435   7.6435
     7.9504   7.9505   8.0593

          k =-0.5000-0.6266 0.0000 (145196 PWs)   bands (ev):

   -23.6998 -23.6998 -23.6873 -23.6873 -21.2245 -21.2245 -21.2197 -21.2197
   -18.9985 -18.9985 -18.9960 -18.9960 -17.7626 -17.7626 -17.6491 -17.6491
   -16.2065 -16.2065 -16.1226 -16.1226 -15.3629 -15.3629 -15.3573 -15.3573
   -14.9951 -14.9951 -14.9410 -14.9410 -13.4234 -13.4234 -13.4082 -13.4082
   -12.7364 -12.7364 -12.6870 -12.6870 -12.4299 -12.4299 -12.4191 -12.4191
   -12.3777 -12.3777 -12.3508 -12.3508 -11.2518 -11.2518 -11.2259 -11.2259
   -10.9113 -10.9113 -10.8934 -10.8934 -10.1116 -10.1116 -10.1094 -10.1094
    -9.0692  -9.0692  -9.0469  -9.0469  -8.8845  -8.8845  -8.8765  -8.8765
    -8.5573  -8.5573  -8.5431  -8.5431  -8.1321  -8.1321  -8.0405  -8.0405
    -7.5297  -7.5297  -7.3814  -7.3814  -7.2150  -7.2150  -7.1183  -7.1183
    -7.0405  -7.0405  -6.9940  -6.9940  -5.9770  -5.9770  -5.9600  -5.9600
    -5.7678  -5.7678  -5.7551  -5.7551  -5.3383  -5.3383  -5.2479  -5.2479
    -5.1278  -5.1278  -5.0688  -5.0688  -4.9847  -4.9847  -4.8237  -4.8237
    -4.5690  -4.5690  -4.5080  -4.5080  -4.4304  -4.4304  -4.4291  -4.4291
    -4.3381  -4.3381  -4.2097  -4.2097  -4.1143  -4.1143  -4.0646  -4.0646
    -3.9565  -3.9565  -3.9229  -3.9229  -3.6312  -3.6312  -3.6207  -3.6207
    -3.5269  -3.5269  -3.5099  -3.5099  -3.1035  -3.1035  -3.0278  -3.0278
    -2.8410  -2.8410  -2.8143  -2.8143  -2.5782  -2.5782  -2.5396  -2.5396
    -2.4977  -2.4977  -2.4661  -2.4661  -2.3155  -2.3155  -2.2830  -2.2830
    -2.2163  -2.2163  -2.1458  -2.1458  -1.9890  -1.9890  -1.9827  -1.9827
    -1.9258  -1.9258  -1.6582  -1.6582  -1.3830  -1.3830  -1.3729  -1.3729
    -0.5520  -0.5520  -0.5144  -0.5144  -0.4160  -0.4160  -0.2991  -0.2991
    -0.2663  -0.2663  -0.1642  -0.1642  -0.1593  -0.1593  -0.0613  -0.0613
     0.0157   0.0157   0.0556   0.0556   0.5395   0.5395   1.0286   1.0286
     2.0115   2.0115   2.0241   2.0241   3.1058   3.1058   3.2679   3.2679
     4.2761   4.2761   4.3042   4.3042   4.6433   4.6433   4.7600   4.7600
     4.8187   4.8187   4.8517   4.8517   4.9724   4.9724   5.1566   5.1566
     5.2496   5.2496   5.2694   5.2694   6.5484   6.5484   6.6094   6.6094
     6.7759   6.7759   6.8997   6.8997   7.6339   7.6339   7.8339   7.8339
     8.0355   8.0398   8.0399

          k =-0.5000-0.6266 0.8082 (145188 PWs)   bands (ev):

   -23.6959 -23.6959 -23.6897 -23.6897 -21.2250 -21.2250 -21.2226 -21.2226
   -18.9975 -18.9974 -18.9962 -18.9962 -17.7349 -17.7343 -17.6782 -17.6775
   -16.1871 -16.1849 -16.1453 -16.1427 -15.3601 -15.3588 -15.3583 -15.3550
   -14.9818 -14.9778 -14.9537 -14.9517 -13.4224 -13.4152 -13.4149 -13.4073
   -12.7292 -12.7262 -12.7035 -12.7027 -12.4339 -12.4323 -12.4320 -12.4235
   -12.3790 -12.3786 -12.3698 -12.3602 -11.2459 -11.2448 -11.2338 -11.2309
   -10.9099 -10.9020 -10.9006 -10.8930 -10.1185 -10.1166 -10.0993 -10.0993
    -9.0679  -9.0634  -9.0611  -9.0459  -8.9209  -8.9006  -8.8694  -8.8587
    -8.5588  -8.5468  -8.5388  -8.5342  -8.1060  -8.0890  -8.0663  -8.0402
    -7.5105  -7.4592  -7.4120  -7.4046  -7.1325  -7.1143  -7.0981  -7.0658
    -7.0428  -7.0263  -7.0125  -6.9951  -5.9375  -5.9341  -5.9331  -5.9174
    -5.7892  -5.7797  -5.7459  -5.7200  -5.4073  -5.3589  -5.3486  -5.3157
    -5.1140  -5.1112  -5.0832  -5.0810  -4.9473  -4.9444  -4.8607  -4.8517
    -4.6122  -4.5850  -4.5766  -4.5451  -4.4406  -4.4330  -4.3913  -4.3505
    -4.3203  -4.2732  -4.2300  -4.1906  -4.1399  -4.1344  -4.1330  -4.0829
    -4.0183  -3.9976  -3.9654  -3.9587  -3.7041  -3.6473  -3.6419  -3.5995
    -3.5467  -3.5445  -3.5030  -3.4660  -3.0786  -3.0770  -3.0565  -3.0261
    -2.8553  -2.8400  -2.8150  -2.8065  -2.6138  -2.6024  -2.5921  -2.5297
    -2.4671  -2.4621  -2.4608  -2.4607  -2.3301  -2.2982  -2.2661  -2.2571
    -2.2556  -2.2114  -2.1753  -2.1700  -2.0117  -2.0010  -1.9957  -1.9880
    -1.9122  -1.8816  -1.7764  -1.7635  -1.3719  -1.3718  -1.3701  -1.3574
    -0.5210  -0.5084  -0.5060  -0.4822  -0.3623  -0.3301  -0.2879  -0.2850
    -0.2581  -0.2075  -0.1989  -0.1723  -0.1071  -0.1010  -0.0725  -0.0290
     0.0342   0.0635   0.0764   0.0941   0.6223   0.6389   0.8672   0.8872
     2.0372   2.0431   2.0434   2.0524   3.1173   3.1372   3.1975   3.2258
     4.2474   4.2517   4.2707   4.2891   4.6210   4.6679   4.6898   4.7014
     4.7957   4.8492   4.8885   4.9432   5.0556   5.0562   5.1210   5.1282
     5.1749   5.1935   5.2227   5.2376   6.6411   6.6559   6.6671   6.8272
     6.8354   6.9005   6.9872   7.0792   7.3178   7.4782   7.5880   7.6758
     7.8673   7.9772   8.0228

     highest occupied, lowest unoccupied level (ev):     2.0524    3.1009

!    total energy              =   -1848.61958424 Ry
     Harris-Foulkes estimate   =   -1848.61958424 Ry
     estimated scf accuracy    <          6.3E-09 Ry

     total all-electron energy =     -7238.911481 Ry

     The total energy is the sum of the following terms:

     one-electron contribution =   -1219.09016150 Ry
     hartree contribution      =     752.59972733 Ry
     xc contribution           =    -401.71933110 Ry
     ewald contribution        =    -397.00404970 Ry
     Dispersion Correction     =      -0.55307113 Ry
     one-center paw contrib.   =    -582.85269814 Ry

     convergence has been achieved in  18 iterations

     Forces acting on atoms (cartesian axes, Ry/au):

     atom    1 type  1   force =     0.00091925    0.00016203    0.00256599
     atom    2 type  1   force =    -0.00091925    0.00016203    0.00256599
     atom    3 type  1   force =     0.00091925   -0.00016203    0.00256599
     atom    4 type  1   force =    -0.00091925   -0.00016203    0.00256599
     atom    5 type  2   force =    -0.00018531   -0.00104628   -0.00105420
     atom    6 type  2   force =     0.00018531   -0.00104628   -0.00105420
     atom    7 type  2   force =    -0.00018531    0.00104628   -0.00105420
     atom    8 type  2   force =     0.00018531    0.00104628   -0.00105420
     atom    9 type  2   force =     0.00056751    0.00052853    0.00013085
     atom   10 type  2   force =    -0.00056751    0.00052853    0.00013085
     atom   11 type  2   force =     0.00056751   -0.00052853    0.00013085
     atom   12 type  2   force =    -0.00056751   -0.00052853    0.00013085
     atom   13 type  2   force =    -0.00089076   -0.00266786    0.00036051
     atom   14 type  2   force =     0.00089076   -0.00266786    0.00036051
     atom   15 type  2   force =    -0.00089076    0.00266786    0.00036051
     atom   16 type  2   force =     0.00089076    0.00266786    0.00036051
     atom   17 type  2   force =     0.00249539    0.00139059   -0.00131601
     atom   18 type  2   force =    -0.00249539    0.00139059   -0.00131601
     atom   19 type  2   force =     0.00249539   -0.00139059   -0.00131601
     atom   20 type  2   force =    -0.00249539   -0.00139059   -0.00131601
     atom   21 type  2   force =    -0.00286620   -0.00095233   -0.00148177
     atom   22 type  2   force =     0.00286620   -0.00095233   -0.00148177
     atom   23 type  2   force =    -0.00286620    0.00095233   -0.00148177
     atom   24 type  2   force =     0.00286620    0.00095233   -0.00148177
     atom   25 type  2   force =     0.00398162   -0.00243118    0.00259299
     atom   26 type  2   force =    -0.00398162   -0.00243118    0.00259299
     atom   27 type  2   force =     0.00398162    0.00243118    0.00259299
     atom   28 type  2   force =    -0.00398162    0.00243118    0.00259299
     atom   29 type  4   force =    -0.00035905    0.00349632   -0.00124506
     atom   30 type  4   force =     0.00035905    0.00349632   -0.00124506
     atom   31 type  4   force =    -0.00035905   -0.00349632   -0.00124506
     atom   32 type  4   force =     0.00035905   -0.00349632   -0.00124506
     atom   33 type  1   force =     0.00052025   -0.00045110   -0.00070770
     atom   34 type  1   force =    -0.00052025   -0.00045110   -0.00070770
     atom   35 type  1   force =     0.00052025    0.00045110   -0.00070770
     atom   36 type  1   force =    -0.00052025    0.00045110   -0.00070770
     atom   37 type  1   force =    -0.00149063   -0.00184664    0.00014225
     atom   38 type  1   force =     0.00149063   -0.00184664    0.00014225
     atom   39 type  1   force =    -0.00149063    0.00184664    0.00014225
     atom   40 type  1   force =     0.00149063    0.00184664    0.00014225
     atom   41 type  1   force =     0.00272475    0.00104634   -0.00139452
     atom   42 type  1   force =    -0.00272475    0.00104634   -0.00139452
     atom   43 type  1   force =     0.00272475   -0.00104634   -0.00139452
     atom   44 type  1   force =    -0.00272475   -0.00104634   -0.00139452
     atom   45 type  1   force =    -0.00111266   -0.00001660    0.00033787
     atom   46 type  1   force =     0.00111266   -0.00001660    0.00033787
     atom   47 type  1   force =    -0.00111266    0.00001660    0.00033787
     atom   48 type  1   force =     0.00111266    0.00001660    0.00033787
     atom   49 type  1   force =     0.00196123    0.00228565   -0.00101320
     atom   50 type  1   force =    -0.00196123    0.00228565   -0.00101320
     atom   51 type  1   force =     0.00196123   -0.00228565   -0.00101320
     atom   52 type  1   force =    -0.00196123   -0.00228565   -0.00101320
     atom   53 type  1   force =    -0.00166855   -0.00092467    0.00219186
     atom   54 type  1   force =     0.00166855   -0.00092467    0.00219186
     atom   55 type  1   force =    -0.00166855    0.00092467    0.00219186
     atom   56 type  1   force =     0.00166855    0.00092467    0.00219186
     atom   57 type  1   force =    -0.00011978    0.00050462    0.00054017
     atom   58 type  1   force =     0.00011978    0.00050462    0.00054017
     atom   59 type  1   force =    -0.00011978   -0.00050462    0.00054017
     atom   60 type  1   force =     0.00011978   -0.00050462    0.00054017
     atom   61 type  1   force =     0.00009964   -0.00180565   -0.00080389
     atom   62 type  1   force =    -0.00009964   -0.00180565   -0.00080389
     atom   63 type  1   force =     0.00009964    0.00180565   -0.00080389
     atom   64 type  1   force =    -0.00009964    0.00180565   -0.00080389
     atom   65 type  1   force =    -0.00106079    0.00223695   -0.00026385
     atom   66 type  1   force =     0.00106079    0.00223695   -0.00026385
     atom   67 type  1   force =    -0.00106079   -0.00223695   -0.00026385
     atom   68 type  1   force =     0.00106079   -0.00223695   -0.00026385
     atom   69 type  1   force =     0.00068708    0.00027424    0.00052189
     atom   70 type  1   force =    -0.00068708    0.00027424    0.00052189
     atom   71 type  1   force =     0.00068708   -0.00027424    0.00052189
     atom   72 type  1   force =    -0.00068708   -0.00027424    0.00052189
     atom   73 type  1   force =    -0.00150434    0.00182989    0.00076591
     atom   74 type  1   force =     0.00150434    0.00182989    0.00076591
     atom   75 type  1   force =    -0.00150434   -0.00182989    0.00076591
     atom   76 type  1   force =     0.00150434   -0.00182989    0.00076591
     atom   77 type  1   force =     0.00139985   -0.00076925    0.00002998
     atom   78 type  1   force =    -0.00139985   -0.00076925    0.00002998
     atom   79 type  1   force =     0.00139985    0.00076925    0.00002998
     atom   80 type  1   force =    -0.00139985    0.00076925    0.00002998
     atom   81 type  3   force =     0.00031890    0.00055714    0.00007983
     atom   82 type  3   force =    -0.00031890    0.00055714    0.00007983
     atom   83 type  3   force =     0.00031890   -0.00055714    0.00007983
     atom   84 type  3   force =    -0.00031890   -0.00055714    0.00007983
     atom   85 type  3   force =    -0.00005970   -0.00114134    0.00052334
     atom   86 type  3   force =     0.00005970   -0.00114134    0.00052334
     atom   87 type  3   force =    -0.00005970    0.00114134    0.00052334
     atom   88 type  3   force =     0.00005970    0.00114134    0.00052334
     atom   89 type  3   force =    -0.00012170   -0.00009045   -0.00011338
     atom   90 type  3   force =     0.00012170   -0.00009045   -0.00011338
     atom   91 type  3   force =    -0.00012170    0.00009045   -0.00011338
     atom   92 type  3   force =     0.00012170    0.00009045   -0.00011338
     atom   93 type  3   force =    -0.00050532   -0.00024950   -0.00004146
     atom   94 type  3   force =     0.00050532   -0.00024950   -0.00004146
     atom   95 type  3   force =    -0.00050532    0.00024950   -0.00004146
     atom   96 type  3   force =     0.00050532    0.00024950   -0.00004146
     atom   97 type  3   force =    -0.00079000    0.00130478   -0.00060287
     atom   98 type  3   force =     0.00079000    0.00130478   -0.00060287
     atom   99 type  3   force =    -0.00079000   -0.00130478   -0.00060287
     atom  100 type  3   force =     0.00079000   -0.00130478   -0.00060287
     atom  101 type  3   force =     0.00039613   -0.00059637   -0.00016209
     atom  102 type  3   force =    -0.00039613   -0.00059637   -0.00016209
     atom  103 type  3   force =     0.00039613    0.00059637   -0.00016209
     atom  104 type  3   force =    -0.00039613    0.00059637   -0.00016209
     atom  105 type  3   force =     0.00046471   -0.00028026   -0.00008485
     atom  106 type  3   force =    -0.00046471   -0.00028026   -0.00008485
     atom  107 type  3   force =     0.00046471    0.00028026   -0.00008485
     atom  108 type  3   force =    -0.00046471    0.00028026   -0.00008485
     atom  109 type  3   force =     0.00023486   -0.00022281   -0.00041204
     atom  110 type  3   force =    -0.00023486   -0.00022281   -0.00041204
     atom  111 type  3   force =     0.00023486    0.00022281   -0.00041204
     atom  112 type  3   force =    -0.00023486    0.00022281   -0.00041204
     atom  113 type  3   force =    -0.00030631   -0.00062278   -0.00035544
     atom  114 type  3   force =     0.00030631   -0.00062278   -0.00035544
     atom  115 type  3   force =    -0.00030631    0.00062278   -0.00035544
     atom  116 type  3   force =     0.00030631    0.00062278   -0.00035544
     atom  117 type  3   force =    -0.00011671   -0.00040350    0.00026891
     atom  118 type  3   force =     0.00011671   -0.00040350    0.00026891
     atom  119 type  3   force =    -0.00011671    0.00040350    0.00026891
     atom  120 type  3   force =     0.00011671    0.00040350    0.00026891

     Total force =     0.024183     Total SCF correction =     0.000193


     Computing stress (Cartesian axis) and pressure

          total   stress  (Ry/bohr**3)                   (kbar)     P=   -5.44
  -0.00003071   0.00000000   0.00000000         -4.52      0.00      0.00
   0.00000000  -0.00004931   0.00000000          0.00     -7.25      0.00
   0.00000000   0.00000000  -0.00003093          0.00      0.00     -4.55


     Writing output data file scf.save
 
     init_run     :     87.61s CPU     90.88s WALL (       1 calls)
     electrons    :   3782.52s CPU   3912.80s WALL (       1 calls)
     forces       :     41.69s CPU     42.02s WALL (       1 calls)
     stress       :    207.24s CPU    207.82s WALL (       1 calls)

     Called by init_run:
     wfcinit      :     79.91s CPU     82.91s WALL (       1 calls)
     potinit      :      2.70s CPU      2.76s WALL (       1 calls)

     Called by electrons:
     c_bands      :   3462.28s CPU   3573.17s WALL (      18 calls)
     sum_band     :    301.00s CPU    318.09s WALL (      18 calls)
     v_of_rho     :      2.91s CPU      3.21s WALL (      19 calls)
     newd         :      7.19s CPU      9.11s WALL (      19 calls)
     PAW_pot      :      8.56s CPU      8.56s WALL (      19 calls)
     mix_rho      :      0.68s CPU      0.74s WALL (      18 calls)

     Called by c_bands:
     init_us_2    :     14.90s CPU     14.97s WALL (     312 calls)
     cegterg      :   3400.45s CPU   3511.26s WALL (     144 calls)

     Called by sum_band:
     sum_band:bec :      0.17s CPU      0.17s WALL (     144 calls)
     addusdens    :      7.22s CPU      9.04s WALL (      18 calls)

     Called by *egterg:
     h_psi        :   1672.12s CPU   1761.04s WALL (     850 calls)
     s_psi        :    454.88s CPU    454.96s WALL (     850 calls)
     g_psi        :      7.43s CPU      7.44s WALL (     698 calls)
     cdiaghg      :    212.38s CPU    212.42s WALL (     842 calls)

     Called by h_psi:
     h_psi:pot    :   1661.92s CPU   1750.68s WALL (     850 calls)
     h_psi:calbec :    443.40s CPU    444.04s WALL (     850 calls)
     vloc_psi     :    763.25s CPU    851.28s WALL (     850 calls)
     add_vuspsi   :    455.26s CPU    455.35s WALL (     850 calls)

     General routines
     calbec       :    632.24s CPU    633.15s WALL (    1034 calls)
     fft          :      1.77s CPU      2.30s WALL (     271 calls)
     fftw         :    809.05s CPU    911.81s WALL (  233604 calls)
 
     Parallel routines
     fft_scatter  :    164.91s CPU    265.62s WALL (  233875 calls)
 
     PWSCF        :     1h 8m CPU        1h12m WALL

 
   This run was terminated on:  13:36:12  13Nov2017            

=------------------------------------------------------------------------------=
   JOB DONE.
=------------------------------------------------------------------------------=
