
     Program PWSCF v.6.1 (svn rev. 13369) starts on 20Dec2017 at 16:32:44 

     This program is part of the open-source Quantum ESPRESSO suite
     for quantum simulation of materials; please cite
         "P. Giannozzi et al., J. Phys.:Condens. Matter 21 395502 (2009);
          URL http://www.quantum-espresso.org", 
     in publications or presentations arising from this work. More details at
     http://www.quantum-espresso.org/quote

     Parallel version (MPI), running on     8 processors
     R & G space division:  proc/nbgrp/npool/nimage =       8
     Waiting for input...
     Reading input from standard input

     Current dimensions of program PWSCF are:
     Max number of different atomic species (ntypx) = 10
     Max number of k-points (npk) =  40000
     Max angular momentum in pseudopotentials (lmaxx) =  3
               file C.pbe-n-kjpaw_psl.0.1.UPF: wavefunction(s)  2P renormalized
               file N.pbe-n-kjpaw_psl.0.1.UPF: wavefunction(s)  2P renormalized
               file H.pbe-kjpaw_psl.0.1.UPF: wavefunction(s)  1S renormalized
               file O.pbe-n-kjpaw_psl.0.1.UPF: wavefunction(s)  2P renormalized

     -------------------------------------
     Parameters for Dispersion Correction:
     -------------------------------------
       atom      VdW radius       C_6     

        C          2.744         60.710
        N          2.640         42.670
        H          1.892          4.857
        O          2.536         24.284

     Subspace diagonalization in iterative solution of the eigenvalue problem:
     a serial algorithm will be used

 
     Parallelization info
     --------------------
     sticks:   dense  smooth     PW     G-vecs:    dense   smooth      PW
     Min        1630    1630    428               178154   178154   24062
     Max        1631    1631    429               178157   178157   24065
     Sum       13041   13041   3431              1425243  1425243  192515
 


     bravais-lattice index     =            0
     lattice parameter (alat)  =      25.5491  a.u.
     unit-cell volume          =   10551.9697 (a.u.)^3
     number of atoms/cell      =          176
     number of atomic types    =            4
     number of electrons       =       456.00
     number of Kohn-Sham states=          273
     kinetic-energy cutoff     =     100.0000  Ry
     charge density cutoff     =     400.0000  Ry
     convergence threshold     =      1.0E-08
     mixing beta               =       0.5000
     number of iterations used =            8  plain     mixing
     Exchange-correlation      =  SLA  PW   PBX  PBC ( 1  4  3  4 0 0)

     celldm(1)=  25.549097  celldm(2)=   0.000000  celldm(3)=   0.000000
     celldm(4)=   0.000000  celldm(5)=   0.000000  celldm(6)=   0.000000

     crystal axes: (cart. coord. in units of alat)
               a(1) = (   1.000000   0.000000   0.000000 )  
               a(2) = (   0.000000   0.627515   0.000000 )  
               a(3) = (   0.000000   0.000000   1.008284 )  

     reciprocal axes: (cart. coord. in units 2 pi/alat)
               b(1) = (  1.000000  0.000000  0.000000 )  
               b(2) = (  0.000000  1.593588  0.000000 )  
               b(3) = (  0.000000  0.000000  0.991784 )  


     PseudoPot. # 1 for  C read from file:
     /scratch/ahofstet/pseudo/C.pbe-n-kjpaw_psl.0.1.UPF
     MD5 check sum: 430fe95172b1e11ef3f8ed03bac87931
     Pseudo is Projector augmented-wave + core cor, Zval =  4.0
     Generated using "atomic" code by A. Dal Corso  v.5.0.99 svn rev. 10869
     Shape of augmentation charge: BESSEL
     Using radial grid of 1073 points,  4 beta functions with: 
                l(1) =   0
                l(2) =   0
                l(3) =   1
                l(4) =   1
     Q(r) pseudized with 0 coefficients 


     PseudoPot. # 2 for  N read from file:
     /scratch/ahofstet/pseudo/N.pbe-n-kjpaw_psl.0.1.UPF
     MD5 check sum: f73187c8b701007e77325f868c9291d7
     Pseudo is Projector augmented-wave + core cor, Zval =  5.0
     Generated using "atomic" code by A. Dal Corso  v.5.0.99 svn rev. 10869
     Shape of augmentation charge: PSQ
     Using radial grid of 1085 points,  4 beta functions with: 
                l(1) =   0
                l(2) =   0
                l(3) =   1
                l(4) =   1
     Q(r) pseudized with 0 coefficients 


     PseudoPot. # 3 for  H read from file:
     /scratch/ahofstet/pseudo/H.pbe-kjpaw_psl.0.1.UPF
     MD5 check sum: 94e484f906d9e9773b2f6e52662335b2
     Pseudo is Projector augmented-wave, Zval =  1.0
     Generated using "atomic" code by A. Dal Corso  v.5.0.99 svn rev. 10869
     Shape of augmentation charge: PSQ
     Using radial grid of  929 points,  2 beta functions with: 
                l(1) =   0
                l(2) =   0
     Q(r) pseudized with 0 coefficients 


     PseudoPot. # 4 for  O read from file:
     /scratch/ahofstet/pseudo/O.pbe-n-kjpaw_psl.0.1.UPF
     MD5 check sum: 3f94a2996a3169367d6eb21d9b593f20
     Pseudo is Projector augmented-wave + core cor, Zval =  6.0
     Generated using "atomic" code by A. Dal Corso  v.5.0.99 svn rev. 10869
     Shape of augmentation charge: BESSEL
     Using radial grid of 1095 points,  4 beta functions with: 
                l(1) =   0
                l(2) =   0
                l(3) =   1
                l(4) =   1
     Q(r) pseudized with 0 coefficients 


     atomic species   valence    mass     pseudopotential
        C              4.00    12.01070      C( 1.00)
        N              5.00    14.00670      N( 1.00)
        H              1.00     1.00794      H( 1.00)
        O              6.00    15.99940      O( 1.00)

      2 Sym. Ops. (no inversion) found ( 1 have fractional translation)



   Cartesian axes

     site n.     atom                  positions (alat units)
         1           O   tau(   1) = (   0.2397177   0.1706350   0.7587998  )
         2           O   tau(   2) = (   0.7602823   0.4568798   0.2546578  )
         3           O   tau(   3) = (   0.2600446   0.1706545   0.2547774  )
         4           O   tau(   4) = (   0.7399554   0.4568603   0.7589194  )
         5           O   tau(   5) = (   0.0601445   0.2996154   0.6565224  )
         6           O   tau(   6) = (   0.9398555   0.3278994   0.1523804  )
         7           O   tau(   7) = (   0.4395281   0.2997221   0.1524465  )
         8           O   tau(   8) = (   0.5604719   0.3277927   0.6565885  )
         9           O   tau(   9) = (   0.1746616   0.2533011   0.9735220  )
        10           O   tau(  10) = (   0.8253384   0.3742137   0.4693800  )
        11           O   tau(  11) = (   0.3252167   0.2532984   0.4695152  )
        12           O   tau(  12) = (   0.6747833   0.3742163   0.9736572  )
        13           O   tau(  13) = (  -0.0017374   0.3870542   0.8632407  )
        14           O   tau(  14) = (   1.0017374   0.2404606   0.3590986  )
        15           O   tau(  15) = (   0.5014777   0.3871262   0.3592104  )
        16           O   tau(  16) = (   0.4985223   0.2403886   0.8633525  )
        17           C   tau(  17) = (   0.0633042   0.3255974   0.8394480  )
        18           C   tau(  18) = (   0.9366958   0.3019174   0.3353060  )
        19           C   tau(  19) = (   0.4363910   0.3257180   0.3353814  )
        20           C   tau(  20) = (   0.5636090   0.3017968   0.8395234  )
        21           C   tau(  21) = (   0.1424344   0.2662683   0.8866728  )
        22           C   tau(  22) = (   0.8575656   0.3612465   0.3825308  )
        23           C   tau(  23) = (   0.3573174   0.2663495   0.3826171  )
        24           C   tau(  24) = (   0.6426826   0.3611653   0.8867591  )
        25           C   tau(  25) = (   0.1730858   0.2279015   0.7888009  )
        26           C   tau(  26) = (   0.8269142   0.3996133   0.2846589  )
        27           C   tau(  27) = (   0.3266254   0.2280046   0.2847609  )
        28           C   tau(  28) = (   0.6733746   0.3995102   0.7889029  )
        29           C   tau(  29) = (   0.0929415   0.2855778   0.7428740  )
        30           C   tau(  30) = (   0.9070585   0.3419370   0.2387320  )
        31           C   tau(  31) = (   0.4067205   0.2857231   0.2388020  )
        32           C   tau(  32) = (   0.5932795   0.3417916   0.7429440  )
        33           C   tau(  33) = (   0.8675934   0.5452081   0.0184436  )
        34           C   tau(  34) = (   0.1324066   0.0823067   0.5225856  )
        35           C   tau(  35) = (   0.6324479   0.5452106   0.5225763  )
        36           C   tau(  36) = (   0.3675521   0.0823041   0.0184343  )
        37           H   tau(  37) = (   0.8054260   0.5588802   0.0690891  )
        38           H   tau(  38) = (   0.1945740   0.0686346   0.5732311  )
        39           H   tau(  39) = (   0.6946468   0.5588949   0.5731835  )
        40           H   tau(  40) = (   0.3053532   0.0686199   0.0690415  )
        41           C   tau(  41) = (   0.9646278   0.5735563   0.0688012  )
        42           C   tau(  42) = (   0.0353722   0.0539585   0.5729432  )
        43           C   tau(  43) = (   0.5354251   0.5735351   0.5729851  )
        44           C   tau(  44) = (   0.4645749   0.0539797   0.0688431  )
        45           H   tau(  45) = (   0.0257997   0.5546459   0.0181405  )
        46           H   tau(  46) = (   0.9742003   0.0728689   0.5222825  )
        47           H   tau(  47) = (   0.4742362   0.5545789   0.5223617  )
        48           H   tau(  48) = (   0.5257638   0.0729359   0.0182197  )
        49           H   tau(  49) = (   0.9747187   0.5292958   0.1364769  )
        50           H   tau(  50) = (   0.0252813   0.0982190   0.6406189  )
        51           H   tau(  51) = (   0.5254005   0.5292905   0.6406814  )
        52           H   tau(  52) = (   0.4745995   0.0982243   0.1365394  )
        53           C   tau(  53) = (   0.9680505   0.0571830   0.0936439  )
        54           C   tau(  54) = (   0.0319495   0.5703318   0.5977859  )
        55           C   tau(  55) = (   0.5319727   0.0571734   0.5978031  )
        56           C   tau(  56) = (   0.4680273   0.5703414   0.0936610  )
        57           C   tau(  57) = (   0.0750501   0.0803401   0.1245274  )
        58           C   tau(  58) = (   0.9249499   0.5471747   0.6286694  )
        59           C   tau(  59) = (   0.4249847   0.0803169   0.6287412  )
        60           C   tau(  60) = (   0.5750153   0.5471979   0.1245992  )
        61           H   tau(  61) = (   0.0929679   0.0425934   0.1942335  )
        62           H   tau(  62) = (   0.9070321   0.5849214   0.6983755  )
        63           H   tau(  63) = (   0.4071154   0.0425764   0.6984633  )
        64           H   tau(  64) = (   0.5928846   0.5849384   0.1943213  )
        65           H   tau(  65) = (   0.1267623   0.0543097   0.0674287  )
        66           H   tau(  66) = (   0.8732377   0.5732051   0.5715707  )
        67           H   tau(  67) = (   0.3732401   0.0542772   0.5716766  )
        68           H   tau(  68) = (   0.6267599   0.5732376   0.0675346  )
        69           C   tau(  69) = (   0.8537873   0.6027341   0.9305600  )
        70           C   tau(  70) = (   0.1462127   0.0247807   0.4264180  )
        71           C   tau(  71) = (   0.6461870   0.6027405   0.4264018  )
        72           C   tau(  72) = (   0.3538130   0.0247743   0.9305438  )
        73           H   tau(  73) = (   0.9165806   0.5842341   0.8816431  )
        74           H   tau(  74) = (   0.0834194   0.0432807   0.3775011  )
        75           H   tau(  75) = (   0.5833626   0.5842295   0.3775292  )
        76           H   tau(  76) = (   0.4166374   0.0432853   0.8816712  )
        77           H   tau(  77) = (   0.7865940   0.5779154   0.8918609  )
        78           H   tau(  78) = (   0.2134060   0.0495994   0.3877189  )
        79           H   tau(  79) = (   0.7133615   0.5779294   0.3876638  )
        80           H   tau(  80) = (   0.2866385   0.0495854   0.8918058  )
        81           C   tau(  81) = (   0.8513292   0.0875077   0.9478942  )
        82           C   tau(  82) = (   0.1486708   0.5400071   0.4437522  )
        83           C   tau(  83) = (   0.6486384   0.0875184   0.4437233  )
        84           C   tau(  84) = (   0.3513616   0.5399964   0.9478653  )
        85           C   tau(  85) = (   0.9436109   0.1181740  -0.0002599  )
        86           C   tau(  86) = (   0.0563891   0.5093408   0.5038821  )
        87           C   tau(  87) = (   0.5563578   0.1181555   0.5038801  )
        88           C   tau(  88) = (   0.4436422   0.5093593  -0.0002619  )
        89           H   tau(  89) = (   1.0078689   0.1113366   0.9579611  )
        90           H   tau(  90) = (  -0.0078689   0.5161782   0.4538191  )
        91           H   tau(  91) = (   0.4920912   0.1112735   0.4538329  )
        92           H   tau(  92) = (   0.5079088   0.5162413   0.9579749  )
        93           H   tau(  93) = (   0.9374120   0.1969163   0.0191802  )
        94           H   tau(  94) = (   0.0625880   0.4305985   0.5233222  )
        95           H   tau(  95) = (   0.5625197   0.1969047   0.5233010  )
        96           H   tau(  96) = (   0.4374803   0.4306101   0.0191590  )
        97           C   tau(  97) = (   0.8995464   0.0785570   0.1822664  )
        98           C   tau(  98) = (   0.1004536   0.5489578   0.6864084  )
        99           C   tau(  99) = (   0.6005223   0.0785799   0.6863830  )
       100           C   tau( 100) = (   0.3994777   0.5489349   0.1822410  )
       101           H   tau( 101) = (   0.9329855   0.0497529   0.2506713  )
       102           H   tau( 102) = (   0.0670145   0.5777619   0.7548133  )
       103           H   tau( 103) = (   0.5671180   0.0498115   0.7548201  )
       104           H   tau( 104) = (   0.4328820   0.5777033   0.2506781  )
       105           H   tau( 105) = (   0.8272924   0.0428165   0.1741300  )
       106           H   tau( 106) = (   0.1727076   0.5846982   0.6782720  )
       107           H   tau( 107) = (   0.6727707   0.0428350   0.6782229  )
       108           H   tau( 108) = (   0.3272293   0.5846798   0.1740809  )
       109           H   tau( 109) = (   0.8872246   0.1580560   0.1918522  )
       110           H   tau( 110) = (   0.1127754   0.4694588   0.6959942  )
       111           H   tau( 111) = (   0.6128595   0.1580789   0.6959231  )
       112           H   tau( 112) = (   0.3871405   0.4694359   0.1917811  )
       113           C   tau( 113) = (   0.8562618   0.1405144   0.8475275  )
       114           C   tau( 114) = (   0.1437382   0.4870004   0.3433855  )
       115           C   tau( 115) = (   0.6436231   0.1405084   0.3433503  )
       116           C   tau( 116) = (   0.3563769   0.4870064   0.8474924  )
       117           H   tau( 117) = (   0.7919620   0.1210256   0.8016213  )
       118           H   tau( 118) = (   0.2080380   0.5064892   0.2974793  )
       119           H   tau( 119) = (   0.7079085   0.1210570   0.2974081  )
       120           H   tau( 120) = (   0.2920915   0.5064578   0.8015502  )
       121           H   tau( 121) = (   0.9240443   0.1202311   0.8072177  )
       122           H   tau( 122) = (   0.0759557   0.5072837   0.3030757  )
       123           H   tau( 123) = (   0.5758290   0.1201783   0.3030828  )
       124           H   tau( 124) = (   0.4241710   0.5073365   0.8072248  )
       125           H   tau( 125) = (   0.8566192   0.2212382   0.8574666  )
       126           H   tau( 126) = (   0.1433808   0.4062766   0.3533246  )
       127           H   tau( 127) = (   0.6432157   0.2212331   0.3532823  )
       128           H   tau( 128) = (   0.3567843   0.4062817   0.8574243  )
       129           C   tau( 129) = (   0.7540106   0.1186175   0.9979500  )
       130           C   tau( 130) = (   0.2459894   0.5088973   0.4938079  )
       131           C   tau( 131) = (   0.7459827   0.1186800   0.4937126  )
       132           C   tau( 132) = (   0.2540173   0.5088348   0.9978546  )
       133           H   tau( 133) = (   0.6913210   0.1029026   0.9483317  )
       134           H   tau( 134) = (   0.3086790   0.5246122   0.4441897  )
       135           H   tau( 135) = (   0.8086412   0.1030106   0.4440414  )
       136           H   tau( 136) = (   0.1913588   0.5245042   0.9481834  )
       137           H   tau( 137) = (   0.7537530   0.1984665   0.0048098  )
       138           H   tau( 138) = (   0.2462470   0.4290483   0.5089518  )
       139           H   tau( 139) = (   0.7461969   0.1985298   0.5088567  )
       140           H   tau( 140) = (   0.2538031   0.4289850   0.0047147  )
       141           H   tau( 141) = (   0.7405909   0.0800965   0.0597584  )
       142           H   tau( 142) = (   0.2594091   0.5474183   0.5639004  )
       143           H   tau( 143) = (   0.7594840   0.0801670   0.5637946  )
       144           H   tau( 144) = (   0.2405160   0.5473478   0.0596525  )
       145           N   tau( 145) = (   0.0956855   0.1880456   0.1386413  )
       146           N   tau( 146) = (   0.9043145   0.4394692   0.6427833  )
       147           N   tau( 147) = (   0.4043248   0.1880269   0.6428656  )
       148           N   tau( 148) = (   0.5956752   0.4394879   0.1387236  )
       149           H   tau( 149) = (   0.1163619   0.2204555   0.0709092  )
       150           H   tau( 150) = (   0.8836381   0.4070593   0.5750512  )
       151           H   tau( 151) = (   0.3836577   0.2204474   0.5751330  )
       152           H   tau( 152) = (   0.6163423   0.4070674   0.0709910  )
       153           H   tau( 153) = (   0.1560121   0.1948388   0.1873021  )
       154           H   tau( 154) = (   0.8439879   0.4326760   0.6914441  )
       155           H   tau( 155) = (   0.3439695   0.1948083   0.6914853  )
       156           H   tau( 156) = (   0.6560305   0.4327065   0.1873433  )
       157           H   tau( 157) = (   0.0353280   0.2287487   0.1644283  )
       158           H   tau( 158) = (   0.9646720   0.3987661   0.6685704  )
       159           H   tau( 159) = (   0.4646771   0.2287087   0.6686983  )
       160           H   tau( 160) = (   0.5353229   0.3988061   0.1645563  )
       161           N   tau( 161) = (   0.8667588   0.4369751   1.0066783  )
       162           N   tau( 162) = (   0.1332412   0.1905397   0.5025362  )
       163           N   tau( 163) = (   0.6333058   0.4369713   0.5025113  )
       164           N   tau( 164) = (   0.3666942   0.1905435   1.0066533  )
       165           H   tau( 165) = (   0.9187161   0.4181394   0.9515923  )
       166           H   tau( 166) = (   0.0812839   0.2093754   0.4474502  )
       167           H   tau( 167) = (   0.5812792   0.4181371   0.4474948  )
       168           H   tau( 168) = (   0.4187208   0.2093777   0.9516368  )
       169           H   tau( 169) = (   0.7954068   0.4145012   0.9849055  )
       170           H   tau( 170) = (   0.2045932   0.2130136   0.4807634  )
       171           H   tau( 171) = (   0.7046367   0.4145268   0.4806424  )
       172           H   tau( 172) = (   0.2953633   0.2129880   0.9847844  )
       173           H   tau( 173) = (   0.8876535   0.3965298   0.0621227  )
       174           H   tau( 174) = (   0.1123465   0.2309850   0.5662647  )
       175           H   tau( 175) = (   0.6125183   0.3965024   0.5662667  )
       176           H   tau( 176) = (   0.3874817   0.2310124   0.0621246  )

     number of k points=     8
                       cart. coord. in units 2pi/alat
        k(    1) = (   0.0000000   0.0000000   0.0000000), wk =   0.2500000
        k(    2) = (   0.0000000   0.0000000  -0.4958920), wk =   0.2500000
        k(    3) = (   0.0000000  -0.7967940   0.0000000), wk =   0.2500000
        k(    4) = (   0.0000000  -0.7967940  -0.4958920), wk =   0.2500000
        k(    5) = (  -0.5000000   0.0000000   0.0000000), wk =   0.2500000
        k(    6) = (  -0.5000000   0.0000000  -0.4958920), wk =   0.2500000
        k(    7) = (  -0.5000000  -0.7967940   0.0000000), wk =   0.2500000
        k(    8) = (  -0.5000000  -0.7967940  -0.4958920), wk =   0.2500000

     Dense  grid:  1425243 G-vectors     FFT dimensions: ( 180, 108, 180)

     Estimated max dynamical RAM per process >    2010.12MB

     Estimated total allocated dynamical RAM >   16080.97MB

     Check: negative/imaginary core charge=   -0.000002    0.000000

     Initial potential from superposition of free atoms

     starting charge  455.99667, renormalised to  456.00000
     Starting wfc are  416 randomized atomic wfcs
     Checking if some PAW data can be deallocated... 

     total cpu time spent up to now is      165.0 secs

     per-process dynamical memory:  1307.3 Mb

     Self-consistent Calculation

     iteration #  1     ecut=   100.00 Ry     beta=0.50
     Davidson diagonalization with overlap
     ethr =  1.00E-02,  avg # of iterations =  4.0

     total cpu time spent up to now is      701.8 secs

     total energy              =   -2036.27334492 Ry
     Harris-Foulkes estimate   =   -2045.90594695 Ry
     estimated scf accuracy    <      18.16870255 Ry

     iteration #  2     ecut=   100.00 Ry     beta=0.50
     Davidson diagonalization with overlap
     ethr =  3.98E-03,  avg # of iterations =  2.2

     total cpu time spent up to now is      977.0 secs

     total energy              =   -2037.81092280 Ry
     Harris-Foulkes estimate   =   -2038.88232493 Ry
     estimated scf accuracy    <       2.24829901 Ry

     iteration #  3     ecut=   100.00 Ry     beta=0.50
     Davidson diagonalization with overlap
     ethr =  4.93E-04,  avg # of iterations =  5.0

     total cpu time spent up to now is     1573.9 secs

     total energy              =   -2039.52048588 Ry
     Harris-Foulkes estimate   =   -2040.42335543 Ry
     estimated scf accuracy    <       2.51947922 Ry

     iteration #  4     ecut=   100.00 Ry     beta=0.50
     Davidson diagonalization with overlap
     ethr =  4.93E-04,  avg # of iterations =  2.9

     total cpu time spent up to now is     1835.4 secs

     total energy              =   -2039.14841264 Ry
     Harris-Foulkes estimate   =   -2039.66551936 Ry
     estimated scf accuracy    <       0.73426954 Ry

     iteration #  5     ecut=   100.00 Ry     beta=0.50
     Davidson diagonalization with overlap
     ethr =  1.61E-04,  avg # of iterations =  5.0

     total cpu time spent up to now is     2440.9 secs

     total energy              =   -2039.61568963 Ry
     Harris-Foulkes estimate   =   -2040.46573581 Ry
     estimated scf accuracy    <       2.50925884 Ry

     iteration #  6     ecut=   100.00 Ry     beta=0.50
     Davidson diagonalization with overlap
     ethr =  1.61E-04,  avg # of iterations =  4.2

     total cpu time spent up to now is     2714.5 secs

     total energy              =   -2039.41739806 Ry
     Harris-Foulkes estimate   =   -2039.70665836 Ry
     estimated scf accuracy    <       0.85407862 Ry

     iteration #  7     ecut=   100.00 Ry     beta=0.50
     Davidson diagonalization with overlap
     ethr =  1.61E-04,  avg # of iterations =  7.9

     total cpu time spent up to now is     3163.3 secs

     total energy              =   -2039.69940562 Ry
     Harris-Foulkes estimate   =   -2039.70150731 Ry
     estimated scf accuracy    <       0.00865745 Ry

     iteration #  8     ecut=   100.00 Ry     beta=0.50
     Davidson diagonalization with overlap
     c_bands:  2 eigenvalues not converged
     c_bands:  1 eigenvalues not converged
     c_bands:  1 eigenvalues not converged
     ethr =  1.90E-06,  avg # of iterations = 10.6

     total cpu time spent up to now is     3814.3 secs

     total energy              =   -2039.70060114 Ry
     Harris-Foulkes estimate   =   -2039.70796918 Ry
     estimated scf accuracy    <       0.01524009 Ry

     iteration #  9     ecut=   100.00 Ry     beta=0.50
     Davidson diagonalization with overlap
     c_bands:  1 eigenvalues not converged
     ethr =  1.90E-06,  avg # of iterations = 13.6

     total cpu time spent up to now is     4232.1 secs

     total energy              =   -2039.70340826 Ry
     Harris-Foulkes estimate   =   -2039.70344454 Ry
     estimated scf accuracy    <       0.00019140 Ry

     iteration # 10     ecut=   100.00 Ry     beta=0.50
     Davidson diagonalization with overlap
     ethr =  4.20E-08,  avg # of iterations =  4.4

     total cpu time spent up to now is     4788.5 secs

     total energy              =   -2039.70371303 Ry
     Harris-Foulkes estimate   =   -2039.70375760 Ry
     estimated scf accuracy    <       0.00017863 Ry

     iteration # 11     ecut=   100.00 Ry     beta=0.50
     Davidson diagonalization with overlap
     ethr =  3.92E-08,  avg # of iterations =  2.0

     total cpu time spent up to now is     5047.7 secs

     total energy              =   -2039.70366803 Ry
     Harris-Foulkes estimate   =   -2039.70372035 Ry
     estimated scf accuracy    <       0.00008506 Ry

     iteration # 12     ecut=   100.00 Ry     beta=0.50
     Davidson diagonalization with overlap
     ethr =  1.87E-08,  avg # of iterations =  4.0

     total cpu time spent up to now is     5493.1 secs

     total energy              =   -2039.70370877 Ry
     Harris-Foulkes estimate   =   -2039.70372435 Ry
     estimated scf accuracy    <       0.00004827 Ry

     iteration # 13     ecut=   100.00 Ry     beta=0.50
     Davidson diagonalization with overlap
     ethr =  1.06E-08,  avg # of iterations =  1.0

     total cpu time spent up to now is     5745.8 secs

     total energy              =   -2039.70370266 Ry
     Harris-Foulkes estimate   =   -2039.70371038 Ry
     estimated scf accuracy    <       0.00001910 Ry

     iteration # 14     ecut=   100.00 Ry     beta=0.50
     Davidson diagonalization with overlap
     ethr =  4.19E-09,  avg # of iterations =  3.1

     total cpu time spent up to now is     6122.3 secs

     total energy              =   -2039.70371020 Ry
     Harris-Foulkes estimate   =   -2039.70371018 Ry
     estimated scf accuracy    <       0.00000053 Ry

     iteration # 15     ecut=   100.00 Ry     beta=0.50
     Davidson diagonalization with overlap
     ethr =  1.16E-10,  avg # of iterations =  4.0

     total cpu time spent up to now is     6541.5 secs

     total energy              =   -2039.70371006 Ry
     Harris-Foulkes estimate   =   -2039.70371041 Ry
     estimated scf accuracy    <       0.00000072 Ry

     iteration # 16     ecut=   100.00 Ry     beta=0.50
     Davidson diagonalization with overlap
     ethr =  1.16E-10,  avg # of iterations =  2.4

     total cpu time spent up to now is     6807.5 secs

     total energy              =   -2039.70371010 Ry
     Harris-Foulkes estimate   =   -2039.70371013 Ry
     estimated scf accuracy    <       0.00000008 Ry

     iteration # 17     ecut=   100.00 Ry     beta=0.50
     Davidson diagonalization with overlap
     ethr =  1.78E-11,  avg # of iterations =  4.0

     total cpu time spent up to now is     7342.4 secs

     total energy              =   -2039.70371020 Ry
     Harris-Foulkes estimate   =   -2039.70371021 Ry
     estimated scf accuracy    <       0.00000004 Ry

     iteration # 18     ecut=   100.00 Ry     beta=0.50
     Davidson diagonalization with overlap
     ethr =  8.25E-12,  avg # of iterations =  1.0

     total cpu time spent up to now is     7594.1 secs

     total energy              =   -2039.70371019 Ry
     Harris-Foulkes estimate   =   -2039.70371020 Ry
     estimated scf accuracy    <       0.00000002 Ry

     iteration # 19     ecut=   100.00 Ry     beta=0.50
     Davidson diagonalization with overlap
     ethr =  5.12E-12,  avg # of iterations =  4.0

     total cpu time spent up to now is     7967.2 secs

     End of self-consistent calculation

          k = 0.0000 0.0000 0.0000 (178119 PWs)   bands (ev):

   -20.0014 -19.9710 -19.9686 -19.9650 -19.5795 -19.5632 -19.5609 -19.5379
   -19.2685 -19.2622 -19.2589 -19.2512 -19.0727 -19.0663 -19.0599 -19.0438
   -17.9709 -17.9540 -17.9470 -17.9412 -17.7969 -17.7818 -17.7800 -17.7695
   -15.3631 -15.3425 -15.3411 -15.3362 -14.8746 -14.8732 -14.8724 -14.8485
   -14.1018 -14.0939 -14.0907 -14.0676 -12.8591 -12.8520 -12.8467 -12.8437
   -11.3936 -11.3852 -11.3233 -11.3210 -11.1829 -11.1688 -11.1323 -11.1159
   -11.0221 -11.0069 -11.0056 -10.9799 -10.8724 -10.8495 -10.8423 -10.8378
    -9.2786  -9.2677  -9.2581  -9.2559  -8.5616  -8.5430  -8.5379  -8.5119
    -8.3921  -8.3651  -8.3359  -8.3154  -8.2560  -8.1701  -8.1533  -8.1205
    -7.8000  -7.7205  -7.7058  -7.7048  -7.6392  -7.5612  -7.4617  -7.4135
    -7.3619  -7.3513  -7.2806  -7.0793  -6.9436  -6.8954  -6.8504  -6.7946
    -6.6601  -6.6414  -6.6305  -6.6274  -6.3625  -6.3356  -6.3034  -6.2369
    -6.0084  -5.9483  -5.9385  -5.8663  -5.7930  -5.7429  -5.7202  -5.6533
    -5.6243  -5.5929  -5.5595  -5.5307  -5.4636  -5.4102  -5.3863  -5.3670
    -5.3060  -5.2227  -5.1998  -5.1698  -5.1360  -5.0883  -4.9921  -4.9899
    -4.9804  -4.8992  -4.8504  -4.8166  -4.7164  -4.7040  -4.6590  -4.6549
    -4.6120  -4.5758  -4.5696  -4.5616  -4.4415  -4.3741  -4.3736  -4.3664
    -4.2542  -4.2177  -4.1764  -4.1712  -4.1210  -4.0932  -3.9801  -3.8926
    -3.8706  -3.8644  -3.8220  -3.8106  -3.7956  -3.7045  -3.6622  -3.6445
    -3.3819  -3.3818  -3.3525  -3.3339  -3.2421  -3.2376  -3.2000  -3.1584
    -3.1525  -3.1460  -3.1146  -3.0855  -3.0231  -3.0153  -3.0088  -3.0060
    -2.9896  -2.9041  -2.8511  -2.8386  -2.7812  -2.7794  -2.7075  -2.7046
    -2.6232  -2.6071  -2.5935  -2.5571  -2.4551  -2.4081  -2.3783  -2.3427
    -2.3398  -2.3359  -2.2737  -2.1991  -2.1839  -2.1617  -2.1105  -2.0888
    -2.0594  -2.0255  -2.0134  -1.9600  -1.7872  -1.7791  -1.7460  -1.7195
    -1.6268  -1.5859  -1.5631  -1.5584  -1.3708  -1.3591  -1.3556  -1.3244
    -1.3030  -1.1990  -1.1980  -1.1585  -0.9721  -0.8782  -0.8438  -0.8028
    -0.5275  -0.4995  -0.4687  -0.4247   0.8475   0.8570   0.8733   0.8975
     1.3413   1.3706   1.3857   1.4503   4.3482   4.3658   4.3663   4.3782
     4.5606   4.5619   4.5702   4.5856   4.9795   5.6168   5.7249   5.7578
     5.9616   6.1042   6.2223   6.2434   6.4113   6.5372   6.5560   6.5977
     6.6765   6.8201   6.8549   6.8640   6.9465   7.0266   7.1007   7.2026
     7.2345   7.2533   7.2807   7.4195   7.4338   7.4670   7.5394   7.5619
     7.6527   7.6666   7.6735   7.7500   7.8141   7.9289   8.0203   8.0574
     8.1097

          k = 0.0000 0.0000-0.4959 (178250 PWs)   bands (ev):

   -19.9842 -19.9842 -19.9697 -19.9697 -19.5628 -19.5628 -19.5571 -19.5571
   -19.2637 -19.2637 -19.2560 -19.2560 -19.0707 -19.0707 -19.0516 -19.0516
   -17.9594 -17.9594 -17.9469 -17.9469 -17.7884 -17.7884 -17.7757 -17.7757
   -15.3530 -15.3530 -15.3387 -15.3387 -14.8733 -14.8733 -14.8608 -14.8608
   -14.0962 -14.0962 -14.0808 -14.0808 -12.8556 -12.8556 -12.8453 -12.8453
   -11.3883 -11.3883 -11.3230 -11.3230 -11.1740 -11.1740 -11.1262 -11.1262
   -11.0150 -11.0150 -10.9933 -10.9933 -10.8558 -10.8558 -10.8443 -10.8443
    -9.2730  -9.2730  -9.2571  -9.2571  -8.5398  -8.5398  -8.5197  -8.5197
    -8.3843  -8.3843  -8.3379  -8.3379  -8.1854  -8.1854  -8.1842  -8.1842
    -7.7720  -7.7720  -7.6972  -7.6972  -7.5515  -7.5515  -7.4773  -7.4773
    -7.3114  -7.3114  -7.2354  -7.2354  -6.8920  -6.8920  -6.8376  -6.8376
    -6.6428  -6.6428  -6.5862  -6.5862  -6.3911  -6.3911  -6.2655  -6.2655
    -5.9516  -5.9516  -5.8871  -5.8871  -5.7980  -5.7980  -5.7793  -5.7793
    -5.5440  -5.5440  -5.5181  -5.5181  -5.4379  -5.4379  -5.3991  -5.3991
    -5.2766  -5.2766  -5.2158  -5.2158  -5.0551  -5.0551  -5.0050  -5.0050
    -4.8886  -4.8886  -4.8607  -4.8607  -4.6961  -4.6961  -4.6818  -4.6818
    -4.6011  -4.6011  -4.5755  -4.5755  -4.4178  -4.4178  -4.3098  -4.3098
    -4.2737  -4.2737  -4.2196  -4.2196  -4.0439  -4.0439  -3.9420  -3.9420
    -3.8696  -3.8696  -3.8305  -3.8305  -3.7135  -3.7135  -3.6857  -3.6857
    -3.3628  -3.3628  -3.3332  -3.3332  -3.2498  -3.2498  -3.2189  -3.2189
    -3.1096  -3.1096  -3.0950  -3.0950  -3.0622  -3.0622  -3.0138  -3.0138
    -2.9105  -2.9105  -2.8690  -2.8690  -2.7591  -2.7591  -2.7244  -2.7244
    -2.5895  -2.5895  -2.5804  -2.5804  -2.4234  -2.4234  -2.3699  -2.3699
    -2.3024  -2.3024  -2.2639  -2.2639  -2.2030  -2.2030  -2.0876  -2.0876
    -2.0258  -2.0258  -2.0044  -2.0044  -1.8055  -1.8055  -1.7206  -1.7206
    -1.5934  -1.5934  -1.5504  -1.5504  -1.3694  -1.3694  -1.3141  -1.3141
    -1.2890  -1.2890  -1.1803  -1.1803  -0.8778  -0.8778  -0.8608  -0.8608
    -0.5136  -0.5136  -0.4475  -0.4475   0.8659   0.8659   0.8738   0.8738
     1.3634   1.3634   1.4111   1.4111   4.3567   4.3567   4.3687   4.3687
     4.5677   4.5677   4.5727   4.5727   5.2129   5.2129   5.7615   5.7615
     6.1385   6.1385   6.1742   6.1742   6.5421   6.5421   6.6248   6.6248
     6.7404   6.7404   6.7803   6.7803   6.8951   6.8951   7.2650   7.2650
     7.2847   7.2847   7.2952   7.2952   7.4488   7.4488   7.4914   7.4914
     7.6927   7.6927   7.7450   7.7450   7.9429   7.9429   7.9711   7.9712
     8.1805

          k = 0.0000-0.7968 0.0000 (178188 PWs)   bands (ev):

   -20.0010 -19.9709 -19.9686 -19.9649 -19.5788 -19.5631 -19.5609 -19.5379
   -19.2688 -19.2621 -19.2588 -19.2513 -19.0732 -19.0659 -19.0602 -19.0438
   -17.9738 -17.9603 -17.9561 -17.9446 -17.7939 -17.7776 -17.7700 -17.7633
   -15.3603 -15.3481 -15.3462 -15.3424 -14.8746 -14.8744 -14.8702 -14.8612
   -14.1014 -14.0945 -14.0892 -14.0679 -12.8383 -12.8349 -12.8298 -12.8265
   -11.3956 -11.3871 -11.3214 -11.3191 -11.1849 -11.1668 -11.1329 -11.1126
   -11.0193 -11.0076 -11.0050 -10.9802 -10.8729 -10.8487 -10.8410 -10.8371
    -9.3262  -9.3088  -9.2988  -9.2670  -8.5890  -8.5693  -8.5245  -8.5207
    -8.3997  -8.3672  -8.3461  -8.3216  -8.2679  -8.1344  -8.1336  -8.1327
    -7.7408  -7.7342  -7.6702  -7.6142  -7.5867  -7.5483  -7.5421  -7.4797
    -7.4515  -7.3164  -7.2655  -7.2346  -6.9934  -6.9663  -6.8055  -6.7343
    -6.7164  -6.6646  -6.6383  -6.4751  -6.4237  -6.3043  -6.2992  -6.2420
    -5.9610  -5.9287  -5.9044  -5.8599  -5.7286  -5.6404  -5.6148  -5.5972
    -5.5860  -5.5481  -5.5388  -5.4556  -5.4528  -5.4102  -5.3366  -5.2915
    -5.2865  -5.2690  -5.1832  -5.1462  -5.1161  -5.0741  -5.0662  -5.0605
    -4.9632  -4.9468  -4.9368  -4.9291  -4.7789  -4.7487  -4.6959  -4.6560
    -4.6452  -4.6214  -4.5384  -4.4826  -4.4591  -4.4219  -4.4166  -4.3576
    -4.2980  -4.2589  -4.2587  -4.1992  -4.0500  -4.0173  -3.9890  -3.9537
    -3.8674  -3.8625  -3.8157  -3.7558  -3.7313  -3.6893  -3.5882  -3.5799
    -3.4069  -3.3739  -3.3692  -3.3431  -3.3136  -3.2918  -3.2528  -3.1860
    -3.1568  -3.1496  -3.1184  -3.0953  -3.0291  -2.9420  -2.9408  -2.9318
    -2.9242  -2.8935  -2.8910  -2.8069  -2.7692  -2.7381  -2.7371  -2.7057
    -2.6510  -2.6179  -2.5974  -2.5496  -2.4514  -2.4241  -2.3968  -2.3607
    -2.3067  -2.2723  -2.2531  -2.2293  -2.1489  -2.1272  -2.1261  -2.1158
    -2.0655  -2.0518  -2.0206  -2.0099  -1.8000  -1.7866  -1.7637  -1.7576
    -1.6512  -1.5635  -1.5551  -1.5136  -1.4556  -1.4015  -1.3947  -1.3520
    -1.2557  -1.2445  -1.1852  -1.1509  -1.0078  -0.8995  -0.8161  -0.7651
    -0.5271  -0.4985  -0.4586  -0.4266   0.8416   0.8442   0.8647   0.8923
     1.3358   1.3619   1.3850   1.4526   4.3538   4.3684   4.3692   4.3783
     4.5350   4.5468   4.5540   4.5681   5.3968   5.4617   5.7619   5.8630
     6.0369   6.1513   6.1649   6.2184   6.3045   6.3615   6.3772   6.4596
     6.4979   6.6681   6.7756   6.8009   6.8298   6.9459   7.0779   7.0837
     7.0918   7.2488   7.4132   7.6000   7.6248   7.7003   7.7229   7.7366
     7.8205   7.8424   7.9797   7.9964   8.0206   8.0563   8.1201   8.1557
     8.1996

          k = 0.0000-0.7968-0.4959 (178128 PWs)   bands (ev):

   -19.9839 -19.9839 -19.9696 -19.9696 -19.5628 -19.5628 -19.5569 -19.5569
   -19.2638 -19.2638 -19.2560 -19.2560 -19.0707 -19.0707 -19.0517 -19.0517
   -17.9657 -17.9657 -17.9515 -17.9515 -17.7818 -17.7818 -17.7705 -17.7705
   -15.3542 -15.3542 -15.3444 -15.3444 -14.8727 -14.8727 -14.8674 -14.8674
   -14.0954 -14.0954 -14.0812 -14.0812 -12.8366 -12.8366 -12.8281 -12.8281
   -11.3901 -11.3901 -11.3211 -11.3211 -11.1739 -11.1739 -11.1252 -11.1252
   -11.0140 -11.0140 -10.9932 -10.9932 -10.8558 -10.8558 -10.8431 -10.8431
    -9.3121  -9.3121  -9.2887  -9.2887  -8.5585  -8.5585  -8.5559  -8.5559
    -8.3610  -8.3610  -8.3062  -8.3062  -8.2106  -8.2106  -8.1805  -8.1805
    -7.7095  -7.7095  -7.6674  -7.6674  -7.5485  -7.5485  -7.5196  -7.5196
    -7.4026  -7.4026  -7.2350  -7.2350  -6.9129  -6.9129  -6.8424  -6.8424
    -6.6569  -6.6569  -6.5598  -6.5598  -6.3614  -6.3614  -6.3015  -6.3015
    -5.9438  -5.9438  -5.8801  -5.8801  -5.6504  -5.6504  -5.6361  -5.6361
    -5.5441  -5.5441  -5.5171  -5.5171  -5.4531  -5.4531  -5.3688  -5.3688
    -5.2149  -5.2149  -5.1772  -5.1772  -5.0597  -5.0597  -5.0471  -5.0471
    -4.9645  -4.9645  -4.9624  -4.9624  -4.7389  -4.7389  -4.7079  -4.7079
    -4.6132  -4.6132  -4.5292  -4.5292  -4.3857  -4.3857  -4.3830  -4.3830
    -4.2942  -4.2942  -4.1998  -4.1998  -4.0489  -4.0489  -4.0256  -4.0256
    -3.8264  -3.8264  -3.8253  -3.8253  -3.6689  -3.6689  -3.6042  -3.6042
    -3.3794  -3.3794  -3.3649  -3.3649  -3.2786  -3.2786  -3.2635  -3.2635
    -3.1447  -3.1447  -3.1120  -3.1120  -3.0320  -3.0320  -2.9183  -2.9183
    -2.8869  -2.8869  -2.8454  -2.8454  -2.7309  -2.7309  -2.7286  -2.7286
    -2.6129  -2.6129  -2.5755  -2.5755  -2.4417  -2.4417  -2.3495  -2.3495
    -2.3466  -2.3466  -2.2412  -2.2412  -2.1154  -2.1154  -2.1092  -2.1092
    -2.0618  -2.0618  -2.0338  -2.0338  -1.7931  -1.7931  -1.7701  -1.7701
    -1.6155  -1.6155  -1.5024  -1.5024  -1.4093  -1.4093  -1.3940  -1.3940
    -1.2782  -1.2782  -1.1788  -1.1788  -0.8663  -0.8663  -0.8533  -0.8533
    -0.5110  -0.5110  -0.4440  -0.4440   0.8529   0.8529   0.8702   0.8702
     1.3609   1.3609   1.4072   1.4072   4.3615   4.3615   4.3717   4.3717
     4.5438   4.5438   4.5604   4.5604   5.5772   5.5772   5.5883   5.5883
     6.0671   6.0671   6.1906   6.1906   6.3852   6.3852   6.4277   6.4277
     6.6643   6.6643   6.7178   6.7178   7.0247   7.0247   7.0859   7.0859
     7.2364   7.2364   7.3022   7.3022   7.7521   7.7521   7.7814   7.7814
     7.8028   7.8029   7.8853   7.8853   8.0062   8.0062   8.1604   8.1605
     8.2759

          k =-0.5000 0.0000 0.0000 (178262 PWs)   bands (ev):

   -19.9900 -19.9895 -19.9637 -19.9632 -19.5746 -19.5740 -19.5463 -19.5457
   -19.2652 -19.2641 -19.2568 -19.2558 -19.0675 -19.0672 -19.0541 -19.0537
   -17.9627 -17.9615 -17.9451 -17.9438 -17.7913 -17.7874 -17.7766 -17.7726
   -15.3533 -15.3515 -15.3402 -15.3384 -14.8759 -14.8746 -14.8597 -14.8583
   -14.0991 -14.0976 -14.0793 -14.0779 -12.8543 -12.8517 -12.8491 -12.8465
   -11.3649 -11.3649 -11.3569 -11.3568 -11.1512 -11.1495 -11.1396 -11.1379
   -11.0147 -11.0127 -10.9947 -10.9927 -10.8646 -10.8639 -10.8375 -10.8367
    -9.2693  -9.2679  -9.2610  -9.2597  -8.5085  -8.5082  -8.4816  -8.4809
    -8.4450  -8.4444  -8.4202  -8.4195  -8.1594  -8.1588  -8.1454  -8.1446
    -7.7362  -7.7360  -7.6209  -7.6199  -7.5731  -7.5728  -7.5293  -7.5290
    -7.4013  -7.3984  -7.1826  -7.1814  -6.8961  -6.8942  -6.8128  -6.8114
    -6.7121  -6.7119  -6.5844  -6.5842  -6.3747  -6.3732  -6.2450  -6.2435
    -5.9437  -5.9435  -5.9052  -5.9049  -5.8114  -5.8112  -5.6646  -5.6635
    -5.5934  -5.5926  -5.5257  -5.5254  -5.4836  -5.4826  -5.3560  -5.3554
    -5.2675  -5.2668  -5.1914  -5.1905  -5.1329  -5.1323  -4.9758  -4.9753
    -4.9080  -4.9075  -4.8445  -4.8437  -4.7451  -4.7450  -4.7035  -4.7030
    -4.6031  -4.6020  -4.5602  -4.5600  -4.3986  -4.3970  -4.3224  -4.3207
    -4.2669  -4.2666  -4.1463  -4.1460  -4.0679  -4.0678  -3.9207  -3.9197
    -3.8744  -3.8736  -3.8232  -3.8227  -3.8052  -3.8045  -3.6356  -3.6350
    -3.3740  -3.3733  -3.3467  -3.3457  -3.2521  -3.2512  -3.1567  -3.1561
    -3.1187  -3.1180  -3.0902  -3.0901  -3.0536  -3.0521  -3.0138  -3.0131
    -2.9370  -2.9355  -2.8608  -2.8600  -2.7797  -2.7791  -2.7332  -2.7329
    -2.6233  -2.6215  -2.5624  -2.5612  -2.4160  -2.4159  -2.3494  -2.3494
    -2.3169  -2.3164  -2.2835  -2.2831  -2.1540  -2.1539  -2.1445  -2.1438
    -2.0418  -2.0417  -1.9894  -1.9891  -1.7573  -1.7568  -1.7305  -1.7300
    -1.5976  -1.5965  -1.5506  -1.5496  -1.3802  -1.3787  -1.3223  -1.3213
    -1.2689  -1.2689  -1.1887  -1.1877  -0.9230  -0.9227  -0.8106  -0.8100
    -0.5037  -0.5034  -0.4622  -0.4617   0.8514   0.8515   0.8840   0.8843
     1.3583   1.3587   1.4188   1.4192   4.3587   4.3600   4.3706   4.3719
     4.5605   4.5612   4.5777   4.5784   5.2192   5.2201   5.7460   5.7469
     6.0589   6.0592   6.2340   6.2353   6.4743   6.4746   6.5614   6.5615
     6.7551   6.7564   6.9098   6.9104   7.0861   7.0869   7.1264   7.1270
     7.2309   7.2311   7.3012   7.3024   7.3997   7.4015   7.5691   7.5713
     7.6240   7.6249   7.7561   7.7572   7.9984   7.9985   8.0302   8.0303
     8.0419

          k =-0.5000 0.0000-0.4959 (178160 PWs)   bands (ev):

   -19.9774 -19.9774 -19.9768 -19.9768 -19.5601 -19.5601 -19.5592 -19.5592
   -19.2608 -19.2608 -19.2597 -19.2597 -19.0614 -19.0614 -19.0605 -19.0605
   -17.9551 -17.9551 -17.9511 -17.9511 -17.7840 -17.7840 -17.7801 -17.7801
   -15.3468 -15.3468 -15.3450 -15.3450 -14.8681 -14.8681 -14.8659 -14.8659
   -14.0893 -14.0893 -14.0877 -14.0877 -12.8518 -12.8518 -12.8491 -12.8491
   -11.3613 -11.3613 -11.3602 -11.3602 -11.1454 -11.1454 -11.1435 -11.1435
   -11.0052 -11.0052 -11.0029 -11.0029 -10.8513 -10.8513 -10.8501 -10.8501
    -9.2655  -9.2655  -9.2632  -9.2632  -8.5094  -8.5094  -8.5088  -8.5088
    -8.3946  -8.3946  -8.3937  -8.3937  -8.1918  -8.1918  -8.1906  -8.1906
    -7.6800  -7.6800  -7.6781  -7.6781  -7.5468  -7.5468  -7.5443  -7.5443
    -7.2779  -7.2779  -7.2759  -7.2759  -6.8796  -6.8796  -6.8779  -6.8779
    -6.6259  -6.6259  -6.6244  -6.6244  -6.3063  -6.3063  -6.3040  -6.3040
    -5.9218  -5.9218  -5.9211  -5.9211  -5.7857  -5.7857  -5.7850  -5.7850
    -5.5481  -5.5481  -5.5469  -5.5469  -5.4004  -5.4004  -5.3997  -5.3997
    -5.2249  -5.2249  -5.2241  -5.2241  -5.0372  -5.0372  -5.0367  -5.0367
    -4.9180  -4.9180  -4.9178  -4.9178  -4.6772  -4.6772  -4.6768  -4.6768
    -4.5961  -4.5961  -4.5952  -4.5952  -4.3654  -4.3654  -4.3638  -4.3638
    -4.2301  -4.2301  -4.2288  -4.2288  -3.9831  -3.9831  -3.9829  -3.9829
    -3.8599  -3.8599  -3.8591  -3.8591  -3.6950  -3.6950  -3.6936  -3.6936
    -3.3610  -3.3610  -3.3600  -3.3600  -3.2047  -3.2047  -3.2035  -3.2035
    -3.1127  -3.1127  -3.1116  -3.1116  -3.0355  -3.0355  -3.0350  -3.0350
    -2.8999  -2.8999  -2.8987  -2.8987  -2.7568  -2.7568  -2.7564  -2.7564
    -2.5806  -2.5806  -2.5789  -2.5789  -2.3813  -2.3813  -2.3804  -2.3804
    -2.2859  -2.2859  -2.2849  -2.2849  -2.1751  -2.1751  -2.1746  -2.1746
    -2.0044  -2.0044  -2.0039  -2.0039  -1.7554  -1.7554  -1.7537  -1.7537
    -1.5727  -1.5727  -1.5712  -1.5712  -1.3471  -1.3471  -1.3459  -1.3459
    -1.2334  -1.2334  -1.2330  -1.2330  -0.8620  -0.8620  -0.8612  -0.8612
    -0.4839  -0.4839  -0.4834  -0.4834   0.8681   0.8681   0.8693   0.8693
     1.3884   1.3884   1.3898   1.3898   4.3625   4.3625   4.3638   4.3638
     4.5696   4.5696   4.5710   4.5710   5.4122   5.4122   5.4132   5.4132
     6.2546   6.2546   6.2555   6.2555   6.5092   6.5092   6.5101   6.5101
     6.7985   6.7985   6.7998   6.7998   7.0913   7.0913   7.0924   7.0924
     7.2905   7.2905   7.2922   7.2922   7.4828   7.4828   7.4837   7.4837
     7.6867   7.6867   7.6881   7.6881   7.9492   7.9492   7.9495   7.9495
     8.2022

          k =-0.5000-0.7968 0.0000 (178056 PWs)   bands (ev):

   -19.9898 -19.9892 -19.9636 -19.9632 -19.5742 -19.5736 -19.5464 -19.5458
   -19.2651 -19.2641 -19.2568 -19.2558 -19.0678 -19.0675 -19.0539 -19.0535
   -17.9673 -17.9671 -17.9501 -17.9500 -17.7878 -17.7839 -17.7686 -17.7646
   -15.3545 -15.3529 -15.3457 -15.3441 -14.8762 -14.8749 -14.8652 -14.8639
   -14.0992 -14.0976 -14.0789 -14.0774 -12.8356 -12.8335 -12.8312 -12.8291
   -11.3657 -11.3657 -11.3572 -11.3571 -11.1520 -11.1502 -11.1369 -11.1351
   -11.0133 -11.0114 -10.9947 -10.9928 -10.8643 -10.8636 -10.8365 -10.8358
    -9.3179  -9.3157  -9.2835  -9.2811  -8.5629  -8.5625  -8.4869  -8.4869
    -8.4474  -8.4466  -8.3630  -8.3630  -8.2139  -8.2128  -8.0857  -8.0849
    -7.7227  -7.7215  -7.6888  -7.6872  -7.5520  -7.5509  -7.4625  -7.4613
    -7.4119  -7.4107  -7.2411  -7.2411  -6.9856  -6.9855  -6.7800  -6.7793
    -6.6951  -6.6946  -6.5611  -6.5609  -6.3452  -6.3439  -6.3094  -6.3080
    -5.9289  -5.9287  -5.8831  -5.8823  -5.6858  -5.6857  -5.5864  -5.5859
    -5.5506  -5.5500  -5.5300  -5.5292  -5.4055  -5.4054  -5.3413  -5.3407
    -5.2582  -5.2576  -5.1338  -5.1330  -5.0891  -5.0881  -5.0647  -5.0643
    -5.0041  -5.0038  -4.9269  -4.9262  -4.7175  -4.7172  -4.6937  -4.6933
    -4.6477  -4.6476  -4.5881  -4.5877  -4.4454  -4.4442  -4.3885  -4.3874
    -4.2875  -4.2858  -4.1203  -4.1200  -4.0652  -4.0645  -3.9312  -3.9302
    -3.8808  -3.8808  -3.7795  -3.7790  -3.7264  -3.7261  -3.6250  -3.6241
    -3.3642  -3.3633  -3.3392  -3.3390  -3.2782  -3.2777  -3.2410  -3.2403
    -3.1467  -3.1451  -3.0745  -3.0739  -3.0516  -3.0508  -2.9395  -2.9392
    -2.9230  -2.9218  -2.8572  -2.8569  -2.7998  -2.7998  -2.6948  -2.6947
    -2.6063  -2.6060  -2.5586  -2.5579  -2.3894  -2.3881  -2.3814  -2.3797
    -2.3081  -2.3063  -2.2767  -2.2755  -2.1547  -2.1547  -2.1276  -2.1270
    -2.0474  -2.0473  -2.0143  -2.0142  -1.7971  -1.7955  -1.7484  -1.7468
    -1.5900  -1.5888  -1.5295  -1.5281  -1.4318  -1.4310  -1.3823  -1.3820
    -1.2440  -1.2438  -1.1905  -1.1901  -0.9497  -0.9493  -0.7805  -0.7798
    -0.5017  -0.5013  -0.4577  -0.4573   0.8397   0.8401   0.8793   0.8799
     1.3508   1.3512   1.4195   1.4198   4.3621   4.3634   4.3716   4.3729
     4.5448   4.5462   4.5572   4.5587   5.5292   5.5302   5.6995   5.7009
     6.0036   6.0042   6.1465   6.1476   6.3211   6.3212   6.4871   6.4876
     6.6522   6.6522   6.7276   6.7283   6.9543   6.9545   7.0536   7.0537
     7.3175   7.3186   7.3972   7.3973   7.6346   7.6366   7.8117   7.8130
     7.8691   7.8702   7.9130   7.9134   8.0439   8.0443   8.1206   8.1207
     8.1862

          k =-0.5000-0.7968-0.4959 (178080 PWs)   bands (ev):

   -19.9772 -19.9772 -19.9766 -19.9766 -19.5599 -19.5599 -19.5591 -19.5591
   -19.2608 -19.2608 -19.2597 -19.2597 -19.0615 -19.0615 -19.0606 -19.0606
   -17.9605 -17.9605 -17.9566 -17.9566 -17.7782 -17.7782 -17.7742 -17.7742
   -15.3502 -15.3502 -15.3484 -15.3484 -14.8711 -14.8711 -14.8690 -14.8690
   -14.0891 -14.0891 -14.0875 -14.0875 -12.8338 -12.8338 -12.8310 -12.8310
   -11.3617 -11.3617 -11.3606 -11.3606 -11.1445 -11.1445 -11.1427 -11.1427
   -11.0044 -11.0044 -11.0023 -11.0023 -10.8507 -10.8507 -10.8496 -10.8496
    -9.3011  -9.3011  -9.2987  -9.2987  -8.5231  -8.5231  -8.5221  -8.5221
    -8.4133  -8.4133  -8.4130  -8.4130  -8.1483  -8.1483  -8.1472  -8.1472
    -7.7079  -7.7079  -7.7063  -7.7063  -7.5186  -7.5186  -7.5157  -7.5157
    -7.3168  -7.3168  -7.3155  -7.3155  -6.8884  -6.8884  -6.8864  -6.8864
    -6.6071  -6.6071  -6.6055  -6.6055  -6.3352  -6.3352  -6.3331  -6.3331
    -5.9169  -5.9169  -5.9162  -5.9162  -5.6230  -5.6230  -5.6222  -5.6222
    -5.5651  -5.5651  -5.5648  -5.5648  -5.3780  -5.3780  -5.3772  -5.3772
    -5.1877  -5.1877  -5.1869  -5.1869  -5.0617  -5.0617  -5.0607  -5.0607
    -4.9631  -4.9631  -4.9625  -4.9625  -4.7316  -4.7316  -4.7308  -4.7308
    -4.5957  -4.5957  -4.5948  -4.5948  -4.3910  -4.3910  -4.3897  -4.3897
    -4.2226  -4.2226  -4.2212  -4.2212  -4.0246  -4.0246  -4.0242  -4.0242
    -3.8365  -3.8365  -3.8353  -3.8353  -3.6386  -3.6386  -3.6372  -3.6372
    -3.3561  -3.3561  -3.3553  -3.3553  -3.2790  -3.2790  -3.2786  -3.2786
    -3.1283  -3.1283  -3.1274  -3.1274  -2.9906  -2.9906  -2.9897  -2.9897
    -2.8813  -2.8813  -2.8808  -2.8808  -2.7248  -2.7248  -2.7240  -2.7240
    -2.5876  -2.5876  -2.5860  -2.5860  -2.3631  -2.3631  -2.3622  -2.3622
    -2.3157  -2.3157  -2.3148  -2.3148  -2.1354  -2.1354  -2.1350  -2.1350
    -2.0299  -2.0299  -2.0297  -2.0297  -1.7838  -1.7838  -1.7821  -1.7821
    -1.5629  -1.5629  -1.5615  -1.5615  -1.3895  -1.3895  -1.3884  -1.3884
    -1.2429  -1.2429  -1.2421  -1.2421  -0.8499  -0.8499  -0.8489  -0.8489
    -0.4808  -0.4808  -0.4804  -0.4804   0.8603   0.8603   0.8615   0.8615
     1.3846   1.3846   1.3860   1.3860   4.3664   4.3664   4.3677   4.3677
     4.5515   4.5515   4.5529   4.5529   5.6505   5.6505   5.6519   5.6519
     5.9446   5.9446   5.9459   5.9459   6.4615   6.4615   6.4619   6.4619
     6.7702   6.7702   6.7711   6.7711   7.0682   7.0682   7.0686   7.0686
     7.2670   7.2670   7.2679   7.2679   7.7186   7.7187   7.7200   7.7200
     7.8265   7.8265   7.8279   7.8279   8.1412   8.1412   8.1423   8.1423
     8.2681

     highest occupied, lowest unoccupied level (ev):     1.4526    4.3482

!    total energy              =   -2039.70371020 Ry
     Harris-Foulkes estimate   =   -2039.70371020 Ry
     estimated scf accuracy    <          1.4E-09 Ry

     total all-electron energy =     -7666.433662 Ry

     The total energy is the sum of the following terms:

     one-electron contribution =   -1275.11897897 Ry
     hartree contribution      =     803.79416997 Ry
     xc contribution           =    -464.01050150 Ry
     ewald contribution        =    -512.69101107 Ry
     Dispersion Correction     =      -0.78517426 Ry
     one-center paw contrib.   =    -590.89221437 Ry

     convergence has been achieved in  19 iterations

     Forces acting on atoms (cartesian axes, Ry/au):

     atom    1 type  4   force =    -0.00029921    0.00020427    0.00004584
     atom    2 type  4   force =     0.00029921   -0.00020427    0.00004584
     atom    3 type  4   force =     0.00059351    0.00043086    0.00018203
     atom    4 type  4   force =    -0.00059351   -0.00043086    0.00018203
     atom    5 type  4   force =     0.00043499   -0.00029696   -0.00014058
     atom    6 type  4   force =    -0.00043499    0.00029696   -0.00014058
     atom    7 type  4   force =    -0.00043621   -0.00031695   -0.00008744
     atom    8 type  4   force =     0.00043621    0.00031695   -0.00008744
     atom    9 type  4   force =     0.00037199   -0.00036594   -0.00050152
     atom   10 type  4   force =    -0.00037199    0.00036594   -0.00050152
     atom   11 type  4   force =    -0.00021533   -0.00032512   -0.00081819
     atom   12 type  4   force =     0.00021533    0.00032512   -0.00081819
     atom   13 type  4   force =     0.00025394   -0.00008620   -0.00022691
     atom   14 type  4   force =    -0.00025394    0.00008620   -0.00022691
     atom   15 type  4   force =    -0.00037599   -0.00021058   -0.00028787
     atom   16 type  4   force =     0.00037599    0.00021058   -0.00028787
     atom   17 type  1   force =     0.00062262   -0.00018342    0.00011220
     atom   18 type  1   force =    -0.00062262    0.00018342    0.00011220
     atom   19 type  1   force =    -0.00029363    0.00002440    0.00017281
     atom   20 type  1   force =     0.00029363   -0.00002440    0.00017281
     atom   21 type  1   force =     0.00021932    0.00021185   -0.00003192
     atom   22 type  1   force =    -0.00021932   -0.00021185   -0.00003192
     atom   23 type  1   force =    -0.00025473    0.00017946    0.00043954
     atom   24 type  1   force =     0.00025473   -0.00017946    0.00043954
     atom   25 type  1   force =     0.00014897    0.00023314    0.00010270
     atom   26 type  1   force =    -0.00014897   -0.00023314    0.00010270
     atom   27 type  1   force =    -0.00040695   -0.00005281   -0.00008334
     atom   28 type  1   force =     0.00040695    0.00005281   -0.00008334
     atom   29 type  1   force =     0.00000750   -0.00018820    0.00066399
     atom   30 type  1   force =    -0.00000750    0.00018820    0.00066399
     atom   31 type  1   force =     0.00016199   -0.00017121    0.00056176
     atom   32 type  1   force =    -0.00016199    0.00017121    0.00056176
     atom   33 type  1   force =     0.00094770    0.00142817   -0.00015351
     atom   34 type  1   force =    -0.00094770   -0.00142817   -0.00015351
     atom   35 type  1   force =    -0.00093443    0.00144809   -0.00013065
     atom   36 type  1   force =     0.00093443   -0.00144809   -0.00013065
     atom   37 type  3   force =     0.00068775   -0.00022253    0.00028675
     atom   38 type  3   force =    -0.00068775    0.00022253    0.00028675
     atom   39 type  3   force =    -0.00072697   -0.00022590    0.00027514
     atom   40 type  3   force =     0.00072697    0.00022590    0.00027514
     atom   41 type  1   force =     0.00074660   -0.00079950   -0.00015323
     atom   42 type  1   force =    -0.00074660    0.00079950   -0.00015323
     atom   43 type  1   force =    -0.00072356   -0.00081172   -0.00017655
     atom   44 type  1   force =     0.00072356    0.00081172   -0.00017655
     atom   45 type  3   force =    -0.00028299   -0.00033131   -0.00041302
     atom   46 type  3   force =     0.00028299    0.00033131   -0.00041302
     atom   47 type  3   force =     0.00027902   -0.00032149   -0.00039852
     atom   48 type  3   force =    -0.00027902    0.00032149   -0.00039852
     atom   49 type  3   force =     0.00042230    0.00068191   -0.00003339
     atom   50 type  3   force =    -0.00042230   -0.00068191   -0.00003339
     atom   51 type  3   force =    -0.00044068    0.00067929   -0.00003663
     atom   52 type  3   force =     0.00044068   -0.00067929   -0.00003663
     atom   53 type  1   force =    -0.00013944    0.00162652    0.00087801
     atom   54 type  1   force =     0.00013944   -0.00162652    0.00087801
     atom   55 type  1   force =     0.00022031    0.00163150    0.00089335
     atom   56 type  1   force =    -0.00022031   -0.00163150    0.00089335
     atom   57 type  1   force =     0.00021860    0.00035436    0.00000228
     atom   58 type  1   force =    -0.00021860   -0.00035436    0.00000228
     atom   59 type  1   force =    -0.00026714    0.00034183    0.00000618
     atom   60 type  1   force =     0.00026714   -0.00034183    0.00000618
     atom   61 type  3   force =    -0.00052581    0.00024656   -0.00023249
     atom   62 type  3   force =     0.00052581   -0.00024656   -0.00023249
     atom   63 type  3   force =     0.00051957    0.00024273   -0.00024717
     atom   64 type  3   force =    -0.00051957   -0.00024273   -0.00024717
     atom   65 type  3   force =    -0.00045276   -0.00045705   -0.00003020
     atom   66 type  3   force =     0.00045276    0.00045705   -0.00003020
     atom   67 type  3   force =     0.00045368   -0.00045294   -0.00002454
     atom   68 type  3   force =    -0.00045368    0.00045294   -0.00002454
     atom   69 type  1   force =     0.00015184   -0.00283692    0.00088152
     atom   70 type  1   force =    -0.00015184    0.00283692    0.00088152
     atom   71 type  1   force =    -0.00008997   -0.00284126    0.00086132
     atom   72 type  1   force =     0.00008997    0.00284126    0.00086132
     atom   73 type  3   force =     0.00019107    0.00026637    0.00044345
     atom   74 type  3   force =    -0.00019107   -0.00026637    0.00044345
     atom   75 type  3   force =    -0.00019249    0.00027493    0.00043204
     atom   76 type  3   force =     0.00019249   -0.00027493    0.00043204
     atom   77 type  3   force =    -0.00034333    0.00031455   -0.00012507
     atom   78 type  3   force =     0.00034333   -0.00031455   -0.00012507
     atom   79 type  3   force =     0.00035739    0.00030492   -0.00013730
     atom   80 type  3   force =    -0.00035739   -0.00030492   -0.00013730
     atom   81 type  1   force =     0.00011689    0.00187347    0.00066940
     atom   82 type  1   force =    -0.00011689   -0.00187347    0.00066940
     atom   83 type  1   force =    -0.00017564    0.00187600    0.00067277
     atom   84 type  1   force =     0.00017564   -0.00187600    0.00067277
     atom   85 type  1   force =    -0.00022192   -0.00159052    0.00016893
     atom   86 type  1   force =     0.00022192    0.00159052    0.00016893
     atom   87 type  1   force =     0.00024874   -0.00160689    0.00015948
     atom   88 type  1   force =    -0.00024874    0.00160689    0.00015948
     atom   89 type  3   force =    -0.00046534    0.00007621    0.00002705
     atom   90 type  3   force =     0.00046534   -0.00007621    0.00002705
     atom   91 type  3   force =     0.00046552    0.00007818    0.00003681
     atom   92 type  3   force =    -0.00046552   -0.00007818    0.00003681
     atom   93 type  3   force =    -0.00002341    0.00063085    0.00074713
     atom   94 type  3   force =     0.00002341   -0.00063085    0.00074713
     atom   95 type  3   force =     0.00004180    0.00063505    0.00075524
     atom   96 type  3   force =    -0.00004180   -0.00063505    0.00075524
     atom   97 type  1   force =     0.00045636    0.00051331   -0.00075915
     atom   98 type  1   force =    -0.00045636   -0.00051331   -0.00075915
     atom   99 type  1   force =    -0.00044688    0.00050011   -0.00075418
     atom  100 type  1   force =     0.00044688   -0.00050011   -0.00075418
     atom  101 type  3   force =    -0.00039051   -0.00007593   -0.00041780
     atom  102 type  3   force =     0.00039051    0.00007593   -0.00041780
     atom  103 type  3   force =     0.00039682   -0.00008326   -0.00042297
     atom  104 type  3   force =    -0.00039682    0.00008326   -0.00042297
     atom  105 type  3   force =     0.00005614   -0.00005222    0.00058657
     atom  106 type  3   force =    -0.00005614    0.00005222    0.00058657
     atom  107 type  3   force =    -0.00004226   -0.00007240    0.00057584
     atom  108 type  3   force =     0.00004226    0.00007240    0.00057584
     atom  109 type  3   force =    -0.00040674    0.00015292   -0.00018886
     atom  110 type  3   force =     0.00040674   -0.00015292   -0.00018886
     atom  111 type  3   force =     0.00040193    0.00014447   -0.00018969
     atom  112 type  3   force =    -0.00040193   -0.00014447   -0.00018969
     atom  113 type  1   force =    -0.00004650   -0.00034461   -0.00041342
     atom  114 type  1   force =     0.00004650    0.00034461   -0.00041342
     atom  115 type  1   force =     0.00003694   -0.00034387   -0.00041697
     atom  116 type  1   force =    -0.00003694    0.00034387   -0.00041697
     atom  117 type  3   force =    -0.00037588   -0.00071094   -0.00027837
     atom  118 type  3   force =     0.00037588    0.00071094   -0.00027837
     atom  119 type  3   force =     0.00037799   -0.00071350   -0.00027408
     atom  120 type  3   force =    -0.00037799    0.00071350   -0.00027408
     atom  121 type  3   force =     0.00053502   -0.00046347   -0.00015247
     atom  122 type  3   force =    -0.00053502    0.00046347   -0.00015247
     atom  123 type  3   force =    -0.00052887   -0.00046321   -0.00015711
     atom  124 type  3   force =     0.00052887    0.00046321   -0.00015711
     atom  125 type  3   force =     0.00011200    0.00103396    0.00017326
     atom  126 type  3   force =    -0.00011200   -0.00103396    0.00017326
     atom  127 type  3   force =    -0.00010081    0.00103433    0.00017396
     atom  128 type  3   force =     0.00010081   -0.00103433    0.00017396
     atom  129 type  1   force =     0.00045164   -0.00053177   -0.00046141
     atom  130 type  1   force =    -0.00045164    0.00053177   -0.00046141
     atom  131 type  1   force =    -0.00057454   -0.00055013   -0.00047364
     atom  132 type  1   force =     0.00057454    0.00055013   -0.00047364
     atom  133 type  3   force =     0.00051686    0.00014458    0.00002467
     atom  134 type  3   force =    -0.00051686   -0.00014458    0.00002467
     atom  135 type  3   force =    -0.00051725    0.00013069    0.00003453
     atom  136 type  3   force =     0.00051725   -0.00013069    0.00003453
     atom  137 type  3   force =    -0.00071074    0.00077284    0.00002948
     atom  138 type  3   force =     0.00071074   -0.00077284    0.00002948
     atom  139 type  3   force =     0.00072223    0.00075527    0.00003386
     atom  140 type  3   force =    -0.00072223   -0.00075527    0.00003386
     atom  141 type  3   force =    -0.00008943   -0.00011019   -0.00034931
     atom  142 type  3   force =     0.00008943    0.00011019   -0.00034931
     atom  143 type  3   force =     0.00007138   -0.00011841   -0.00034821
     atom  144 type  3   force =    -0.00007138    0.00011841   -0.00034821
     atom  145 type  2   force =     0.00018020    0.00016072   -0.00009125
     atom  146 type  2   force =    -0.00018020   -0.00016072   -0.00009125
     atom  147 type  2   force =    -0.00005820    0.00019103   -0.00006820
     atom  148 type  2   force =     0.00005820   -0.00019103   -0.00006820
     atom  149 type  3   force =     0.00011942   -0.00041910    0.00023409
     atom  150 type  3   force =    -0.00011942    0.00041910    0.00023409
     atom  151 type  3   force =    -0.00011437   -0.00041942    0.00021829
     atom  152 type  3   force =     0.00011437    0.00041942    0.00021829
     atom  153 type  3   force =     0.00027795   -0.00061516    0.00007861
     atom  154 type  3   force =    -0.00027795    0.00061516    0.00007861
     atom  155 type  3   force =    -0.00028841   -0.00061768    0.00010241
     atom  156 type  3   force =     0.00028841    0.00061768    0.00010241
     atom  157 type  3   force =    -0.00037119   -0.00054951   -0.00028037
     atom  158 type  3   force =     0.00037119    0.00054951   -0.00028037
     atom  159 type  3   force =     0.00033592   -0.00058706   -0.00029826
     atom  160 type  3   force =    -0.00033592    0.00058706   -0.00029826
     atom  161 type  2   force =     0.00047873   -0.00167934   -0.00112754
     atom  162 type  2   force =    -0.00047873    0.00167934   -0.00112754
     atom  163 type  2   force =    -0.00055326   -0.00169393   -0.00112410
     atom  164 type  2   force =     0.00055326    0.00169393   -0.00112410
     atom  165 type  3   force =     0.00030283    0.00003252    0.00031358
     atom  166 type  3   force =    -0.00030283   -0.00003252    0.00031358
     atom  167 type  3   force =    -0.00029436    0.00002604    0.00032271
     atom  168 type  3   force =     0.00029436   -0.00002604    0.00032271
     atom  169 type  3   force =     0.00033884   -0.00044305    0.00031885
     atom  170 type  3   force =    -0.00033884    0.00044305    0.00031885
     atom  171 type  3   force =    -0.00032531   -0.00044704    0.00031586
     atom  172 type  3   force =     0.00032531    0.00044704    0.00031586
     atom  173 type  3   force =    -0.00010451   -0.00014936   -0.00023753
     atom  174 type  3   force =     0.00010451    0.00014936   -0.00023753
     atom  175 type  3   force =     0.00010055   -0.00013117   -0.00025934
     atom  176 type  3   force =    -0.00010055    0.00013117   -0.00025934

     Total force =     0.013156     Total SCF correction =     0.000070


     Computing stress (Cartesian axis) and pressure

          total   stress  (Ry/bohr**3)                   (kbar)     P=   -3.03
  -0.00003356  -0.00000006   0.00000000         -4.94     -0.01      0.00
  -0.00000006  -0.00002131   0.00000000         -0.01     -3.13      0.00
   0.00000000   0.00000000  -0.00000693          0.00      0.00     -1.02


     Writing output data file scf.save
 
     init_run     :    160.81s CPU    164.36s WALL (       1 calls)
     electrons    :   7572.70s CPU   7802.32s WALL (       1 calls)
     forces       :     69.18s CPU     69.69s WALL (       1 calls)
     stress       :    358.93s CPU    359.81s WALL (       1 calls)

     Called by init_run:
     wfcinit      :    150.56s CPU    153.88s WALL (       1 calls)
     potinit      :      3.62s CPU      3.66s WALL (       1 calls)

     Called by electrons:
     c_bands      :   6885.77s CPU   7083.35s WALL (      19 calls)
     sum_band     :    655.32s CPU    683.80s WALL (      19 calls)
     v_of_rho     :      5.02s CPU      5.49s WALL (      20 calls)
     newd         :     11.96s CPU     15.09s WALL (      20 calls)
     PAW_pot      :     13.43s CPU     13.43s WALL (      20 calls)
     mix_rho      :      1.15s CPU      1.23s WALL (      19 calls)

     Called by c_bands:
     init_us_2    :     23.15s CPU     23.27s WALL (     328 calls)
     cegterg      :   6793.88s CPU   6991.14s WALL (     152 calls)

     Called by sum_band:
     sum_band:bec :      0.23s CPU      0.23s WALL (     152 calls)
     addusdens    :     11.60s CPU     14.78s WALL (      19 calls)

     Called by *egterg:
     h_psi        :   3614.83s CPU   3777.55s WALL (     843 calls)
     s_psi        :    832.47s CPU    832.67s WALL (     843 calls)
     g_psi        :     12.21s CPU     12.21s WALL (     683 calls)
     cdiaghg      :    289.17s CPU    289.21s WALL (     835 calls)

     Called by h_psi:
     h_psi:pot    :   3597.68s CPU   3760.13s WALL (     843 calls)
     h_psi:calbec :    824.07s CPU    824.94s WALL (     843 calls)
     vloc_psi     :   1940.93s CPU   2102.39s WALL (     843 calls)
     add_vuspsi   :    832.68s CPU    832.80s WALL (     843 calls)

     General routines
     calbec       :   1157.73s CPU   1158.92s WALL (    1035 calls)
     fft          :      4.56s CPU      5.38s WALL (     284 calls)
     fftw         :   1988.48s CPU   2174.31s WALL (  296954 calls)
 
     Parallel routines
     fft_scatter  :    506.15s CPU    693.19s WALL (  297238 calls)
 
     PWSCF        :     2h16m CPU        2h21m WALL

 
   This run was terminated on:  18:53:58  20Dec2017            

=------------------------------------------------------------------------------=
   JOB DONE.
=------------------------------------------------------------------------------=
