
     Program PWSCF v.6.1 (svn rev. 13369) starts on 22Dec2017 at  8: 2:25 

     This program is part of the open-source Quantum ESPRESSO suite
     for quantum simulation of materials; please cite
         "P. Giannozzi et al., J. Phys.:Condens. Matter 21 395502 (2009);
          URL http://www.quantum-espresso.org", 
     in publications or presentations arising from this work. More details at
     http://www.quantum-espresso.org/quote

     Parallel version (MPI), running on     8 processors
     R & G space division:  proc/nbgrp/npool/nimage =       8
     Waiting for input...
     Reading input from standard input

     Current dimensions of program PWSCF are:
     Max number of different atomic species (ntypx) = 10
     Max number of k-points (npk) =  40000
     Max angular momentum in pseudopotentials (lmaxx) =  3
               file C.pbe-n-kjpaw_psl.0.1.UPF: wavefunction(s)  2P renormalized
               file N.pbe-n-kjpaw_psl.0.1.UPF: wavefunction(s)  2P renormalized
               file H.pbe-kjpaw_psl.0.1.UPF: wavefunction(s)  1S renormalized
               file O.pbe-n-kjpaw_psl.0.1.UPF: wavefunction(s)  2P renormalized

     -------------------------------------
     Parameters for Dispersion Correction:
     -------------------------------------
       atom      VdW radius       C_6     

        C          2.744         60.710
        N          2.640         42.670
        H          1.892          4.857
        O          2.536         24.284

     Subspace diagonalization in iterative solution of the eigenvalue problem:
     a serial algorithm will be used

 
     Parallelization info
     --------------------
     sticks:   dense  smooth     PW     G-vecs:    dense   smooth      PW
     Min         700     700    187                69851    69851    9573
     Max         701     701    188                69856    69856    9574
     Sum        5603    5603   1497               558829   558829   76585
 


     bravais-lattice index     =            0
     lattice parameter (alat)  =      15.9512  a.u.
     unit-cell volume          =    4135.7042 (a.u.)^3
     number of atoms/cell      =           76
     number of atomic types    =            4
     number of electrons       =       208.00
     number of Kohn-Sham states=          124
     kinetic-energy cutoff     =     100.0000  Ry
     charge density cutoff     =     400.0000  Ry
     convergence threshold     =      1.0E-08
     mixing beta               =       0.5000
     number of iterations used =            8  plain     mixing
     Exchange-correlation      =  SLA  PW   PBX  PBC ( 1  4  3  4 0 0)

     celldm(1)=  15.951178  celldm(2)=   0.000000  celldm(3)=   0.000000
     celldm(4)=   0.000000  celldm(5)=   0.000000  celldm(6)=   0.000000

     crystal axes: (cart. coord. in units of alat)
               a(1) = (   1.000000   0.000000   0.000000 )  
               a(2) = (   0.000000   0.691861   0.000000 )  
               a(3) = (  -0.194425   0.000000   1.472829 )  

     reciprocal axes: (cart. coord. in units 2 pi/alat)
               b(1) = (  1.000000  0.000000  0.132008 )  
               b(2) = (  0.000000  1.445377  0.000000 )  
               b(3) = (  0.000000  0.000000  0.678966 )  


     PseudoPot. # 1 for  C read from file:
     /scratch/ahofstet/pseudo/C.pbe-n-kjpaw_psl.0.1.UPF
     MD5 check sum: 430fe95172b1e11ef3f8ed03bac87931
     Pseudo is Projector augmented-wave + core cor, Zval =  4.0
     Generated using "atomic" code by A. Dal Corso  v.5.0.99 svn rev. 10869
     Shape of augmentation charge: BESSEL
     Using radial grid of 1073 points,  4 beta functions with: 
                l(1) =   0
                l(2) =   0
                l(3) =   1
                l(4) =   1
     Q(r) pseudized with 0 coefficients 


     PseudoPot. # 2 for  N read from file:
     /scratch/ahofstet/pseudo/N.pbe-n-kjpaw_psl.0.1.UPF
     MD5 check sum: f73187c8b701007e77325f868c9291d7
     Pseudo is Projector augmented-wave + core cor, Zval =  5.0
     Generated using "atomic" code by A. Dal Corso  v.5.0.99 svn rev. 10869
     Shape of augmentation charge: PSQ
     Using radial grid of 1085 points,  4 beta functions with: 
                l(1) =   0
                l(2) =   0
                l(3) =   1
                l(4) =   1
     Q(r) pseudized with 0 coefficients 


     PseudoPot. # 3 for  H read from file:
     /scratch/ahofstet/pseudo/H.pbe-kjpaw_psl.0.1.UPF
     MD5 check sum: 94e484f906d9e9773b2f6e52662335b2
     Pseudo is Projector augmented-wave, Zval =  1.0
     Generated using "atomic" code by A. Dal Corso  v.5.0.99 svn rev. 10869
     Shape of augmentation charge: PSQ
     Using radial grid of  929 points,  2 beta functions with: 
                l(1) =   0
                l(2) =   0
     Q(r) pseudized with 0 coefficients 


     PseudoPot. # 4 for  O read from file:
     /scratch/ahofstet/pseudo/O.pbe-n-kjpaw_psl.0.1.UPF
     MD5 check sum: 3f94a2996a3169367d6eb21d9b593f20
     Pseudo is Projector augmented-wave + core cor, Zval =  6.0
     Generated using "atomic" code by A. Dal Corso  v.5.0.99 svn rev. 10869
     Shape of augmentation charge: BESSEL
     Using radial grid of 1095 points,  4 beta functions with: 
                l(1) =   0
                l(2) =   0
                l(3) =   1
                l(4) =   1
     Q(r) pseudized with 0 coefficients 


     atomic species   valence    mass     pseudopotential
        C              4.00    12.01070      C( 1.00)
        N              5.00    14.00670      N( 1.00)
        H              1.00     1.00794      H( 1.00)
        O              6.00    15.99940      O( 1.00)

      4 Sym. Ops., with inversion, found ( 2 have fractional translation)



   Cartesian axes

     site n.     atom                  positions (alat units)
         1           O   tau(   1) = (   0.4131556   0.2853525   1.2072396  )
         2           O   tau(   2) = (   0.8924198   0.6312831   0.2655891  )
         3           O   tau(   3) = (   0.3924198   0.4065087   0.2655891  )
         4           O   tau(   4) = (  -0.0868444   0.0605781   1.2072396  )
         5           O   tau(   5) = (   0.4428067   0.5415097   1.0974890  )
         6           O   tau(   6) = (   0.8627687   0.1955791   0.3753396  )
         7           O   tau(   7) = (   0.3627687   0.1503515   0.3753396  )
         8           O   tau(   8) = (  -0.0571933   0.4962820   1.0974890  )
         9           O   tau(   9) = (   0.5324686   0.1975061   0.8890903  )
        10           O   tau(  10) = (   0.7731068   0.5434367   0.5837383  )
        11           O   tau(  11) = (   0.2731068   0.4943550   0.5837383  )
        12           O   tau(  12) = (   0.0324686   0.1484245   0.8890903  )
        13           C   tau(  13) = (   0.6322129   0.2626531   1.0119950  )
        14           C   tau(  14) = (   0.6733624   0.6085837   0.4608336  )
        15           C   tau(  15) = (   0.1733624   0.4292080   0.4608336  )
        16           C   tau(  16) = (   0.1322129   0.0832775   1.0119950  )
        17           C   tau(  17) = (   0.5754779   0.2456796   1.1813843  )
        18           C   tau(  18) = (   0.7300975   0.5916102   0.2914444  )
        19           C   tau(  19) = (   0.2300975   0.4461815   0.2914444  )
        20           C   tau(  20) = (   0.0754779   0.1002509   1.1813843  )
        21           C   tau(  21) = (   0.3765079   0.4498337   1.2212732  )
        22           C   tau(  22) = (   0.9290675   0.1039031   0.2515554  )
        23           C   tau(  23) = (   0.4290675   0.2420275   0.2515554  )
        24           C   tau(  24) = (  -0.1234921   0.5879581   1.2212732  )
        25           C   tau(  25) = (   0.4179136   0.4722546   0.9434707  )
        26           C   tau(  26) = (   0.8876618   0.1263240   0.5293580  )
        27           C   tau(  27) = (   0.3876618   0.2196066   0.5293580  )
        28           C   tau(  28) = (  -0.0820864   0.5655371   0.9434707  )
        29           C   tau(  29) = (   0.5574175   0.3686042   0.8956332  )
        30           C   tau(  30) = (   0.7481578   0.0226736   0.5771955  )
        31           C   tau(  31) = (   0.2481578   0.3232570   0.5771955  )
        32           C   tau(  32) = (   0.0574175   0.6691876   0.8956332  )
        33           C   tau(  33) = (   0.4306209   0.5219127   1.3771468  )
        34           C   tau(  34) = (   0.8749545   0.1759821   0.0956818  )
        35           C   tau(  35) = (   0.3749545   0.1699485   0.0956818  )
        36           C   tau(  36) = (  -0.0693791   0.5158791   1.3771468  )
        37           H   tau(  37) = (   0.7587706   0.2354832   0.9990876  )
        38           H   tau(  38) = (   0.5468048   0.5814138   0.4737411  )
        39           H   tau(  39) = (   0.0468048   0.4563779   0.4737411  )
        40           H   tau(  40) = (   0.2587706   0.1104474   0.9990876  )
        41           H   tau(  41) = (   0.2454532   0.4511677   1.2117263  )
        42           H   tau(  42) = (   0.0601222   0.1052372   0.2611023  )
        43           H   tau(  43) = (   0.5601222   0.2406934   0.2611023  )
        44           H   tau(  44) = (   0.7454532   0.5866240   1.2117263  )
        45           H   tau(  45) = (   0.6306034   0.4133556   0.7982279  )
        46           H   tau(  46) = (   0.6749720   0.0674250   0.6746007  )
        47           H   tau(  47) = (   0.1749720   0.2785055   0.6746007  )
        48           H   tau(  48) = (   0.1306034   0.6244361   0.7982279  )
        49           H   tau(  49) = (   0.6559352   0.3139637   1.2584548  )
        50           H   tau(  50) = (   0.6496401   0.6598943   0.2143738  )
        51           H   tau(  51) = (   0.1496401   0.3778975   0.2143738  )
        52           H   tau(  52) = (   0.1559352   0.0319669   1.2584548  )
        53           H   tau(  53) = (   0.5854894   0.1198603   1.2148847  )
        54           H   tau(  54) = (   0.7200860   0.4657908   0.2579439  )
        55           H   tau(  55) = (   0.2200860   0.5720009   0.2579439  )
        56           H   tau(  56) = (   0.0854894   0.2260703   1.2148847  )
        57           H   tau(  57) = (   0.3081640   0.4015803   0.9424833  )
        58           H   tau(  58) = (  -0.0025886   0.0556498   0.5303453  )
        59           H   tau(  59) = (   0.4974114   0.2902808   0.5303453  )
        60           H   tau(  60) = (   0.8081640   0.6362114   0.9424833  )
        61           H   tau(  61) = (   0.4048239   0.5712870   0.8606997  )
        62           H   tau(  62) = (   0.9007515   0.2253564   0.6121289  )
        63           H   tau(  63) = (   0.4007515   0.1205741   0.6121289  )
        64           H   tau(  64) = (  -0.0951761   0.4665047   0.8606997  )
        65           H   tau(  65) = (   0.5588635   0.5069496   1.3938684  )
        66           H   tau(  66) = (   0.7467119   0.1610190   0.0789602  )
        67           H   tau(  67) = (   0.2467119   0.1849116   0.0789602  )
        68           H   tau(  68) = (   0.0588635   0.5308422   1.3938684  )
        69           H   tau(  69) = (   0.4037318   0.6492039   1.3785245  )
        70           H   tau(  70) = (   0.9018436   0.3032733   0.0943041  )
        71           H   tau(  71) = (   0.4018436   0.0426573   0.0943041  )
        72           H   tau(  72) = (  -0.0962682   0.3885878   1.3785245  )
        73           H   tau(  73) = (   0.3682744   0.4657441   1.4765665  )
        74           H   tau(  74) = (   0.9373010   0.1198136  -0.0037379  )
        75           H   tau(  75) = (   0.4373010   0.2261170  -0.0037379  )
        76           H   tau(  76) = (  -0.1317256   0.5720476   1.4765665  )

     number of k points=     8
                       cart. coord. in units 2pi/alat
        k(    1) = (   0.0000000   0.0000000   0.0000000), wk =   0.1666667
        k(    2) = (   0.0000000   0.0000000  -0.3394828), wk =   0.1666667
        k(    3) = (   0.0000000   0.4817922   0.0000000), wk =   0.3333333
        k(    4) = (   0.0000000   0.4817922  -0.3394828), wk =   0.3333333
        k(    5) = (  -0.5000000   0.0000000  -0.0660038), wk =   0.1666667
        k(    6) = (  -0.5000000   0.0000000  -0.4054866), wk =   0.1666667
        k(    7) = (  -0.5000000   0.4817922  -0.0660038), wk =   0.3333333
        k(    8) = (  -0.5000000   0.4817922  -0.4054866), wk =   0.3333333

     Dense  grid:   558829 G-vectors     FFT dimensions: ( 108,  72, 160)

     Estimated max dynamical RAM per process >     379.85MB

     Estimated total allocated dynamical RAM >    3038.78MB

     Check: negative/imaginary core charge=   -0.000002    0.000000

     Initial potential from superposition of free atoms

     starting charge  207.99860, renormalised to  208.00000
     Starting wfc are  184 randomized atomic wfcs
     Checking if some PAW data can be deallocated... 

     total cpu time spent up to now is       23.2 secs

     per-process dynamical memory:   278.5 Mb

     Self-consistent Calculation

     iteration #  1     ecut=   100.00 Ry     beta=0.50
     Davidson diagonalization with overlap
     ethr =  1.00E-02,  avg # of iterations =  3.9

     total cpu time spent up to now is       76.0 secs

     total energy              =    -988.70524606 Ry
     Harris-Foulkes estimate   =    -991.71303059 Ry
     estimated scf accuracy    <       6.27081119 Ry

     iteration #  2     ecut=   100.00 Ry     beta=0.50
     Davidson diagonalization with overlap
     ethr =  3.01E-03,  avg # of iterations =  2.0

     total cpu time spent up to now is      103.1 secs

     total energy              =    -988.99170408 Ry
     Harris-Foulkes estimate   =    -989.29665046 Ry
     estimated scf accuracy    <       0.73681537 Ry

     iteration #  3     ecut=   100.00 Ry     beta=0.50
     Davidson diagonalization with overlap
     ethr =  3.54E-04,  avg # of iterations =  5.0

     total cpu time spent up to now is      159.7 secs

     total energy              =    -989.53864338 Ry
     Harris-Foulkes estimate   =    -989.78442677 Ry
     estimated scf accuracy    <       0.71512247 Ry

     iteration #  4     ecut=   100.00 Ry     beta=0.50
     Davidson diagonalization with overlap
     ethr =  3.44E-04,  avg # of iterations =  1.2

     total cpu time spent up to now is      185.0 secs

     total energy              =    -989.36782438 Ry
     Harris-Foulkes estimate   =    -989.56221344 Ry
     estimated scf accuracy    <       0.27296816 Ry

     iteration #  5     ecut=   100.00 Ry     beta=0.50
     Davidson diagonalization with overlap
     ethr =  1.31E-04,  avg # of iterations =  4.9

     total cpu time spent up to now is      243.0 secs

     total energy              =    -989.49590226 Ry
     Harris-Foulkes estimate   =    -989.80564898 Ry
     estimated scf accuracy    <       0.77485305 Ry

     iteration #  6     ecut=   100.00 Ry     beta=0.50
     Davidson diagonalization with overlap
     ethr =  1.31E-04,  avg # of iterations =  2.2

     total cpu time spent up to now is      270.1 secs

     total energy              =    -989.41100140 Ry
     Harris-Foulkes estimate   =    -989.53176787 Ry
     estimated scf accuracy    <       0.20494794 Ry

     iteration #  7     ecut=   100.00 Ry     beta=0.50
     Davidson diagonalization with overlap
     ethr =  9.85E-05,  avg # of iterations =  6.0

     total cpu time spent up to now is      325.5 secs

     total energy              =    -989.54763994 Ry
     Harris-Foulkes estimate   =    -989.59005707 Ry
     estimated scf accuracy    <       0.10329056 Ry

     iteration #  8     ecut=   100.00 Ry     beta=0.50
     Davidson diagonalization with overlap
     ethr =  4.97E-05,  avg # of iterations =  1.1

     total cpu time spent up to now is      350.8 secs

     total energy              =    -989.54041244 Ry
     Harris-Foulkes estimate   =    -989.55192805 Ry
     estimated scf accuracy    <       0.02916210 Ry

     iteration #  9     ecut=   100.00 Ry     beta=0.50
     Davidson diagonalization with overlap
     ethr =  1.40E-05,  avg # of iterations =  4.9

     total cpu time spent up to now is      398.6 secs

     total energy              =    -989.55832214 Ry
     Harris-Foulkes estimate   =    -989.55850273 Ry
     estimated scf accuracy    <       0.00272555 Ry

     iteration # 10     ecut=   100.00 Ry     beta=0.50
     Davidson diagonalization with overlap
     ethr =  1.31E-06,  avg # of iterations =  2.0

     total cpu time spent up to now is      425.2 secs

     total energy              =    -989.55758024 Ry
     Harris-Foulkes estimate   =    -989.55838140 Ry
     estimated scf accuracy    <       0.00233332 Ry

     iteration # 11     ecut=   100.00 Ry     beta=0.50
     Davidson diagonalization with overlap
     ethr =  1.12E-06,  avg # of iterations =  1.6

     total cpu time spent up to now is      451.0 secs

     total energy              =    -989.55749703 Ry
     Harris-Foulkes estimate   =    -989.55769743 Ry
     estimated scf accuracy    <       0.00069307 Ry

     iteration # 12     ecut=   100.00 Ry     beta=0.50
     Davidson diagonalization with overlap
     ethr =  3.33E-07,  avg # of iterations =  4.0

     total cpu time spent up to now is      489.2 secs

     total energy              =    -989.55769482 Ry
     Harris-Foulkes estimate   =    -989.55770861 Ry
     estimated scf accuracy    <       0.00002361 Ry

     iteration # 13     ecut=   100.00 Ry     beta=0.50
     Davidson diagonalization with overlap
     ethr =  1.13E-08,  avg # of iterations =  4.0

     total cpu time spent up to now is      537.4 secs

     total energy              =    -989.55770556 Ry
     Harris-Foulkes estimate   =    -989.55771128 Ry
     estimated scf accuracy    <       0.00000891 Ry

     iteration # 14     ecut=   100.00 Ry     beta=0.50
     Davidson diagonalization with overlap
     ethr =  4.28E-09,  avg # of iterations =  5.0

     total cpu time spent up to now is      580.3 secs

     total energy              =    -989.55770763 Ry
     Harris-Foulkes estimate   =    -989.55770969 Ry
     estimated scf accuracy    <       0.00000344 Ry

     iteration # 15     ecut=   100.00 Ry     beta=0.50
     Davidson diagonalization with overlap
     ethr =  1.66E-09,  avg # of iterations =  3.1

     total cpu time spent up to now is      608.7 secs

     total energy              =    -989.55770816 Ry
     Harris-Foulkes estimate   =    -989.55770820 Ry
     estimated scf accuracy    <       0.00000009 Ry

     iteration # 16     ecut=   100.00 Ry     beta=0.50
     Davidson diagonalization with overlap
     ethr =  4.12E-11,  avg # of iterations =  4.2

     total cpu time spent up to now is      667.6 secs

     total energy              =    -989.55770890 Ry
     Harris-Foulkes estimate   =    -989.55770893 Ry
     estimated scf accuracy    <       0.00000080 Ry

     iteration # 17     ecut=   100.00 Ry     beta=0.50
     Davidson diagonalization with overlap
     ethr =  4.12E-11,  avg # of iterations =  1.0

     total cpu time spent up to now is      693.0 secs

     total energy              =    -989.55770858 Ry
     Harris-Foulkes estimate   =    -989.55770891 Ry
     estimated scf accuracy    <       0.00000075 Ry

     iteration # 18     ecut=   100.00 Ry     beta=0.50
     Davidson diagonalization with overlap
     ethr =  4.12E-11,  avg # of iterations =  4.0

     total cpu time spent up to now is      742.7 secs

     total energy              =    -989.55770868 Ry
     Harris-Foulkes estimate   =    -989.55770869 Ry
     estimated scf accuracy    <       0.00000004 Ry

     iteration # 19     ecut=   100.00 Ry     beta=0.50
     Davidson diagonalization with overlap
     ethr =  2.04E-11,  avg # of iterations =  1.0

     total cpu time spent up to now is      768.0 secs

     total energy              =    -989.55770867 Ry
     Harris-Foulkes estimate   =    -989.55770868 Ry
     estimated scf accuracy    <       0.00000002 Ry

     iteration # 20     ecut=   100.00 Ry     beta=0.50
     Davidson diagonalization with overlap
     ethr =  7.58E-12,  avg # of iterations =  4.0

     total cpu time spent up to now is      816.0 secs

     total energy              =    -989.55770868 Ry
     Harris-Foulkes estimate   =    -989.55770869 Ry
     estimated scf accuracy    <       0.00000002 Ry

     iteration # 21     ecut=   100.00 Ry     beta=0.50
     Davidson diagonalization with overlap
     ethr =  7.58E-12,  avg # of iterations =  1.0

     total cpu time spent up to now is      841.0 secs

     total energy              =    -989.55770868 Ry
     Harris-Foulkes estimate   =    -989.55770868 Ry
     estimated scf accuracy    <       0.00000001 Ry

     iteration # 22     ecut=   100.00 Ry     beta=0.50
     Davidson diagonalization with overlap
     ethr =  5.04E-12,  avg # of iterations =  4.0

     total cpu time spent up to now is      880.4 secs

     End of self-consistent calculation

          k = 0.0000 0.0000 0.0000 ( 69891 PWs)   bands (ev):

   -20.4701 -20.4563 -20.4270 -20.4249 -19.9018 -19.8963 -19.8892 -19.8863
   -18.6246 -18.6223 -18.6134 -18.6119 -12.7916 -12.7887 -12.7643 -12.7119
   -11.5900 -11.5663 -11.5464 -11.4213 -11.1844 -11.0613 -11.0185 -10.9823
    -9.4956  -9.4919  -9.3512  -9.2031  -8.1564  -8.1382  -8.0703  -8.0039
    -7.7003  -7.5562  -7.5048  -7.4086  -6.4813  -6.4777  -6.4396  -6.2742
    -6.2162  -6.1239  -5.8923  -5.8156  -5.5468  -5.3052  -5.2810  -5.2802
    -5.0089  -4.9459  -4.8411  -4.7778  -4.7013  -4.6608  -4.5902  -4.5895
    -3.9041  -3.9002  -3.8936  -3.8417  -3.5117  -3.4934  -3.3815  -3.3654
    -3.3537  -3.3021  -3.2466  -3.2161  -3.1422  -3.0134  -2.9694  -2.7829
    -2.7629  -2.6623  -2.6309  -2.6045  -2.4742  -2.3284  -2.3227  -2.2454
    -1.7354  -1.6499  -1.5566  -1.4781  -1.0706  -1.0693  -1.0105  -0.8178
    -0.7299  -0.6880  -0.6111  -0.5533  -0.5145  -0.5027  -0.4498  -0.3826
     0.1607   0.3198   0.5099   0.5624   0.6426   0.6639   0.7445   0.9685
     6.3689   6.5764   6.8774   7.0195   7.1268   7.1955   7.2384   7.2582
     7.5727   7.6497   7.8091   7.8553   7.9165   8.0257   8.0935   8.1033
     8.5973   8.6833   8.7084   8.7425

          k = 0.0000 0.0000-0.3395 ( 69898 PWs)   bands (ev):

   -20.4676 -20.4589 -20.4266 -20.4253 -19.9004 -19.8966 -19.8889 -19.8875
   -18.6236 -18.6233 -18.6127 -18.6126 -12.8080 -12.7946 -12.7458 -12.7060
   -11.6328 -11.5091 -11.5086 -11.4892 -11.1914 -11.0197 -11.0182 -10.9964
    -9.5821  -9.4079  -9.3612  -9.2030  -8.1514  -8.1398  -8.0760  -8.0015
    -7.6458  -7.5799  -7.5299  -7.4118  -6.5568  -6.5051  -6.3213  -6.2834
    -6.2117  -6.0642  -5.8700  -5.8503  -5.4778  -5.4071  -5.3279  -5.2732
    -5.0719  -4.9810  -4.8202  -4.7390  -4.7341  -4.6846  -4.5808  -4.4994
    -3.9590  -3.8775  -3.8607  -3.8444  -3.4974  -3.4655  -3.4079  -3.3803
    -3.3685  -3.3002  -3.1344  -3.1313  -3.1252  -3.0590  -2.9687  -2.8644
    -2.8559  -2.7541  -2.5896  -2.5691  -2.4697  -2.3310  -2.3005  -2.2187
    -1.7483  -1.6532  -1.5683  -1.4559  -1.1113  -1.0260  -0.9905  -0.8389
    -0.7187  -0.7022  -0.5842  -0.5454  -0.5368  -0.5312  -0.4065  -0.4041
     0.2094   0.2739   0.4988   0.6001   0.6063   0.6504   0.7607   0.9698
     6.4089   6.4706   6.9484   7.0107   7.0353   7.0490   7.2645   7.5509
     7.5862   7.6525   7.6750   7.7768   7.8299   8.0833   8.3354   8.3804
     8.4517   8.6050   8.6153   8.7711

          k = 0.0000 0.4818 0.0000 ( 69849 PWs)   bands (ev):

   -20.4496 -20.4391 -20.4272 -20.4226 -19.9044 -19.8984 -19.8962 -19.8910
   -18.6347 -18.6335 -18.6237 -18.6230 -12.8203 -12.8067 -12.7806 -12.7428
   -11.5984 -11.5655 -11.4300 -11.3936 -11.1842 -11.1233 -11.0104 -10.9954
    -9.3949  -9.3848  -9.3154  -9.2455  -8.2695  -8.2688  -7.9259  -7.8979
    -7.6835  -7.6251  -7.5068  -7.4407  -6.4341  -6.3679  -6.3626  -6.3095
    -6.2258  -6.2154  -5.8449  -5.8238  -5.4844  -5.3593  -5.2735  -5.2476
    -4.9697  -4.9563  -4.9115  -4.8023  -4.6981  -4.6750  -4.5761  -4.5137
    -4.0632  -3.9424  -3.8756  -3.8309  -3.7157  -3.5866  -3.4638  -3.4337
    -3.3064  -3.2713  -3.2504  -3.2194  -3.0968  -3.0710  -2.9749  -2.8498
    -2.7984  -2.7415  -2.5583  -2.5292  -2.4015  -2.3790  -2.3002  -2.2563
    -1.7662  -1.7416  -1.6221  -1.6028  -1.0580  -1.0214  -0.8806  -0.8275
    -0.6789  -0.6677  -0.5442  -0.5000  -0.4799  -0.4195  -0.3507  -0.3009
     0.2721   0.3549   0.4157   0.5051   0.6807   0.7280   0.7700   0.8678
     6.5236   6.5447   6.7725   6.9495   6.9704   7.0806   7.3221   7.6411
     7.6686   7.7808   7.9308   7.9469   7.9565   8.0358   8.1576   8.2294
     8.3525   8.3541   8.6393   8.6417

          k = 0.0000 0.4818-0.3395 ( 69854 PWs)   bands (ev):

   -20.4477 -20.4410 -20.4264 -20.4235 -19.9037 -19.8983 -19.8963 -19.8914
   -18.6341 -18.6340 -18.6234 -18.6234 -12.8274 -12.8092 -12.7717 -12.7414
   -11.6082 -11.5545 -11.4246 -11.4122 -11.1849 -11.0973 -11.0141 -11.0018
    -9.4564  -9.3304  -9.3054  -9.2545  -8.2715  -8.2704  -7.9285  -7.8976
    -7.6697  -7.6114  -7.5279  -7.4396  -6.4526  -6.4012  -6.3551  -6.2854
    -6.2398  -6.1552  -5.8402  -5.8113  -5.4602  -5.3939  -5.2903  -5.2529
    -4.9959  -4.9902  -4.8704  -4.7535  -4.7123  -4.7055  -4.5882  -4.5328
    -4.0540  -3.9592  -3.9250  -3.8217  -3.6960  -3.6264  -3.3978  -3.3959
    -3.2944  -3.2799  -3.1545  -3.1425  -3.0916  -3.0882  -3.0318  -2.9108
    -2.8283  -2.7120  -2.6100  -2.5959  -2.3750  -2.3636  -2.2906  -2.2300
    -1.7660  -1.7499  -1.6164  -1.6144  -1.0576  -1.0089  -0.8714  -0.8373
    -0.6807  -0.6716  -0.5251  -0.5233  -0.4596  -0.4188  -0.3336  -0.3216
     0.2830   0.3220   0.4285   0.5105   0.6852   0.7271   0.7506   0.8739
     6.4850   6.5288   6.7387   6.9401   7.0374   7.1119   7.3385   7.5981
     7.7288   7.7311   7.9274   7.9342   8.0941   8.1036   8.1553   8.1789
     8.3433   8.4181   8.5304   8.5761

          k =-0.5000 0.0000-0.0660 ( 69908 PWs)   bands (ev):

   -20.4498 -20.4498 -20.4398 -20.4398 -19.8992 -19.8992 -19.8872 -19.8872
   -18.6190 -18.6190 -18.6171 -18.6171 -12.7912 -12.7912 -12.7338 -12.7338
   -11.5797 -11.5797 -11.4951 -11.4951 -11.0969 -11.0969 -11.0243 -11.0243
    -9.4383  -9.4383  -9.3380  -9.3380  -8.1241  -8.1241  -8.0505  -8.0505
    -7.6595  -7.6595  -7.4304  -7.4304  -6.4930  -6.4930  -6.2966  -6.2966
    -6.0644  -6.0644  -5.9596  -5.9596  -5.4367  -5.4367  -5.2754  -5.2754
    -4.9255  -4.9255  -4.8553  -4.8553  -4.6930  -4.6930  -4.6082  -4.6082
    -3.9590  -3.9590  -3.9066  -3.9066  -3.5397  -3.5397  -3.4352  -3.4352
    -3.2970  -3.2970  -3.1906  -3.1906  -3.0766  -3.0766  -2.8512  -2.8512
    -2.7306  -2.7306  -2.5669  -2.5669  -2.4063  -2.4063  -2.2553  -2.2553
    -1.6344  -1.6344  -1.5769  -1.5769  -1.0146  -1.0146  -0.8927  -0.8927
    -0.6792  -0.6792  -0.6229  -0.6229  -0.5053  -0.5053  -0.4779  -0.4779
     0.4129   0.4129   0.5045   0.5045   0.5635   0.5635   0.8483   0.8483
     6.6235   6.6235   6.7940   6.7940   7.1071   7.1071   7.2623   7.2623
     7.5991   7.5991   7.7767   7.7767   8.1173   8.1173   8.2755   8.2755
     8.5716   8.5716   8.7188   8.7189

          k =-0.5000 0.0000-0.4055 ( 69872 PWs)   bands (ev):

   -20.4480 -20.4480 -20.4417 -20.4417 -19.8984 -19.8984 -19.8880 -19.8880
   -18.6181 -18.6181 -18.6180 -18.6180 -12.7997 -12.7997 -12.7244 -12.7244
   -11.5844 -11.5844 -11.4908 -11.4908 -11.1233 -11.1233 -10.9944 -10.9944
    -9.4731  -9.4731  -9.3094  -9.3094  -8.1247  -8.1247  -8.0520  -8.0520
    -7.6214  -7.6214  -7.4681  -7.4681  -6.5210  -6.5210  -6.2607  -6.2607
    -6.0183  -6.0183  -5.9737  -5.9737  -5.3924  -5.3924  -5.3705  -5.3705
    -4.9514  -4.9514  -4.8796  -4.8796  -4.6907  -4.6907  -4.5553  -4.5553
    -3.9687  -3.9687  -3.8941  -3.8941  -3.5506  -3.5506  -3.3908  -3.3908
    -3.2637  -3.2637  -3.1863  -3.1863  -3.0554  -3.0554  -2.9377  -2.9377
    -2.7863  -2.7863  -2.5219  -2.5219  -2.4088  -2.4088  -2.2432  -2.2432
    -1.6398  -1.6398  -1.5662  -1.5662  -1.0132  -1.0132  -0.8944  -0.8944
    -0.7041  -0.7041  -0.5944  -0.5944  -0.5178  -0.5178  -0.4674  -0.4674
     0.4478   0.4478   0.4539   0.4539   0.5707   0.5707   0.8524   0.8524
     6.5827   6.5827   6.7890   6.7890   7.0455   7.0455   7.3626   7.3626
     7.6106   7.6106   7.7878   7.7878   8.0599   8.0599   8.4510   8.4510
     8.6195   8.6196   8.6455   8.6455

          k =-0.5000 0.4818-0.0660 ( 69772 PWs)   bands (ev):

   -20.4387 -20.4387 -20.4305 -20.4305 -19.9008 -19.9008 -19.8942 -19.8942
   -18.6297 -18.6297 -18.6279 -18.6279 -12.8022 -12.8022 -12.7741 -12.7741
   -11.5257 -11.5257 -11.4767 -11.4767 -11.0959 -11.0959 -11.0592 -11.0592
    -9.3606  -9.3606  -9.3078  -9.3078  -8.1124  -8.1124  -8.0661  -8.0661
    -7.6525  -7.6525  -7.4809  -7.4809  -6.3958  -6.3958  -6.2885  -6.2885
    -6.0755  -6.0755  -6.0149  -6.0149  -5.4741  -5.4741  -5.3497  -5.3497
    -4.9194  -4.9194  -4.8106  -4.8106  -4.7198  -4.7198  -4.5502  -4.5502
    -3.9275  -3.9275  -3.8173  -3.8173  -3.5807  -3.5807  -3.5330  -3.5330
    -3.3089  -3.3089  -3.2311  -3.2311  -3.0782  -3.0782  -2.9616  -2.9616
    -2.7089  -2.7089  -2.5349  -2.5349  -2.4133  -2.4133  -2.2805  -2.2805
    -1.6919  -1.6919  -1.6478  -1.6478  -1.0025  -1.0025  -0.8912  -0.8912
    -0.6256  -0.6256  -0.6011  -0.6011  -0.4114  -0.4114  -0.3635  -0.3635
     0.4492   0.4492   0.5070   0.5070   0.5811   0.5811   0.7364   0.7364
     6.6498   6.6498   6.7722   6.7722   7.1406   7.1406   7.5343   7.5343
     7.6606   7.6606   7.8648   7.8648   7.9868   7.9868   8.3165   8.3165
     8.5137   8.5137   8.6814   8.6814

          k =-0.5000 0.4818-0.4055 ( 69842 PWs)   bands (ev):

   -20.4373 -20.4373 -20.4320 -20.4320 -19.9002 -19.9002 -19.8947 -19.8947
   -18.6288 -18.6288 -18.6287 -18.6287 -12.8087 -12.8087 -12.7673 -12.7673
   -11.5395 -11.5395 -11.4620 -11.4620 -11.1124 -11.1124 -11.0421 -11.0421
    -9.3878  -9.3878  -9.2842  -9.2842  -8.1115  -8.1115  -8.0698  -8.0698
    -7.6191  -7.6191  -7.5117  -7.5117  -6.4202  -6.4202  -6.2654  -6.2654
    -6.0693  -6.0693  -6.0006  -6.0006  -5.4417  -5.4417  -5.3990  -5.3990
    -4.9315  -4.9315  -4.8161  -4.8161  -4.6782  -4.6782  -4.5824  -4.5824
    -3.9376  -3.9376  -3.8489  -3.8489  -3.5847  -3.5847  -3.4923  -3.4923
    -3.2819  -3.2819  -3.1830  -3.1830  -3.0823  -3.0823  -3.0016  -3.0016
    -2.7300  -2.7300  -2.5551  -2.5551  -2.4058  -2.4058  -2.2626  -2.2626
    -1.6984  -1.6984  -1.6438  -1.6438  -0.9935  -0.9935  -0.9000  -0.9000
    -0.6325  -0.6325  -0.5912  -0.5912  -0.4081  -0.4081  -0.3626  -0.3626
     0.4476   0.4476   0.4828   0.4828   0.5931   0.5931   0.7418   0.7418
     6.6215   6.6215   6.7960   6.7960   7.1368   7.1368   7.4107   7.4107
     7.7324   7.7324   7.9274   7.9274   8.1066   8.1066   8.2337   8.2337
     8.4982   8.4982   8.7532   8.7533

     highest occupied, lowest unoccupied level (ev):     0.9698    6.3689

!    total energy              =    -989.55770868 Ry
     Harris-Foulkes estimate   =    -989.55770868 Ry
     estimated scf accuracy    <          9.4E-10 Ry

     total all-electron energy =     -3682.058679 Ry

     The total energy is the sum of the following terms:

     one-electron contribution =    -531.51288954 Ry
     hartree contribution      =     348.77286770 Ry
     xc contribution           =    -217.17774308 Ry
     ewald contribution        =    -315.45772460 Ry
     Dispersion Correction     =      -0.36339167 Ry
     one-center paw contrib.   =    -273.81882749 Ry

     convergence has been achieved in  22 iterations

     Forces acting on atoms (cartesian axes, Ry/au):

     atom    1 type  4   force =    -0.00382962   -0.00240609   -0.00015096
     atom    2 type  4   force =     0.00382962   -0.00240609    0.00015096
     atom    3 type  4   force =     0.00382962    0.00240609    0.00015096
     atom    4 type  4   force =    -0.00382962    0.00240609   -0.00015096
     atom    5 type  4   force =     0.00033247   -0.00113844    0.00138517
     atom    6 type  4   force =    -0.00033247   -0.00113844   -0.00138517
     atom    7 type  4   force =    -0.00033247    0.00113844   -0.00138517
     atom    8 type  4   force =     0.00033247    0.00113844    0.00138517
     atom    9 type  4   force =    -0.00429640    0.00051413   -0.00050490
     atom   10 type  4   force =     0.00429640    0.00051413    0.00050490
     atom   11 type  4   force =     0.00429640   -0.00051413    0.00050490
     atom   12 type  4   force =    -0.00429640   -0.00051413   -0.00050490
     atom   13 type  1   force =     0.00256444    0.00053974    0.00021211
     atom   14 type  1   force =    -0.00256444    0.00053974   -0.00021211
     atom   15 type  1   force =    -0.00256444   -0.00053974   -0.00021211
     atom   16 type  1   force =     0.00256444   -0.00053974    0.00021211
     atom   17 type  1   force =     0.00281546   -0.00482269    0.00106425
     atom   18 type  1   force =    -0.00281546   -0.00482269   -0.00106425
     atom   19 type  1   force =    -0.00281546    0.00482269   -0.00106425
     atom   20 type  1   force =     0.00281546    0.00482269    0.00106425
     atom   21 type  1   force =    -0.00009150    0.00113091    0.00038755
     atom   22 type  1   force =     0.00009150    0.00113091   -0.00038755
     atom   23 type  1   force =     0.00009150   -0.00113091   -0.00038755
     atom   24 type  1   force =    -0.00009150   -0.00113091    0.00038755
     atom   25 type  1   force =     0.00218478   -0.00020204    0.00144196
     atom   26 type  1   force =    -0.00218478   -0.00020204   -0.00144196
     atom   27 type  1   force =    -0.00218478    0.00020204   -0.00144196
     atom   28 type  1   force =     0.00218478    0.00020204    0.00144196
     atom   29 type  1   force =    -0.00155396   -0.00155734    0.00036199
     atom   30 type  1   force =     0.00155396   -0.00155734   -0.00036199
     atom   31 type  1   force =     0.00155396    0.00155734   -0.00036199
     atom   32 type  1   force =    -0.00155396    0.00155734    0.00036199
     atom   33 type  1   force =    -0.00112453   -0.00093186   -0.00070691
     atom   34 type  1   force =     0.00112453   -0.00093186    0.00070691
     atom   35 type  1   force =     0.00112453    0.00093186    0.00070691
     atom   36 type  1   force =    -0.00112453    0.00093186   -0.00070691
     atom   37 type  3   force =    -0.00126076    0.00010909    0.00010274
     atom   38 type  3   force =     0.00126076    0.00010909   -0.00010274
     atom   39 type  3   force =     0.00126076   -0.00010909   -0.00010274
     atom   40 type  3   force =    -0.00126076   -0.00010909    0.00010274
     atom   41 type  3   force =     0.00257066   -0.00069761   -0.00097098
     atom   42 type  3   force =    -0.00257066   -0.00069761    0.00097098
     atom   43 type  3   force =    -0.00257066    0.00069761    0.00097098
     atom   44 type  3   force =     0.00257066    0.00069761   -0.00097098
     atom   45 type  3   force =    -0.00079085   -0.00010683   -0.00072900
     atom   46 type  3   force =     0.00079085   -0.00010683    0.00072900
     atom   47 type  3   force =     0.00079085    0.00010683    0.00072900
     atom   48 type  3   force =    -0.00079085    0.00010683   -0.00072900
     atom   49 type  3   force =    -0.00041015    0.00004943   -0.00063661
     atom   50 type  3   force =     0.00041015    0.00004943    0.00063661
     atom   51 type  3   force =     0.00041015   -0.00004943    0.00063661
     atom   52 type  3   force =    -0.00041015   -0.00004943   -0.00063661
     atom   53 type  3   force =     0.00073485    0.00436777   -0.00058590
     atom   54 type  3   force =    -0.00073485    0.00436777    0.00058590
     atom   55 type  3   force =    -0.00073485   -0.00436777    0.00058590
     atom   56 type  3   force =     0.00073485   -0.00436777   -0.00058590
     atom   57 type  3   force =    -0.00040196    0.00106511   -0.00132922
     atom   58 type  3   force =     0.00040196    0.00106511    0.00132922
     atom   59 type  3   force =     0.00040196   -0.00106511    0.00132922
     atom   60 type  3   force =    -0.00040196   -0.00106511   -0.00132922
     atom   61 type  3   force =     0.00128914    0.00168501   -0.00076741
     atom   62 type  3   force =    -0.00128914    0.00168501    0.00076741
     atom   63 type  3   force =    -0.00128914   -0.00168501    0.00076741
     atom   64 type  3   force =     0.00128914   -0.00168501   -0.00076741
     atom   65 type  3   force =    -0.00095134    0.00077541   -0.00000668
     atom   66 type  3   force =     0.00095134    0.00077541    0.00000668
     atom   67 type  3   force =     0.00095134   -0.00077541    0.00000668
     atom   68 type  3   force =    -0.00095134   -0.00077541   -0.00000668
     atom   69 type  3   force =     0.00055768    0.00072809   -0.00136322
     atom   70 type  3   force =    -0.00055768    0.00072809    0.00136322
     atom   71 type  3   force =    -0.00055768   -0.00072809    0.00136322
     atom   72 type  3   force =     0.00055768   -0.00072809   -0.00136322
     atom   73 type  3   force =     0.00052342   -0.00005599   -0.00069166
     atom   74 type  3   force =    -0.00052342   -0.00005599    0.00069166
     atom   75 type  3   force =    -0.00052342    0.00005599    0.00069166
     atom   76 type  3   force =     0.00052342    0.00005599   -0.00069166

     Total force =     0.023868     Total SCF correction =     0.000082


     Computing stress (Cartesian axis) and pressure

          total   stress  (Ry/bohr**3)                   (kbar)     P=   -8.17
  -0.00006507   0.00000000   0.00001308         -9.57      0.00      1.92
   0.00000000  -0.00005707   0.00000000          0.00     -8.40      0.00
   0.00001308   0.00000000  -0.00004448          1.92      0.00     -6.54


     Writing output data file scf.save
 
     init_run     :     21.92s CPU     22.47s WALL (       1 calls)
     electrons    :    840.91s CPU    857.24s WALL (       1 calls)
     forces       :     11.10s CPU     11.19s WALL (       1 calls)
     stress       :     35.09s CPU     35.20s WALL (       1 calls)

     Called by init_run:
     wfcinit      :     14.72s CPU     15.16s WALL (       1 calls)
     potinit      :      2.57s CPU      2.60s WALL (       1 calls)

     Called by electrons:
     c_bands      :    748.48s CPU    761.98s WALL (      22 calls)
     sum_band     :     78.91s CPU     80.82s WALL (      22 calls)
     v_of_rho     :      1.84s CPU      1.99s WALL (      23 calls)
     newd         :      3.89s CPU      4.68s WALL (      23 calls)
     PAW_pot      :      7.08s CPU      7.08s WALL (      23 calls)
     mix_rho      :      0.46s CPU      0.49s WALL (      22 calls)

     Called by c_bands:
     init_us_2    :      4.83s CPU      4.86s WALL (     376 calls)
     cegterg      :    729.22s CPU    742.65s WALL (     176 calls)

     Called by sum_band:
     sum_band:bec :      0.05s CPU      0.05s WALL (     176 calls)
     addusdens    :      4.06s CPU      4.80s WALL (      22 calls)

     Called by *egterg:
     h_psi        :    418.36s CPU    424.52s WALL (     746 calls)
     s_psi        :     72.71s CPU     72.71s WALL (     746 calls)
     g_psi        :      2.32s CPU      2.32s WALL (     562 calls)
     cdiaghg      :     32.84s CPU     32.85s WALL (     738 calls)

     Called by h_psi:
     h_psi:pot    :    416.01s CPU    422.12s WALL (     746 calls)
     h_psi:calbec :     77.57s CPU     77.80s WALL (     746 calls)
     vloc_psi     :    266.01s CPU    271.90s WALL (     746 calls)
     add_vuspsi   :     72.42s CPU     72.42s WALL (     746 calls)

     General routines
     calbec       :    111.72s CPU    112.03s WALL (     962 calls)
     fft          :      2.16s CPU      2.40s WALL (     323 calls)
     fftw         :    285.55s CPU    292.10s WALL (  152730 calls)
 
     Parallel routines
     fft_scatter  :     89.20s CPU     93.58s WALL (  153053 calls)
 
     PWSCF        : 15m14.16s CPU    16m 5.83s WALL

 
   This run was terminated on:   8:18:31  22Dec2017            

=------------------------------------------------------------------------------=
   JOB DONE.
=------------------------------------------------------------------------------=
