
     Program PWSCF v.6.1 (svn rev. 13369) starts on  4Nov2017 at  7:45:48 

     This program is part of the open-source Quantum ESPRESSO suite
     for quantum simulation of materials; please cite
         "P. Giannozzi et al., J. Phys.:Condens. Matter 21 395502 (2009);
          URL http://www.quantum-espresso.org", 
     in publications or presentations arising from this work. More details at
     http://www.quantum-espresso.org/quote

     Parallel version (MPI), running on     8 processors
     R & G space division:  proc/nbgrp/npool/nimage =       8
     Waiting for input...
     Reading input from standard input

     Current dimensions of program PWSCF are:
     Max number of different atomic species (ntypx) = 10
     Max number of k-points (npk) =  40000
     Max angular momentum in pseudopotentials (lmaxx) =  3
               file C.pbe-n-kjpaw_psl.0.1.UPF: wavefunction(s)  2P renormalized
               file N.pbe-n-kjpaw_psl.0.1.UPF: wavefunction(s)  2P renormalized
               file H.pbe-kjpaw_psl.0.1.UPF: wavefunction(s)  1S renormalized
               file O.pbe-n-kjpaw_psl.0.1.UPF: wavefunction(s)  2P renormalized

     -------------------------------------
     Parameters for Dispersion Correction:
     -------------------------------------
       atom      VdW radius       C_6     

        C          2.744         60.710
        N          2.640         42.670
        H          1.892          4.857
        O          2.536         24.284

     Subspace diagonalization in iterative solution of the eigenvalue problem:
     a serial algorithm will be used

 
     Parallelization info
     --------------------
     sticks:   dense  smooth     PW     G-vecs:    dense   smooth      PW
     Min         635     635    170                63402    63402    8936
     Max         637     637    171                63403    63403    8941
     Sum        5085    5085   1367               507221   507221   71519
 


     bravais-lattice index     =            0
     lattice parameter (alat)  =       9.0287  a.u.
     unit-cell volume          =    3754.4630 (a.u.)^3
     number of atoms/cell      =           60
     number of atomic types    =            4
     number of electrons       =       192.00
     number of Kohn-Sham states=          115
     kinetic-energy cutoff     =     100.0000  Ry
     charge density cutoff     =     400.0000  Ry
     convergence threshold     =      1.0E-08
     mixing beta               =       0.5000
     number of iterations used =            8  plain     mixing
     Exchange-correlation      =  SLA  PW   PBX  PBC ( 1  4  3  4 0 0)

     celldm(1)=   9.028734  celldm(2)=   0.000000  celldm(3)=   0.000000
     celldm(4)=   0.000000  celldm(5)=   0.000000  celldm(6)=   0.000000

     crystal axes: (cart. coord. in units of alat)
               a(1) = (   1.000000   0.000000   0.000000 )  
               a(2) = (   0.000000   1.958663   0.000000 )  
               a(3) = (   0.000000   0.000000   2.604400 )  

     reciprocal axes: (cart. coord. in units 2 pi/alat)
               b(1) = (  1.000000  0.000000  0.000000 )  
               b(2) = (  0.000000  0.510552  0.000000 )  
               b(3) = (  0.000000  0.000000  0.383966 )  


     PseudoPot. # 1 for  C read from file:
     /scratch/ahofstet/pseudo/C.pbe-n-kjpaw_psl.0.1.UPF
     MD5 check sum: 430fe95172b1e11ef3f8ed03bac87931
     Pseudo is Projector augmented-wave + core cor, Zval =  4.0
     Generated using "atomic" code by A. Dal Corso  v.5.0.99 svn rev. 10869
     Shape of augmentation charge: BESSEL
     Using radial grid of 1073 points,  4 beta functions with: 
                l(1) =   0
                l(2) =   0
                l(3) =   1
                l(4) =   1
     Q(r) pseudized with 0 coefficients 


     PseudoPot. # 2 for  N read from file:
     /scratch/ahofstet/pseudo/N.pbe-n-kjpaw_psl.0.1.UPF
     MD5 check sum: f73187c8b701007e77325f868c9291d7
     Pseudo is Projector augmented-wave + core cor, Zval =  5.0
     Generated using "atomic" code by A. Dal Corso  v.5.0.99 svn rev. 10869
     Shape of augmentation charge: PSQ
     Using radial grid of 1085 points,  4 beta functions with: 
                l(1) =   0
                l(2) =   0
                l(3) =   1
                l(4) =   1
     Q(r) pseudized with 0 coefficients 


     PseudoPot. # 3 for  H read from file:
     /scratch/ahofstet/pseudo/H.pbe-kjpaw_psl.0.1.UPF
     MD5 check sum: 94e484f906d9e9773b2f6e52662335b2
     Pseudo is Projector augmented-wave, Zval =  1.0
     Generated using "atomic" code by A. Dal Corso  v.5.0.99 svn rev. 10869
     Shape of augmentation charge: PSQ
     Using radial grid of  929 points,  2 beta functions with: 
                l(1) =   0
                l(2) =   0
     Q(r) pseudized with 0 coefficients 


     PseudoPot. # 4 for  O read from file:
     /scratch/ahofstet/pseudo/O.pbe-n-kjpaw_psl.0.1.UPF
     MD5 check sum: 3f94a2996a3169367d6eb21d9b593f20
     Pseudo is Projector augmented-wave + core cor, Zval =  6.0
     Generated using "atomic" code by A. Dal Corso  v.5.0.99 svn rev. 10869
     Shape of augmentation charge: BESSEL
     Using radial grid of 1095 points,  4 beta functions with: 
                l(1) =   0
                l(2) =   0
                l(3) =   1
                l(4) =   1
     Q(r) pseudized with 0 coefficients 


     atomic species   valence    mass     pseudopotential
        C              4.00    12.01070      C( 1.00)
        N              5.00    14.00670      N( 1.00)
        H              1.00     1.00794      H( 1.00)
        O              6.00    15.99940      O( 1.00)

      2 Sym. Ops. (no inversion) found ( 1 have fractional translation)



   Cartesian axes

     site n.     atom                  positions (alat units)
         1           O   tau(   1) = (   0.1680780   0.9392463   1.4369991  )
         2           O   tau(   2) = (   0.3318998   1.0193872   0.1348250  )
         3           O   tau(   3) = (   0.8319220   1.9185778   2.4696002  )
         4           O   tau(   4) = (   0.6681002   0.0400557   1.1673748  )
         5           H   tau(   5) = (   0.1674807   1.1187258   1.5410227  )
         6           H   tau(   6) = (   0.3325003   0.8399107   0.2388568  )
         7           H   tau(   7) = (   0.8325193   0.1393943   2.3655765  )
         8           H   tau(   8) = (   0.6674997   1.8192422   1.0633430  )
         9           O   tau(   9) = (   0.8575457   0.5100141   0.8635277  )
        10           O   tau(  10) = (   0.6425991   1.4486762   2.1656176  )
        11           O   tau(  11) = (   0.1424543   1.4893456   0.4386720  )
        12           O   tau(  12) = (   0.3574009   0.4693447   1.7409817  )
        13           H   tau(  13) = (   0.7787853   0.3399430   0.9539818  )
        14           H   tau(  14) = (   0.7213395   1.6187458   2.2561327  )
        15           H   tau(  15) = (   0.2212147   1.3192745   0.3482179  )
        16           H   tau(  16) = (   0.2786605   0.6394143   1.6504666  )
        17           O   tau(  17) = (   0.7588931   1.5037471   0.8615274  )
        18           O   tau(  18) = (   0.7410040   0.4549250   2.1637781  )
        19           O   tau(  19) = (   0.2411069   0.5244156   0.4406723  )
        20           O   tau(  20) = (   0.2589960   1.4342565   1.7428212  )
        21           H   tau(  21) = (   0.9037239   1.4906766   0.7126895  )
        22           H   tau(  22) = (   0.5961773   0.4679965   2.0149417  )
        23           H   tau(  23) = (   0.0962761   0.5113451   0.5895103  )
        24           H   tau(  24) = (   0.4038227   1.4473280   1.8916576  )
        25           C   tau(  25) = (   0.3498898   0.9650556   1.2137296  )
        26           C   tau(  26) = (   0.1500629   0.9935877   2.5159742  )
        27           C   tau(  27) = (   0.6501102   1.9443871   0.0884701  )
        28           C   tau(  28) = (   0.8499371   0.0142563   1.3906250  )
        29           C   tau(  29) = (   0.4780687   0.7190212   1.1171695  )
        30           C   tau(  30) = (   1.0220217   1.2396152   2.4193009  )
        31           C   tau(  31) = (   0.5219313   1.6983527   0.1850302  )
        32           C   tau(  32) = (  -0.0220217   0.2602837   1.4872983  )
        33           H   tau(  33) = (   0.4088200   0.5149074   1.1909216  )
        34           H   tau(  34) = (   0.0913533   1.4437553   2.4929783  )
        35           H   tau(  35) = (   0.5911800   1.4942389   0.1112782  )
        36           H   tau(  36) = (   0.9086467   0.4644239   1.4136210  )
        37           C   tau(  37) = (   0.7116961   0.7428533   0.9450305  )
        38           C   tau(  38) = (   0.7884134   1.2158460   2.2471647  )
        39           C   tau(  39) = (   0.2883039   1.7221847   0.3571693  )
        40           C   tau(  40) = (   0.2115866   0.2365145   1.6594345  )
        41           C   tau(  41) = (   0.8187852   1.0030298   0.8614845  )
        42           C   tau(  42) = (   0.6811824   0.9556446   2.1636832  )
        43           C   tau(  43) = (   0.1812148   0.0236983   0.4407153  )
        44           C   tau(  44) = (   0.3188176   1.9349761   1.7429161  )
        45           H   tau(  45) = (   1.0038349   1.0155431   0.7295080  )
        46           H   tau(  46) = (   0.4961424   0.9431855   2.0317345  )
        47           H   tau(  47) = (  -0.0038349   0.0362116   0.5726918  )
        48           H   tau(  48) = (   0.5038576   1.9225170   1.8748648  )
        49           C   tau(  49) = (   0.6710122   1.2430272   0.9419881  )
        50           C   tau(  50) = (   0.8289277   0.7156379   2.2442426  )
        51           C   tau(  51) = (   0.3289878   0.2636957   0.3602117  )
        52           C   tau(  52) = (   0.1710723   1.6949694   1.6623567  )
        53           C   tau(  53) = (   0.4379259   1.2281701   1.1165596  )
        54           C   tau(  54) = (   0.0619222   0.7304602   2.4188786  )
        55           C   tau(  55) = (   0.5620741   0.2488386   0.1856401  )
        56           C   tau(  56) = (   0.9380778   1.7097917   1.4877206  )
        57           H   tau(  57) = (   0.3311596   1.4184234   1.1827852  )
        58           H   tau(  58) = (   0.1686572   0.5401870   2.4851390  )
        59           H   tau(  59) = (   0.6688404   0.4390919   0.1194145  )
        60           H   tau(  60) = (   0.8313428   1.5195185   1.4214602  )

     number of k points=    12
                       cart. coord. in units 2pi/alat
        k(    1) = (   0.0000000   0.0000000   0.0000000), wk =   0.1250000
        k(    2) = (   0.0000000   0.0000000  -0.1919828), wk =   0.1250000
        k(    3) = (   0.0000000  -0.2552762   0.0000000), wk =   0.1250000
        k(    4) = (   0.0000000  -0.2552762  -0.1919828), wk =   0.1250000
        k(    5) = (   0.2500000   0.0000000   0.0000000), wk =   0.2500000
        k(    6) = (   0.2500000   0.0000000  -0.1919828), wk =   0.2500000
        k(    7) = (   0.2500000  -0.2552762   0.0000000), wk =   0.2500000
        k(    8) = (   0.2500000  -0.2552762  -0.1919828), wk =   0.2500000
        k(    9) = (  -0.5000000   0.0000000   0.0000000), wk =   0.1250000
        k(   10) = (  -0.5000000   0.0000000  -0.1919828), wk =   0.1250000
        k(   11) = (  -0.5000000  -0.2552762   0.0000000), wk =   0.1250000
        k(   12) = (  -0.5000000  -0.2552762  -0.1919828), wk =   0.1250000

     Dense  grid:   507221 G-vectors     FFT dimensions: (  60, 120, 150)

     Estimated max dynamical RAM per process >     377.41MB

     Estimated total allocated dynamical RAM >    3019.24MB

     Check: negative/imaginary core charge=   -0.000002    0.000000

     Initial potential from superposition of free atoms

     starting charge  191.99876, renormalised to  192.00000
     Starting wfc are  168 randomized atomic wfcs
     Checking if some PAW data can be deallocated... 

     total cpu time spent up to now is       20.3 secs

     per-process dynamical memory:   325.9 Mb

     Self-consistent Calculation

     iteration #  1     ecut=   100.00 Ry     beta=0.50
     Davidson diagonalization with overlap
     ethr =  1.00E-02,  avg # of iterations =  4.0

     total cpu time spent up to now is       79.8 secs

     total energy              =    -969.95317436 Ry
     Harris-Foulkes estimate   =    -973.23461344 Ry
     estimated scf accuracy    <       6.09303672 Ry

     iteration #  2     ecut=   100.00 Ry     beta=0.50
     Davidson diagonalization with overlap
     ethr =  3.17E-03,  avg # of iterations =  2.0

     total cpu time spent up to now is      111.4 secs

     total energy              =    -970.46118284 Ry
     Harris-Foulkes estimate   =    -970.70883152 Ry
     estimated scf accuracy    <       0.59015634 Ry

     iteration #  3     ecut=   100.00 Ry     beta=0.50
     Davidson diagonalization with overlap
     ethr =  3.07E-04,  avg # of iterations =  5.0

     total cpu time spent up to now is      178.6 secs

     total energy              =    -970.98552457 Ry
     Harris-Foulkes estimate   =    -971.19821556 Ry
     estimated scf accuracy    <       0.51596127 Ry

     iteration #  4     ecut=   100.00 Ry     beta=0.50
     Davidson diagonalization with overlap
     ethr =  2.69E-04,  avg # of iterations =  3.7

     total cpu time spent up to now is      210.0 secs

     total energy              =    -970.92437954 Ry
     Harris-Foulkes estimate   =    -971.01374365 Ry
     estimated scf accuracy    <       0.13965773 Ry

     iteration #  5     ecut=   100.00 Ry     beta=0.50
     Davidson diagonalization with overlap
     ethr =  7.27E-05,  avg # of iterations =  5.2

     total cpu time spent up to now is      276.1 secs

     total energy              =    -970.98087711 Ry
     Harris-Foulkes estimate   =    -971.11780763 Ry
     estimated scf accuracy    <       0.25136710 Ry

     iteration #  6     ecut=   100.00 Ry     beta=0.50
     Davidson diagonalization with overlap
     ethr =  7.27E-05,  avg # of iterations =  6.7

     total cpu time spent up to now is      324.9 secs

     total energy              =    -971.03338936 Ry
     Harris-Foulkes estimate   =    -971.03449041 Ry
     estimated scf accuracy    <       0.00235861 Ry

     iteration #  7     ecut=   100.00 Ry     beta=0.50
     Davidson diagonalization with overlap
     c_bands:  1 eigenvalues not converged
     ethr =  1.23E-06,  avg # of iterations =  7.7

     total cpu time spent up to now is      393.4 secs

     total energy              =    -971.03498953 Ry
     Harris-Foulkes estimate   =    -971.03541226 Ry
     estimated scf accuracy    <       0.00129312 Ry

     iteration #  8     ecut=   100.00 Ry     beta=0.50
     Davidson diagonalization with overlap
     c_bands:  1 eigenvalues not converged
     c_bands:  1 eigenvalues not converged
     ethr =  6.74E-07,  avg # of iterations =  4.2

     total cpu time spent up to now is      424.6 secs

     total energy              =    -971.03490744 Ry
     Harris-Foulkes estimate   =    -971.03504816 Ry
     estimated scf accuracy    <       0.00039722 Ry

     iteration #  9     ecut=   100.00 Ry     beta=0.50
     Davidson diagonalization with overlap
     c_bands:  1 eigenvalues not converged
     ethr =  2.07E-07,  avg # of iterations =  5.4

     total cpu time spent up to now is      471.8 secs

     total energy              =    -971.03503985 Ry
     Harris-Foulkes estimate   =    -971.03504127 Ry
     estimated scf accuracy    <       0.00000501 Ry

     iteration # 10     ecut=   100.00 Ry     beta=0.50
     Davidson diagonalization with overlap
     ethr =  2.61E-09,  avg # of iterations =  4.5

     total cpu time spent up to now is      526.9 secs

     total energy              =    -971.03504214 Ry
     Harris-Foulkes estimate   =    -971.03504310 Ry
     estimated scf accuracy    <       0.00000243 Ry

     iteration # 11     ecut=   100.00 Ry     beta=0.50
     Davidson diagonalization with overlap
     ethr =  1.27E-09,  avg # of iterations =  2.4

     total cpu time spent up to now is      557.0 secs

     total energy              =    -971.03504235 Ry
     Harris-Foulkes estimate   =    -971.03504239 Ry
     estimated scf accuracy    <       0.00000031 Ry

     iteration # 12     ecut=   100.00 Ry     beta=0.50
     Davidson diagonalization with overlap
     ethr =  1.62E-10,  avg # of iterations =  4.0

     total cpu time spent up to now is      613.4 secs

     total energy              =    -971.03504259 Ry
     Harris-Foulkes estimate   =    -971.03504261 Ry
     estimated scf accuracy    <       0.00000004 Ry

     iteration # 13     ecut=   100.00 Ry     beta=0.50
     Davidson diagonalization with overlap
     ethr =  2.21E-11,  avg # of iterations =  3.7

     total cpu time spent up to now is      646.6 secs

     End of self-consistent calculation

          k = 0.0000 0.0000 0.0000 ( 63387 PWs)   bands (ev):

   -20.0901 -20.0037 -19.9724 -19.9198 -19.8409 -19.7873 -19.6876 -19.6223
   -19.5622 -19.5537 -19.5477 -19.4521 -14.2249 -14.2217 -14.1623 -14.1502
   -11.6205 -11.5407 -11.5270 -11.4867 -11.4679 -11.4175 -11.4096 -11.3753
    -8.9841  -8.9428  -8.8945  -8.8777  -8.6911  -8.5608  -8.4792  -8.4337
    -7.9480  -7.7690  -7.7371  -7.6743  -6.0906  -5.9682  -5.9151  -5.7271
    -5.6862  -5.6794  -5.6217  -5.5029  -5.4456  -5.3455  -5.3200  -5.2294
    -5.2124  -5.0683  -4.9977  -4.8655  -3.8510  -3.8155  -3.6679  -3.6080
    -3.5678  -3.3752  -3.3265  -3.3233  -3.3130  -3.2413  -3.1867  -3.1349
    -3.0360  -3.0207  -3.0172  -2.7539  -2.7471  -2.7006  -2.7001  -2.5972
    -2.3249  -2.3112  -2.2898  -2.1845  -2.0498  -1.9051  -1.8102  -1.5870
    -1.5138  -1.3135  -1.2807  -1.1364  -0.5297  -0.4117  -0.2624  -0.1328
     1.0305   1.1634   1.1752   1.2178   1.2184   1.3109   1.3568   1.6667
     5.8444   5.9390   5.9624   6.0141   6.0710   6.1634   6.2303   6.3876
     6.6599   7.0885   7.1196   7.3321   8.0334   8.1062   8.2609   8.3238
     8.6273   9.1308   9.1639

          k = 0.0000 0.0000-0.1920 ( 63466 PWs)   bands (ev):

   -20.0607 -20.0606 -19.9333 -19.9333 -19.8109 -19.8104 -19.6662 -19.6660
   -19.5661 -19.5654 -19.4836 -19.4832 -14.2234 -14.2234 -14.1562 -14.1561
   -11.5936 -11.5933 -11.4848 -11.4845 -11.4623 -11.4618 -11.3828 -11.3822
    -8.9449  -8.9448  -8.9141  -8.9140  -8.6199  -8.6198  -8.4524  -8.4524
    -7.8852  -7.8850  -7.6829  -7.6829  -5.9633  -5.9630  -5.8184  -5.8184
    -5.7883  -5.7883  -5.6191  -5.6190  -5.3224  -5.3220  -5.2325  -5.2322
    -5.1501  -5.1497  -4.9448  -4.9448  -3.8348  -3.8347  -3.6454  -3.6454
    -3.4781  -3.4781  -3.3232  -3.3230  -3.2773  -3.2767  -3.1062  -3.1059
    -3.0358  -3.0356  -2.9224  -2.9219  -2.7467  -2.7465  -2.6514  -2.6510
    -2.2661  -2.2656  -2.1720  -2.1719  -2.1420  -2.1419  -1.6299  -1.6293
    -1.3770  -1.3762  -1.2385  -1.2376  -0.4812  -0.4810  -0.1855  -0.1852
     1.0975   1.0977   1.1776   1.1780   1.2327   1.2328   1.5614   1.5615
     5.8802   5.8805   5.9953   5.9962   6.1180   6.1188   6.3390   6.3391
     6.8145   6.8146   7.2009   7.2011   8.0187   8.0190   8.3623   8.3623
     8.9811   8.9814   9.2756

          k = 0.0000-0.2553 0.0000 ( 63456 PWs)   bands (ev):

   -20.0286 -20.0286 -19.9657 -19.9657 -19.8079 -19.8079 -19.7056 -19.7056
   -19.5275 -19.5275 -19.4837 -19.4837 -14.1978 -14.1978 -14.1826 -14.1826
   -11.5965 -11.5965 -11.5544 -11.5544 -11.4010 -11.4010 -11.3784 -11.3784
    -8.9783  -8.9783  -8.8274  -8.8274  -8.6392  -8.6392  -8.4853  -8.4853
    -7.7825  -7.7825  -7.7367  -7.7367  -5.9572  -5.9572  -5.8702  -5.8702
    -5.7293  -5.7293  -5.6935  -5.6935  -5.4456  -5.4456  -5.1549  -5.1549
    -5.0804  -5.0804  -4.9694  -4.9694  -3.8267  -3.8267  -3.6803  -3.6803
    -3.5606  -3.5606  -3.5206  -3.5206  -3.3700  -3.3700  -3.0715  -3.0715
    -2.8650  -2.8650  -2.7736  -2.7736  -2.6447  -2.6447  -2.5568  -2.5568
    -2.3054  -2.3054  -2.0795  -2.0795  -1.8999  -1.8999  -1.7714  -1.7714
    -1.5490  -1.5490  -1.3727  -1.3727  -0.3796  -0.3796  -0.3251  -0.3251
     1.1754   1.1754   1.1962   1.1962   1.3351   1.3351   1.4035   1.4035
     5.8683   5.8683   6.0146   6.0146   6.1797   6.1797   6.2740   6.2740
     6.9726   6.9726   7.3218   7.3218   8.1162   8.1162   8.5780   8.5780
     8.7039   8.7040   9.0015

          k = 0.0000-0.2553-0.1920 ( 63392 PWs)   bands (ev):

   -20.0205 -20.0205 -19.9808 -19.9808 -19.7799 -19.7799 -19.7321 -19.7321
   -19.5092 -19.5092 -19.4966 -19.4966 -14.1969 -14.1969 -14.1836 -14.1836
   -11.5844 -11.5844 -11.5689 -11.5689 -11.3978 -11.3978 -11.3792 -11.3792
    -8.9472  -8.9472  -8.8856  -8.8856  -8.5716  -8.5716  -8.5280  -8.5280
    -7.7768  -7.7768  -7.7377  -7.7377  -6.0010  -6.0010  -5.8777  -5.8777
    -5.7261  -5.7261  -5.6496  -5.6496  -5.3397  -5.3397  -5.2922  -5.2922
    -5.0136  -5.0136  -5.0035  -5.0035  -3.8036  -3.8036  -3.7303  -3.7303
    -3.5601  -3.5601  -3.5407  -3.5407  -3.2861  -3.2861  -3.1113  -3.1113
    -2.8546  -2.8546  -2.7659  -2.7659  -2.6431  -2.6431  -2.5933  -2.5933
    -2.2181  -2.2181  -2.1648  -2.1648  -1.8674  -1.8674  -1.8116  -1.8116
    -1.4818  -1.4818  -1.4165  -1.4165  -0.3751  -0.3751  -0.3283  -0.3283
     1.1791   1.1791   1.1896   1.1896   1.3706   1.3706   1.3713   1.3713
     5.8803   5.8803   6.0036   6.0036   6.1911   6.1911   6.2661   6.2661
     7.1101   7.1101   7.1216   7.1216   8.2197   8.2197   8.4276   8.4276
     8.8361   8.8363   8.9994

          k = 0.2500 0.0000 0.0000 ( 63409 PWs)   bands (ev):

   -20.0642 -20.0017 -19.9571 -19.9151 -19.8285 -19.7951 -19.6747 -19.6313
   -19.5705 -19.5605 -19.5387 -19.4708 -14.2127 -14.1761 -14.1604 -14.1316
   -11.6293 -11.5655 -11.5548 -11.5272 -11.5063 -11.4960 -11.4610 -11.4533
    -8.9564  -8.9187  -8.8818  -8.8566  -8.6415  -8.6114  -8.5537  -8.5285
    -7.8688  -7.7514  -7.7107  -7.6543  -6.0706  -5.9213  -5.8875  -5.7432
    -5.7306  -5.6445  -5.5588  -5.5405  -5.4944  -5.3783  -5.3164  -5.1980
    -5.1276  -5.0095  -4.9866  -4.8746  -4.0380  -3.9428  -3.9038  -3.7824
    -3.5920  -3.5476  -3.4361  -3.3530  -3.3033  -3.2399  -3.1864  -3.1077
    -3.0066  -2.9925  -2.8574  -2.8162  -2.7212  -2.6328  -2.6233  -2.5484
    -2.3304  -2.2319  -2.1850  -2.1521  -2.0639  -1.9798  -1.7865  -1.5752
    -1.5639  -1.3753  -1.2641  -1.1746  -0.3182  -0.2498  -0.1308  -0.0551
     1.1195   1.3045   1.3301   1.3650   1.4408   1.4418   1.5171   1.6768
     5.6983   5.8267   5.9426   6.0013   6.0649   6.1151   6.1201   6.1966
     7.0576   7.0772   7.3826   7.5530   7.7380   8.3059   8.4125   8.4777
     8.5872   8.6195   9.2686

          k = 0.2500 0.0000-0.1920 ( 63414 PWs)   bands (ev):

   -20.0411 -20.0410 -19.9282 -19.9281 -19.8108 -19.8103 -19.6579 -19.6578
   -19.5716 -19.5708 -19.4955 -19.4951 -14.1994 -14.1993 -14.1411 -14.1410
   -11.6047 -11.6043 -11.5421 -11.5415 -11.4867 -11.4859 -11.4645 -11.4638
    -8.9231  -8.9230  -8.8905  -8.8903  -8.5964  -8.5963  -8.5656  -8.5654
    -7.8233  -7.8230  -7.6691  -7.6691  -5.9995  -5.9989  -5.8073  -5.8069
    -5.6855  -5.6852  -5.6044  -5.6043  -5.3879  -5.3873  -5.2722  -5.2719
    -5.0623  -5.0618  -4.9257  -4.9256  -3.9960  -3.9959  -3.8315  -3.8312
    -3.5703  -3.5702  -3.4221  -3.4218  -3.2522  -3.2522  -3.1780  -3.1777
    -2.9469  -2.9468  -2.7767  -2.7765  -2.7242  -2.7241  -2.6018  -2.6015
    -2.3439  -2.3435  -2.1691  -2.1683  -1.9999  -1.9993  -1.6705  -1.6700
    -1.4440  -1.4432  -1.2310  -1.2301  -0.2888  -0.2885  -0.0877  -0.0875
     1.1825   1.1826   1.3647   1.3653   1.4443   1.4446   1.6063   1.6066
     5.7449   5.7451   5.9846   5.9847   6.0808   6.0814   6.1666   6.1674
     7.1465   7.1467   7.3401   7.3406   8.0051   8.0051   8.4265   8.4269
     8.7875   8.7876   9.0949

          k = 0.2500-0.2553 0.0000 ( 63428 PWs)   bands (ev):

   -20.0078 -20.0078 -19.9613 -19.9613 -19.7949 -19.7949 -19.7183 -19.7183
   -19.5275 -19.5275 -19.4935 -19.4935 -14.1761 -14.1761 -14.1650 -14.1650
   -11.5990 -11.5990 -11.5593 -11.5593 -11.4941 -11.4941 -11.4585 -11.4585
    -8.9147  -8.9147  -8.7830  -8.7830  -8.6987  -8.6987  -8.5332  -8.5332
    -7.7785  -7.7785  -7.7242  -7.7242  -5.9395  -5.9395  -5.8196  -5.8196
    -5.7640  -5.7640  -5.6142  -5.6142  -5.4426  -5.4426  -5.1682  -5.1682
    -5.0910  -5.0910  -4.9596  -4.9596  -4.0179  -4.0179  -3.9436  -3.9436
    -3.6267  -3.6267  -3.4676  -3.4676  -3.2840  -3.2840  -2.9706  -2.9706
    -2.8540  -2.8540  -2.8131  -2.8131  -2.6779  -2.6779  -2.4933  -2.4933
    -2.2543  -2.2543  -2.0480  -2.0480  -1.9325  -1.9325  -1.7706  -1.7706
    -1.6636  -1.6636  -1.3307  -1.3307  -0.2113  -0.2113  -0.1832  -0.1832
     1.2599   1.2599   1.3784   1.3784   1.4392   1.4392   1.5449   1.5449
     5.8496   5.8496   5.8988   5.8988   6.0562   6.0562   6.1565   6.1565
     7.2696   7.2696   7.6167   7.6167   8.1602   8.1602   8.4019   8.4019
     8.6162   8.6163   8.8644

          k = 0.2500-0.2553-0.1920 ( 63412 PWs)   bands (ev):

   -20.0017 -20.0017 -19.9714 -19.9714 -19.7747 -19.7747 -19.7378 -19.7378
   -19.5138 -19.5138 -19.5040 -19.5040 -14.1754 -14.1754 -14.1657 -14.1657
   -11.5878 -11.5878 -11.5756 -11.5756 -11.4812 -11.4812 -11.4664 -11.4664
    -8.8873  -8.8873  -8.8460  -8.8460  -8.6168  -8.6168  -8.5819  -8.5819
    -7.7626  -7.7626  -7.7374  -7.7374  -5.9578  -5.9578  -5.8307  -5.8307
    -5.7146  -5.7146  -5.6502  -5.6502  -5.3464  -5.3464  -5.2945  -5.2945
    -5.0097  -5.0097  -4.9946  -4.9946  -4.0007  -4.0007  -3.9882  -3.9882
    -3.5483  -3.5483  -3.5308  -3.5308  -3.2367  -3.2367  -3.0510  -3.0510
    -2.7962  -2.7962  -2.7811  -2.7811  -2.6730  -2.6730  -2.5545  -2.5545
    -2.1803  -2.1803  -2.1664  -2.1664  -1.8825  -1.8825  -1.8429  -1.8429
    -1.4778  -1.4778  -1.4397  -1.4397  -0.2074  -0.2074  -0.1861  -0.1861
     1.2604   1.2604   1.3758   1.3758   1.4485   1.4485   1.5379   1.5379
     5.8578   5.8578   5.8810   5.8810   6.0980   6.0980   6.1192   6.1192
     7.4335   7.4335   7.4361   7.4361   8.2476   8.2476   8.2695   8.2695
     8.7489   8.7491   8.8101

          k =-0.5000 0.0000 0.0000 ( 63356 PWs)   bands (ev):

   -20.0180 -20.0179 -19.9273 -19.9272 -19.8086 -19.8080 -19.6512 -19.6511
   -19.5742 -19.5734 -19.5102 -19.5098 -14.1727 -14.1726 -14.1271 -14.1269
   -11.6247 -11.6236 -11.6107 -11.6100 -11.5687 -11.5677 -11.4636 -11.4631
    -8.8998  -8.8997  -8.8276  -8.8270  -8.7566  -8.7560  -8.5225  -8.5224
    -7.7878  -7.7875  -7.6520  -7.6520  -5.9975  -5.9974  -5.7760  -5.7754
    -5.6757  -5.6755  -5.5437  -5.5435  -5.4164  -5.4161  -5.2696  -5.2696
    -5.0410  -5.0409  -4.9248  -4.9247  -4.1949  -4.1948  -4.0015  -4.0013
    -3.5489  -3.5487  -3.4562  -3.4558  -3.2529  -3.2529  -3.1620  -3.1614
    -2.9618  -2.9613  -2.9225  -2.9222  -2.5628  -2.5627  -2.5200  -2.5193
    -2.3309  -2.3309  -2.0935  -2.0934  -2.0164  -2.0156  -1.6772  -1.6769
    -1.5295  -1.5294  -1.2237  -1.2235  -0.1250  -0.1247  -0.0413  -0.0410
     1.3536   1.3539   1.5715   1.5720   1.6690   1.6696   1.6959   1.6965
     5.4246   5.4246   5.6544   5.6545   6.1958   6.1961   6.2812   6.2817
     7.3333   7.3341   7.5376   7.5377   8.1558   8.1561   8.4511   8.4512
     8.6879   8.6882   8.8483

          k =-0.5000 0.0000-0.1920 ( 63312 PWs)   bands (ev):

   -20.0180 -20.0179 -19.9274 -19.9273 -19.8084 -19.8078 -19.6515 -19.6514
   -19.5740 -19.5732 -19.5102 -19.5098 -14.1727 -14.1726 -14.1271 -14.1269
   -11.6310 -11.6299 -11.5974 -11.5967 -11.5762 -11.5751 -11.4632 -11.4626
    -8.9001  -8.9000  -8.8119  -8.8112  -8.7744  -8.7737  -8.5214  -8.5212
    -7.7842  -7.7839  -7.6530  -7.6529  -6.0325  -6.0319  -5.7852  -5.7847
    -5.5712  -5.5704  -5.5432  -5.5432  -5.4486  -5.4478  -5.3097  -5.3095
    -5.0138  -5.0132  -4.9444  -4.9441  -4.1855  -4.1852  -4.0187  -4.0185
    -3.5425  -3.5419  -3.4763  -3.4761  -3.2060  -3.2058  -3.1175  -3.1167
    -3.0385  -3.0382  -2.9201  -2.9197  -2.5749  -2.5742  -2.5547  -2.5544
    -2.2545  -2.2544  -2.0791  -2.0786  -2.0385  -2.0375  -1.6977  -1.6971
    -1.5255  -1.5246  -1.2255  -1.2247  -0.1224  -0.1220  -0.0437  -0.0434
     1.3538   1.3542   1.5707   1.5712   1.6712   1.6719   1.6943   1.6951
     5.4737   5.4739   5.5927   5.5930   6.1946   6.1951   6.2793   6.2802
     7.3654   7.3662   7.7879   7.7885   7.8032   7.8039   8.3747   8.3749
     8.7471   8.7475   9.1395

          k =-0.5000-0.2553 0.0000 ( 63460 PWs)   bands (ev):

   -19.9785 -19.9785 -19.9644 -19.9644 -19.7743 -19.7743 -19.7391 -19.7391
   -19.5265 -19.5265 -19.5048 -19.5048 -14.1513 -14.1513 -14.1489 -14.1489
   -11.6076 -11.6076 -11.6056 -11.6056 -11.5424 -11.5424 -11.5300 -11.5300
    -8.8237  -8.8237  -8.7993  -8.7993  -8.7104  -8.7104  -8.6022  -8.6022
    -7.7758  -7.7758  -7.7108  -7.7108  -5.8928  -5.8928  -5.8331  -5.8331
    -5.7238  -5.7238  -5.5785  -5.5785  -5.4369  -5.4369  -5.1939  -5.1939
    -5.0541  -5.0541  -4.9553  -4.9553  -4.1737  -4.1737  -4.1712  -4.1712
    -3.6712  -3.6712  -3.4661  -3.4661  -3.2573  -3.2573  -2.9977  -2.9977
    -2.8487  -2.8487  -2.6646  -2.6646  -2.5824  -2.5824  -2.5763  -2.5763
    -2.2094  -2.2094  -2.0803  -2.0803  -1.8879  -1.8879  -1.8354  -1.8354
    -1.7266  -1.7266  -1.3092  -1.3092  -0.0922  -0.0922  -0.0789  -0.0789
     1.4489   1.4489   1.4540   1.4540   1.6918   1.6918   1.7054   1.7054
     5.4695   5.4695   5.6345   5.6345   6.1532   6.1532   6.2504   6.2504
     7.6342   7.6342   7.7395   7.7395   8.2820   8.2820   8.5306   8.5306
     8.5973   8.5973   8.7731

          k =-0.5000-0.2553-0.1920 ( 63392 PWs)   bands (ev):

   -19.9719 -19.9719 -19.9718 -19.9718 -19.7571 -19.7571 -19.7568 -19.7568
   -19.5153 -19.5153 -19.5148 -19.5148 -14.1502 -14.1502 -14.1500 -14.1500
   -11.6068 -11.6068 -11.6058 -11.6058 -11.5369 -11.5369 -11.5363 -11.5363
    -8.8129  -8.8129  -8.8126  -8.8126  -8.6571  -8.6571  -8.6567  -8.6567
    -7.7424  -7.7424  -7.7420  -7.7420  -5.8498  -5.8498  -5.8493  -5.8493
    -5.6760  -5.6760  -5.6752  -5.6752  -5.3314  -5.3314  -5.3309  -5.3309
    -4.9787  -4.9787  -4.9784  -4.9784  -4.1618  -4.1618  -4.1615  -4.1615
    -3.6345  -3.6345  -3.6341  -3.6341  -3.0092  -3.0092  -3.0091  -3.0091
    -2.8274  -2.8274  -2.8271  -2.8271  -2.5666  -2.5666  -2.5662  -2.5662
    -2.1987  -2.1987  -2.1981  -2.1981  -1.8594  -1.8594  -1.8583  -1.8583
    -1.4718  -1.4718  -1.4716  -1.4716  -0.0859  -0.0859  -0.0855  -0.0855
     1.4517   1.4517   1.4521   1.4521   1.6978   1.6978   1.6986   1.6986
     5.5471   5.5471   5.5474   5.5474   6.1984   6.1984   6.1990   6.1990
     7.7703   7.7703   7.7711   7.7711   8.2853   8.2855   8.2857   8.2859
     8.5855   8.5859   8.5860

     highest occupied, lowest unoccupied level (ev):     1.7054    5.4246

!    total energy              =    -971.03504259 Ry
     Harris-Foulkes estimate   =    -971.03504260 Ry
     estimated scf accuracy    <          4.4E-09 Ry

     total all-electron energy =     -3663.536082 Ry

     The total energy is the sum of the following terms:

     one-electron contribution =    -470.02749004 Ry
     hartree contribution      =     311.98336961 Ry
     xc contribution           =    -205.60721882 Ry
     ewald contribution        =    -333.36676063 Ry
     Dispersion Correction     =      -0.28436620 Ry
     one-center paw contrib.   =    -273.73257652 Ry

     convergence has been achieved in  13 iterations

     Forces acting on atoms (cartesian axes, Ry/au):

     atom    1 type  4   force =    -0.00515152    0.00270545   -0.00531343
     atom    2 type  4   force =     0.00510270   -0.00269594   -0.00532916
     atom    3 type  4   force =     0.00515152    0.00270545    0.00531343
     atom    4 type  4   force =    -0.00510270   -0.00269594    0.00532916
     atom    5 type  3   force =    -0.00047762    0.00077441    0.00041959
     atom    6 type  3   force =     0.00047905   -0.00076883    0.00041275
     atom    7 type  3   force =     0.00047762    0.00077441   -0.00041959
     atom    8 type  3   force =    -0.00047905   -0.00076883   -0.00041275
     atom    9 type  4   force =    -0.00350887   -0.01197935   -0.00329762
     atom   10 type  4   force =     0.00360843    0.01216510   -0.00321422
     atom   11 type  4   force =     0.00350887   -0.01197935    0.00329762
     atom   12 type  4   force =    -0.00360843    0.01216510    0.00321422
     atom   13 type  3   force =     0.00155196    0.00133522   -0.00092447
     atom   14 type  3   force =    -0.00161312   -0.00140144   -0.00098413
     atom   15 type  3   force =    -0.00155196    0.00133522    0.00092447
     atom   16 type  3   force =     0.00161312   -0.00140144    0.00098413
     atom   17 type  4   force =    -0.00510385    0.00429997   -0.00003600
     atom   18 type  4   force =     0.00515526   -0.00432354    0.00002691
     atom   19 type  4   force =     0.00510385    0.00429997    0.00003600
     atom   20 type  4   force =    -0.00515526   -0.00432354   -0.00002691
     atom   21 type  3   force =     0.00071158    0.00106963   -0.00005543
     atom   22 type  3   force =    -0.00071803   -0.00104250   -0.00005667
     atom   23 type  3   force =    -0.00071158    0.00106963    0.00005543
     atom   24 type  3   force =     0.00071803   -0.00104250    0.00005667
     atom   25 type  1   force =     0.03520754   -0.00074970    0.01350894
     atom   26 type  1   force =    -0.03509240    0.00047594    0.01350600
     atom   27 type  1   force =    -0.03520754   -0.00074970   -0.01350894
     atom   28 type  1   force =     0.03509240    0.00047594   -0.01350600
     atom   29 type  1   force =    -0.00936392    0.00892373    0.00891654
     atom   30 type  1   force =     0.00942437   -0.00857252    0.00900400
     atom   31 type  1   force =     0.00936392    0.00892373   -0.00891654
     atom   32 type  1   force =    -0.00942437   -0.00857252   -0.00900400
     atom   33 type  3   force =    -0.00022834   -0.00013832   -0.00000201
     atom   34 type  3   force =     0.00019180    0.00000366   -0.00003601
     atom   35 type  3   force =     0.00022834   -0.00013832    0.00000201
     atom   36 type  3   force =    -0.00019180    0.00000366    0.00003601
     atom   37 type  1   force =     0.00901178    0.00893868   -0.00728523
     atom   38 type  1   force =    -0.00939823   -0.00940936   -0.00745330
     atom   39 type  1   force =    -0.00901178    0.00893868    0.00728523
     atom   40 type  1   force =     0.00939823   -0.00940936    0.00745330
     atom   41 type  1   force =    -0.02204576   -0.00592603   -0.00919974
     atom   42 type  1   force =     0.02245696    0.00623508   -0.00896625
     atom   43 type  1   force =     0.02204576   -0.00592603    0.00919974
     atom   44 type  1   force =    -0.02245696    0.00623508    0.00896625
     atom   45 type  3   force =     0.00076752    0.00060404    0.00260340
     atom   46 type  3   force =    -0.00088952   -0.00063093    0.00250334
     atom   47 type  3   force =    -0.00076752    0.00060404   -0.00260340
     atom   48 type  3   force =     0.00088952   -0.00063093   -0.00250334
     atom   49 type  1   force =     0.01107733   -0.00176996   -0.00896325
     atom   50 type  1   force =    -0.01144599    0.00174933   -0.00914539
     atom   51 type  1   force =    -0.01107733   -0.00176996    0.00896325
     atom   52 type  1   force =     0.01144599    0.00174933    0.00914539
     atom   53 type  1   force =    -0.01135969   -0.00792725    0.01224147
     atom   54 type  1   force =     0.01168592    0.00799017    0.01239688
     atom   55 type  1   force =     0.01135969   -0.00792725   -0.01224147
     atom   56 type  1   force =    -0.01168592    0.00799017   -0.01239688
     atom   57 type  3   force =     0.00060284    0.00088538    0.00172639
     atom   58 type  3   force =    -0.00063962   -0.00082012    0.00171111
     atom   59 type  3   force =    -0.00060284    0.00088538   -0.00172639
     atom   60 type  3   force =     0.00063962   -0.00082012   -0.00171111

     Total force =     0.115875     Total SCF correction =     0.000082


     Computing stress (Cartesian axis) and pressure

          total   stress  (Ry/bohr**3)                   (kbar)     P=   -8.15
  -0.00002931   0.00000000   0.00000020         -4.31      0.00      0.03
   0.00000000  -0.00011124   0.00000000          0.00    -16.36      0.00
   0.00000020   0.00000000  -0.00002569          0.03      0.00     -3.78


     Writing output data file scf.save
 
     init_run     :     19.11s CPU     19.68s WALL (       1 calls)
     electrons    :    603.30s CPU    626.46s WALL (       1 calls)
     forces       :      8.82s CPU      8.92s WALL (       1 calls)
     stress       :     31.27s CPU     31.49s WALL (       1 calls)

     Called by init_run:
     wfcinit      :     15.78s CPU     16.24s WALL (       1 calls)
     potinit      :      1.23s CPU      1.27s WALL (       1 calls)

     Called by electrons:
     c_bands      :    544.71s CPU    565.09s WALL (      13 calls)
     sum_band     :     52.47s CPU     54.65s WALL (      13 calls)
     v_of_rho     :      0.90s CPU      1.00s WALL (      14 calls)
     newd         :      1.56s CPU      1.93s WALL (      14 calls)
     PAW_pot      :      3.33s CPU      3.34s WALL (      14 calls)
     mix_rho      :      0.19s CPU      0.21s WALL (      13 calls)

     Called by c_bands:
     init_us_2    :      3.74s CPU      3.76s WALL (     348 calls)
     cegterg      :    531.10s CPU    551.42s WALL (     156 calls)

     Called by sum_band:
     sum_band:bec :      0.05s CPU      0.05s WALL (     156 calls)
     addusdens    :      1.65s CPU      1.97s WALL (      13 calls)

     Called by *egterg:
     h_psi        :    294.45s CPU    309.21s WALL (     869 calls)
     s_psi        :     56.13s CPU     56.15s WALL (     869 calls)
     g_psi        :      1.92s CPU      1.92s WALL (     701 calls)
     cdiaghg      :     32.08s CPU     32.09s WALL (     857 calls)

     Called by h_psi:
     h_psi:pot    :    292.30s CPU    307.04s WALL (     869 calls)
     h_psi:calbec :     56.05s CPU     56.24s WALL (     869 calls)
     vloc_psi     :    179.77s CPU    194.30s WALL (     869 calls)
     add_vuspsi   :     56.48s CPU     56.50s WALL (     869 calls)

     General routines
     calbec       :     80.84s CPU     81.10s WALL (    1085 calls)
     fft          :      0.68s CPU      0.87s WALL (     206 calls)
     fftw         :    189.85s CPU    205.30s WALL (  131384 calls)
 
     Parallel routines
     fft_scatter  :     44.21s CPU     53.38s WALL (  131590 calls)
 
     PWSCF        : 11m 9.18s CPU    11m34.68s WALL

 
   This run was terminated on:   7:57:23   4Nov2017            

=------------------------------------------------------------------------------=
   JOB DONE.
=------------------------------------------------------------------------------=
