
     Program PWSCF v.6.1 (svn rev. 13369) starts on 20Dec2017 at 12: 7:20 

     This program is part of the open-source Quantum ESPRESSO suite
     for quantum simulation of materials; please cite
         "P. Giannozzi et al., J. Phys.:Condens. Matter 21 395502 (2009);
          URL http://www.quantum-espresso.org", 
     in publications or presentations arising from this work. More details at
     http://www.quantum-espresso.org/quote

     Parallel version (MPI), running on     8 processors
     R & G space division:  proc/nbgrp/npool/nimage =       8
     Waiting for input...
     Reading input from standard input

     Current dimensions of program PWSCF are:
     Max number of different atomic species (ntypx) = 10
     Max number of k-points (npk) =  40000
     Max angular momentum in pseudopotentials (lmaxx) =  3
               file C.pbe-n-kjpaw_psl.0.1.UPF: wavefunction(s)  2P renormalized
               file N.pbe-n-kjpaw_psl.0.1.UPF: wavefunction(s)  2P renormalized
               file H.pbe-kjpaw_psl.0.1.UPF: wavefunction(s)  1S renormalized
               file O.pbe-n-kjpaw_psl.0.1.UPF: wavefunction(s)  2P renormalized

     -------------------------------------
     Parameters for Dispersion Correction:
     -------------------------------------
       atom      VdW radius       C_6     

        C          2.744         60.710
        N          2.640         42.670
        H          1.892          4.857
        O          2.536         24.284

     Subspace diagonalization in iterative solution of the eigenvalue problem:
     a serial algorithm will be used

 
     Parallelization info
     --------------------
     sticks:   dense  smooth     PW     G-vecs:    dense   smooth      PW
     Min         981     981    259                61238    61238    8338
     Max         982     982    260                61240    61240    8340
     Sum        7851    7851   2077               489913   489913   66711
 


     bravais-lattice index     =            0
     lattice parameter (alat)  =      16.4898  a.u.
     unit-cell volume          =    3626.2167 (a.u.)^3
     number of atoms/cell      =           54
     number of atomic types    =            4
     number of electrons       =       176.00
     number of Kohn-Sham states=          105
     kinetic-energy cutoff     =     100.0000  Ry
     charge density cutoff     =     400.0000  Ry
     convergence threshold     =      1.0E-08
     mixing beta               =       0.5000
     number of iterations used =            8  plain     mixing
     Exchange-correlation      =  SLA  PW   PBX  PBC ( 1  4  3  4 0 0)

     celldm(1)=  16.489750  celldm(2)=   0.000000  celldm(3)=   0.000000
     celldm(4)=   0.000000  celldm(5)=   0.000000  celldm(6)=   0.000000

     crystal axes: (cart. coord. in units of alat)
               a(1) = (   1.000000   0.000000   0.000000 )  
               a(2) = (   0.031518   0.907085   0.000000 )  
               a(3) = (  -0.035093  -0.178921   0.891587 )  

     reciprocal axes: (cart. coord. in units 2 pi/alat)
               b(1) = (  1.000000 -0.034746  0.032388 )  
               b(2) = (  0.000000  1.102433  0.221233 )  
               b(3) = (  0.000000  0.000000  1.121596 )  


     PseudoPot. # 1 for  C read from file:
     /scratch/ahofstet/pseudo/C.pbe-n-kjpaw_psl.0.1.UPF
     MD5 check sum: 430fe95172b1e11ef3f8ed03bac87931
     Pseudo is Projector augmented-wave + core cor, Zval =  4.0
     Generated using "atomic" code by A. Dal Corso  v.5.0.99 svn rev. 10869
     Shape of augmentation charge: BESSEL
     Using radial grid of 1073 points,  4 beta functions with: 
                l(1) =   0
                l(2) =   0
                l(3) =   1
                l(4) =   1
     Q(r) pseudized with 0 coefficients 


     PseudoPot. # 2 for  N read from file:
     /scratch/ahofstet/pseudo/N.pbe-n-kjpaw_psl.0.1.UPF
     MD5 check sum: f73187c8b701007e77325f868c9291d7
     Pseudo is Projector augmented-wave + core cor, Zval =  5.0
     Generated using "atomic" code by A. Dal Corso  v.5.0.99 svn rev. 10869
     Shape of augmentation charge: PSQ
     Using radial grid of 1085 points,  4 beta functions with: 
                l(1) =   0
                l(2) =   0
                l(3) =   1
                l(4) =   1
     Q(r) pseudized with 0 coefficients 


     PseudoPot. # 3 for  H read from file:
     /scratch/ahofstet/pseudo/H.pbe-kjpaw_psl.0.1.UPF
     MD5 check sum: 94e484f906d9e9773b2f6e52662335b2
     Pseudo is Projector augmented-wave, Zval =  1.0
     Generated using "atomic" code by A. Dal Corso  v.5.0.99 svn rev. 10869
     Shape of augmentation charge: PSQ
     Using radial grid of  929 points,  2 beta functions with: 
                l(1) =   0
                l(2) =   0
     Q(r) pseudized with 0 coefficients 


     PseudoPot. # 4 for  O read from file:
     /scratch/ahofstet/pseudo/O.pbe-n-kjpaw_psl.0.1.UPF
     MD5 check sum: 3f94a2996a3169367d6eb21d9b593f20
     Pseudo is Projector augmented-wave + core cor, Zval =  6.0
     Generated using "atomic" code by A. Dal Corso  v.5.0.99 svn rev. 10869
     Shape of augmentation charge: BESSEL
     Using radial grid of 1095 points,  4 beta functions with: 
                l(1) =   0
                l(2) =   0
                l(3) =   1
                l(4) =   1
     Q(r) pseudized with 0 coefficients 


     atomic species   valence    mass     pseudopotential
        C              4.00    12.01070      C( 1.00)
        N              5.00    14.00670      N( 1.00)
        H              1.00     1.00794      H( 1.00)
        O              6.00    15.99940      O( 1.00)

      2 Sym. Ops., with inversion, found



   Cartesian axes

     site n.     atom                  positions (alat units)
         1           N   tau(   1) = (   0.7969190  -0.1266423   0.7239232  )
         2           N   tau(   2) = (   0.1995055   0.8548064   0.1676635  )
         3           N   tau(   3) = (   0.6713331  -0.1387704   0.8099630  )
         4           N   tau(   4) = (   0.3250914   0.8669345   0.0816236  )
         5           N   tau(   5) = (   0.6009895   0.6706053   0.7385329  )
         6           N   tau(   6) = (   0.3954349   0.0575588   0.1530538  )
         7           C   tau(   7) = (   0.6018867   0.5090455   0.7508299  )
         8           C   tau(   8) = (   0.3945378   0.2191186   0.1407567  )
         9           C   tau(   9) = (   0.4669994   0.4574582   0.6607791  )
        10           C   tau(  10) = (   0.5294251   0.2707059   0.2308075  )
        11           C   tau(  11) = (   0.4156996   0.3100189   0.6321978  )
        12           C   tau(  12) = (   0.5807249   0.4181452   0.2593888  )
        13           C   tau(  13) = (   0.2916106   0.2934832   0.5313774  )
        14           C   tau(  14) = (   0.7048139   0.4346809   0.3602092  )
        15           C   tau(  15) = (   0.2218969   0.4215274   0.4641074  )
        16           C   tau(  16) = (   0.7745276   0.3066367   0.4274792  )
        17           C   tau(  17) = (   0.2733225   0.5704715   0.4957533  )
        18           C   tau(  18) = (   0.7231020   0.1576926   0.3958333  )
        19           C   tau(  19) = (   0.3963550   0.5854624   0.5953450  )
        20           C   tau(  20) = (   0.6000695   0.1427017   0.2962416  )
        21           C   tau(  21) = (   0.4784450   0.7248640   0.6460207  )
        22           C   tau(  22) = (   0.5179795   0.0033001   0.2455659  )
        23           O   tau(  23) = (   0.4211500  -0.0480825   0.6184911  )
        24           O   tau(  24) = (   0.5752745   0.7762466   0.2730955  )
        25           O   tau(  25) = (   0.6975940   0.4330201   0.8188059  )
        26           O   tau(  26) = (   0.2988305   0.2951440   0.0727808  )
        27           O   tau(  27) = (   0.8545463   0.7128553   0.6001892  )
        28           O   tau(  28) = (   0.1418782   0.0153088   0.2913974  )
        29           N   tau(  29) = (   0.9053545  -0.0318325   0.7799161  )
        30           N   tau(  30) = (   0.0910700   0.7599966   0.1116705  )
        31           C   tau(  31) = (   0.9053770   0.2417782   0.0214123  )
        32           C   tau(  32) = (   0.0910475   0.4863859   0.8701744  )
        33           C   tau(  33) = (   0.0380028  -0.0058810   0.6822825  )
        34           C   tau(  34) = (   0.9584216   0.7340451   0.2093042  )
        35           H   tau(  35) = (   0.4701068   0.2105811   0.6833547  )
        36           H   tau(  36) = (   0.5263176   0.5175830   0.2082319  )
        37           H   tau(  37) = (   0.2520019   0.1788396   0.5021774  )
        38           H   tau(  38) = (   0.7444226   0.5493245   0.3894092  )
        39           H   tau(  39) = (   0.1276714   0.4042742   0.3838793  )
        40           H   tau(  40) = (   0.8687531   0.3238899   0.5077073  )
        41           H   tau(  41) = (   0.2213557   0.6710255   0.4427217  )
        42           H   tau(  42) = (   0.7750688   0.0571386   0.4488649  )
        43           H   tau(  43) = (   1.0108478   0.3040041   0.0492086  )
        44           H   tau(  44) = (  -0.0144233   0.4241600   0.8423780  )
        45           H   tau(  45) = (   0.8726196   0.1699436   0.1192119  )
        46           H   tau(  46) = (   0.1238048   0.5582205   0.7723747  )
        47           H   tau(  47) = (   0.8111623   0.3222883  -0.0029257  )
        48           H   tau(  48) = (   0.1852622   0.4058758   0.8945123  )
        49           H   tau(  49) = (   0.0057035   0.0449338   0.5714313  )
        50           H   tau(  50) = (   0.9907210   0.6832303   0.3201553  )
        51           H   tau(  51) = (   0.1149898   0.0702062   0.7451912  )
        52           H   tau(  52) = (   0.8814346   0.6579579   0.1463954  )
        53           H   tau(  53) = (   0.0980733  -0.1138154   0.6596277  )
        54           H   tau(  54) = (   0.8983512   0.8419795   0.2319589  )

     number of k points=    10
                       cart. coord. in units 2pi/alat
        k(    1) = (   0.0000000   0.0000000   0.0000000), wk =   0.1111111
        k(    2) = (   0.0000000   0.0000000   0.3738653), wk =   0.2222222
        k(    3) = (   0.0000000   0.3674775   0.0737443), wk =   0.2222222
        k(    4) = (   0.0000000   0.3674775   0.4476096), wk =   0.2222222
        k(    5) = (   0.0000000   0.3674775  -0.3001211), wk =   0.2222222
        k(    6) = (  -0.5000000   0.0173730  -0.0161938), wk =   0.1111111
        k(    7) = (  -0.5000000   0.0173730   0.3576715), wk =   0.2222222
        k(    8) = (  -0.5000000   0.3848505   0.0575505), wk =   0.2222222
        k(    9) = (  -0.5000000   0.3848505   0.4314158), wk =   0.2222222
        k(   10) = (  -0.5000000   0.3848505  -0.3163149), wk =   0.2222222

     Dense  grid:   489913 G-vectors     FFT dimensions: ( 108,  96,  96)

     Estimated max dynamical RAM per process >     311.19MB

     Estimated total allocated dynamical RAM >    2489.56MB

     Check: negative/imaginary core charge=   -0.000002    0.000000

     Initial potential from superposition of free atoms

     starting charge  175.99891, renormalised to  176.00000
     Starting wfc are  156 randomized atomic wfcs
     Checking if some PAW data can be deallocated... 

     total cpu time spent up to now is       19.8 secs

     per-process dynamical memory:   247.1 Mb

     Self-consistent Calculation

     iteration #  1     ecut=   100.00 Ry     beta=0.50
     Davidson diagonalization with overlap
     ethr =  1.00E-02,  avg # of iterations =  3.3

     total cpu time spent up to now is       62.0 secs

     total energy              =    -866.69530451 Ry
     Harris-Foulkes estimate   =    -869.69193933 Ry
     estimated scf accuracy    <       5.64707598 Ry

     iteration #  2     ecut=   100.00 Ry     beta=0.50
     Davidson diagonalization with overlap
     ethr =  3.21E-03,  avg # of iterations =  2.6

     total cpu time spent up to now is       86.8 secs

     total energy              =    -867.07436114 Ry
     Harris-Foulkes estimate   =    -867.61667095 Ry
     estimated scf accuracy    <       1.07390751 Ry

     iteration #  3     ecut=   100.00 Ry     beta=0.50
     Davidson diagonalization with overlap
     ethr =  6.10E-04,  avg # of iterations =  6.7

     total cpu time spent up to now is      135.8 secs

     total energy              =    -867.65322027 Ry
     Harris-Foulkes estimate   =    -867.96840059 Ry
     estimated scf accuracy    <       0.80914122 Ry

     iteration #  4     ecut=   100.00 Ry     beta=0.50
     Davidson diagonalization with overlap
     ethr =  4.60E-04,  avg # of iterations =  2.0

     total cpu time spent up to now is      158.6 secs

     total energy              =    -867.66540857 Ry
     Harris-Foulkes estimate   =    -867.74313115 Ry
     estimated scf accuracy    <       0.17004772 Ry

     iteration #  5     ecut=   100.00 Ry     beta=0.50
     Davidson diagonalization with overlap
     ethr =  9.66E-05,  avg # of iterations =  4.8

     total cpu time spent up to now is      200.8 secs

     total energy              =    -867.75686572 Ry
     Harris-Foulkes estimate   =    -867.77528557 Ry
     estimated scf accuracy    <       0.07210392 Ry

     iteration #  6     ecut=   100.00 Ry     beta=0.50
     Davidson diagonalization with overlap
     ethr =  4.10E-05,  avg # of iterations =  2.0

     total cpu time spent up to now is      223.5 secs

     total energy              =    -867.75288248 Ry
     Harris-Foulkes estimate   =    -867.76536673 Ry
     estimated scf accuracy    <       0.02771544 Ry

     iteration #  7     ecut=   100.00 Ry     beta=0.50
     Davidson diagonalization with overlap
     ethr =  1.57E-05,  avg # of iterations =  3.1

     total cpu time spent up to now is      248.7 secs

     total energy              =    -867.75516079 Ry
     Harris-Foulkes estimate   =    -867.75682614 Ry
     estimated scf accuracy    <       0.00344225 Ry

     iteration #  8     ecut=   100.00 Ry     beta=0.50
     Davidson diagonalization with overlap
     ethr =  1.96E-06,  avg # of iterations =  5.0

     total cpu time spent up to now is      298.7 secs

     total energy              =    -867.75865276 Ry
     Harris-Foulkes estimate   =    -867.75914250 Ry
     estimated scf accuracy    <       0.00179801 Ry

     iteration #  9     ecut=   100.00 Ry     beta=0.50
     Davidson diagonalization with overlap
     ethr =  1.02E-06,  avg # of iterations =  2.6

     total cpu time spent up to now is      321.5 secs

     total energy              =    -867.75828188 Ry
     Harris-Foulkes estimate   =    -867.75871030 Ry
     estimated scf accuracy    <       0.00080964 Ry

     iteration # 10     ecut=   100.00 Ry     beta=0.50
     Davidson diagonalization with overlap
     ethr =  4.60E-07,  avg # of iterations =  4.3

     total cpu time spent up to now is      358.8 secs

     total energy              =    -867.75860331 Ry
     Harris-Foulkes estimate   =    -867.75863874 Ry
     estimated scf accuracy    <       0.00011165 Ry

     iteration # 11     ecut=   100.00 Ry     beta=0.50
     Davidson diagonalization with overlap
     ethr =  6.34E-08,  avg # of iterations =  1.9

     total cpu time spent up to now is      381.1 secs

     total energy              =    -867.75858958 Ry
     Harris-Foulkes estimate   =    -867.75860957 Ry
     estimated scf accuracy    <       0.00004715 Ry

     iteration # 12     ecut=   100.00 Ry     beta=0.50
     Davidson diagonalization with overlap
     ethr =  2.68E-08,  avg # of iterations =  3.1

     total cpu time spent up to now is      415.7 secs

     total energy              =    -867.75860670 Ry
     Harris-Foulkes estimate   =    -867.75860910 Ry
     estimated scf accuracy    <       0.00000738 Ry

     iteration # 13     ecut=   100.00 Ry     beta=0.50
     Davidson diagonalization with overlap
     ethr =  4.19E-09,  avg # of iterations =  2.0

     total cpu time spent up to now is      438.3 secs

     total energy              =    -867.75860593 Ry
     Harris-Foulkes estimate   =    -867.75860725 Ry
     estimated scf accuracy    <       0.00000238 Ry

     iteration # 14     ecut=   100.00 Ry     beta=0.50
     Davidson diagonalization with overlap
     ethr =  1.36E-09,  avg # of iterations =  4.0

     total cpu time spent up to now is      478.4 secs

     total energy              =    -867.75860730 Ry
     Harris-Foulkes estimate   =    -867.75860752 Ry
     estimated scf accuracy    <       0.00000088 Ry

     iteration # 15     ecut=   100.00 Ry     beta=0.50
     Davidson diagonalization with overlap
     ethr =  5.02E-10,  avg # of iterations =  1.0

     total cpu time spent up to now is      500.2 secs

     total energy              =    -867.75860714 Ry
     Harris-Foulkes estimate   =    -867.75860733 Ry
     estimated scf accuracy    <       0.00000042 Ry

     iteration # 16     ecut=   100.00 Ry     beta=0.50
     Davidson diagonalization with overlap
     ethr =  2.39E-10,  avg # of iterations =  4.0

     total cpu time spent up to now is      531.0 secs

     total energy              =    -867.75860727 Ry
     Harris-Foulkes estimate   =    -867.75860728 Ry
     estimated scf accuracy    <       0.00000001 Ry

     iteration # 17     ecut=   100.00 Ry     beta=0.50
     Davidson diagonalization with overlap
     ethr =  7.60E-12,  avg # of iterations =  4.0

     total cpu time spent up to now is      568.0 secs

     End of self-consistent calculation

          k = 0.0000 0.0000 0.0000 ( 61185 PWs)   bands (ev):

   -23.6031 -23.5916 -20.4194 -20.3674 -19.7505 -19.7438 -18.6478 -18.6286
   -18.2722 -18.2345 -16.1825 -16.1816 -14.9418 -14.8760 -13.1221 -13.0985
   -12.4094 -12.3791 -11.9001 -11.8786 -11.5881 -11.5361 -10.0162  -9.9948
    -9.8055  -9.7920  -8.5450  -8.5179  -8.1364  -8.1004  -7.3426  -7.2778
    -7.1012  -6.8423  -6.7948  -6.6218  -6.5878  -6.5093  -5.8361  -5.8221
    -5.4433  -5.4060  -5.3904  -5.0402  -4.8959  -4.8143  -4.6252  -4.5169
    -4.4657  -4.4256  -4.2694  -4.2398  -4.0913  -3.9379  -3.8344  -3.7874
    -3.6688  -3.5880  -3.4315  -3.3120  -3.2919  -3.1873  -3.1197  -3.0510
    -2.8890  -2.5486  -2.5288  -2.3812  -2.2605  -2.2238  -2.0911  -2.0162
    -0.6440  -0.5189  -0.4994  -0.4099  -0.3316  -0.2381  -0.2324  -0.1797
    -0.0784   0.0221   0.2453   0.3396   0.3862   0.4068   0.6254   0.7306
     3.4639   3.6080   4.3863   4.4038   4.4312   4.8247   6.0877   6.2861
     6.2886   7.0995   7.3458   7.3464   7.7766   7.8328   8.0064   8.2567
     8.2993

          k = 0.0000 0.0000 0.3739 ( 61257 PWs)   bands (ev):

   -23.6023 -23.5924 -20.4098 -20.3769 -19.7633 -19.7315 -18.6428 -18.6331
   -18.2742 -18.2325 -16.2006 -16.1631 -14.9416 -14.8762 -13.1168 -13.1037
   -12.4091 -12.3809 -11.9066 -11.8787 -11.5740 -11.5437 -10.0122 -10.0016
    -9.8052  -9.7862  -8.5437  -8.5196  -8.1368  -8.1016  -7.3768  -7.2057
    -7.0543  -6.9324  -6.7544  -6.6391  -6.5926  -6.5386  -5.8351  -5.8226
    -5.4907  -5.4203  -5.2091  -5.0681  -4.9368  -4.8967  -4.6133  -4.5264
    -4.4630  -4.4269  -4.2590  -4.2100  -4.0853  -3.9768  -3.7863  -3.7584
    -3.6901  -3.6371  -3.4328  -3.3421  -3.2882  -3.2267  -3.0874  -2.8959
    -2.8701  -2.6351  -2.5496  -2.3754  -2.3479  -2.1817  -2.0658  -1.9965
    -0.6092  -0.5329  -0.4900  -0.4078  -0.3457  -0.2827  -0.2329  -0.2007
    -0.0733  -0.0358   0.2574   0.3310   0.3704   0.5106   0.6157   0.7247
     3.4465   3.6205   4.3783   4.4116   4.5173   4.7645   6.1010   6.3023
     6.5067   6.9552   7.2125   7.3319   7.7784   7.8096   8.1042   8.2727
     8.4041

          k = 0.0000 0.3675 0.0737 ( 61245 PWs)   bands (ev):

   -23.6030 -23.5916 -20.4183 -20.3677 -19.7507 -19.7450 -18.6483 -18.6294
   -18.2701 -18.2336 -16.2019 -16.1690 -14.9496 -14.8716 -13.1115 -13.0721
   -12.3864 -12.3659 -11.9145 -11.8652 -11.6095 -11.5740 -10.0727 -10.0369
    -9.7740  -9.7418  -8.5169  -8.4909  -8.1547  -8.1468  -7.3575  -7.3218
    -7.0177  -6.8753  -6.8500  -6.7360  -6.6024  -6.4968  -5.8688  -5.8519
    -5.3436  -5.2266  -5.1632  -5.0307  -4.9138  -4.8954  -4.5151  -4.5105
    -4.4240  -4.3621  -4.2398  -4.2172  -4.1539  -4.0667  -3.9209  -3.9012
    -3.6388  -3.6340  -3.4923  -3.3458  -3.3110  -3.2294  -3.1053  -2.8839
    -2.8404  -2.5970  -2.5052  -2.3682  -2.2801  -2.1863  -2.0813  -2.0098
    -0.6433  -0.4820  -0.4707  -0.4053  -0.3665  -0.3172  -0.2708  -0.1941
    -0.0941  -0.0430   0.1592   0.2655   0.3477   0.4892   0.6548   0.8119
     3.3856   3.5526   4.3666   4.3994   4.5169   4.7867   6.1830   6.3736
     6.5166   7.0986   7.1979   7.2613   7.5628   7.9404   8.0989   8.2502
     8.4157

          k = 0.0000 0.3675 0.4476 ( 61237 PWs)   bands (ev):

   -23.6023 -23.5923 -20.4090 -20.3770 -19.7647 -19.7315 -18.6434 -18.6338
   -18.2721 -18.2317 -16.2033 -16.1676 -14.9484 -14.8728 -13.1055 -13.0785
   -12.3867 -12.3669 -11.8972 -11.8819 -11.6048 -11.5790 -10.0634 -10.0461
    -9.7737  -9.7399  -8.5184  -8.4915  -8.1602  -8.1383  -7.4042  -7.2400
    -6.9958  -6.9431  -6.8122  -6.7215  -6.6197  -6.5432  -5.8718  -5.8331
    -5.3380  -5.2256  -5.1132  -5.0592  -4.9500  -4.8895  -4.5475  -4.4743
    -4.4071  -4.3685  -4.2436  -4.1893  -4.1311  -4.0730  -3.9187  -3.9014
    -3.7133  -3.6443  -3.5021  -3.3832  -3.2950  -3.2280  -3.0616  -2.8909
    -2.8268  -2.6071  -2.4977  -2.3603  -2.3155  -2.1532  -2.0747  -2.0004
    -0.6055  -0.5064  -0.4603  -0.4059  -0.3611  -0.3288  -0.2730  -0.1877
    -0.1373  -0.0749   0.1944   0.2600   0.3527   0.4866   0.6716   0.7921
     3.4644   3.4750   4.3708   4.3979   4.5577   4.7621   6.1851   6.3773
     6.6570   7.1025   7.2052   7.4433   7.5177   7.8088   8.0145   8.2227
     8.3104

          k = 0.0000 0.3675-0.3001 ( 61257 PWs)   bands (ev):

   -23.6023 -23.5923 -20.4092 -20.3768 -19.7643 -19.7319 -18.6433 -18.6339
   -18.2721 -18.2316 -16.1874 -16.1840 -14.9467 -14.8745 -13.1046 -13.0792
   -12.3880 -12.3651 -11.9142 -11.8563 -11.6188 -11.5732 -10.0644 -10.0427
    -9.7686  -9.7505  -8.5196  -8.4882  -8.1565  -8.1397  -7.3913  -7.2550
    -7.0474  -6.9114  -6.7990  -6.7417  -6.6051  -6.5239  -5.8768  -5.8294
    -5.3404  -5.2186  -5.1935  -5.0281  -4.9159  -4.8500  -4.5539  -4.4856
    -4.4265  -4.3678  -4.2268  -4.1915  -4.1284  -4.0591  -3.9216  -3.8950
    -3.7235  -3.6448  -3.5166  -3.3380  -3.2960  -3.2205  -3.1389  -2.9719
    -2.8329  -2.5465  -2.4842  -2.3636  -2.2607  -2.1755  -2.0484  -2.0320
    -0.6125  -0.5228  -0.4490  -0.4232  -0.3709  -0.3362  -0.2154  -0.1857
    -0.1344   0.0010   0.2093   0.2441   0.3461   0.4103   0.6818   0.7854
     3.3815   3.5576   4.3825   4.3886   4.5057   4.8040   6.2048   6.3395
     6.8238   7.0343   7.1611   7.2398   7.5049   7.9551   8.1153   8.1479
     8.2707

          k =-0.5000 0.0174-0.0162 ( 61254 PWs)   bands (ev):

   -23.6015 -23.5931 -20.4213 -20.3667 -19.7506 -19.7438 -18.6489 -18.6278
   -18.2658 -18.2364 -16.1866 -16.1702 -14.9551 -14.8956 -13.1040 -13.0683
   -12.4107 -12.3779 -11.9012 -11.8917 -11.5871 -11.5628 -10.0152 -10.0067
    -9.7821  -9.7713  -8.5315  -8.5284  -8.1303  -8.0690  -7.3921  -7.3514
    -6.8978  -6.8732  -6.8309  -6.7308  -6.6035  -6.5228  -5.8723  -5.8072
    -5.4793  -5.4160  -5.3638  -4.9723  -4.8864  -4.7880  -4.6155  -4.5535
    -4.4941  -4.4545  -4.2312  -4.1943  -4.0126  -3.9760  -3.7927  -3.7400
    -3.6547  -3.6322  -3.4513  -3.3799  -3.2668  -3.1526  -3.1341  -3.0081
    -2.9442  -2.6035  -2.4484  -2.4229  -2.2452  -2.1871  -2.0934  -2.0840
    -0.5652  -0.5507  -0.5173  -0.4010  -0.3848  -0.2401  -0.2178  -0.1936
    -0.0127   0.0107   0.1354   0.2357   0.3790   0.4059   0.7057   0.8277
     3.4670   3.6126   4.3321   4.3983   4.5137   4.8098   6.1615   6.2583
     6.5910   6.9844   7.0270   7.3000   7.4840   7.7919   8.0139   8.0519
     8.3666

          k =-0.5000 0.0174 0.3577 ( 61237 PWs)   bands (ev):

   -23.6010 -23.5936 -20.4119 -20.3763 -19.7632 -19.7315 -18.6438 -18.6324
   -18.2677 -18.2346 -16.1863 -16.1708 -14.9501 -14.8997 -13.0976 -13.0777
   -12.4116 -12.3783 -11.9102 -11.8738 -11.6038 -11.5512 -10.0206  -9.9953
    -9.7838  -9.7754  -8.5369  -8.5226  -8.1230  -8.0789  -7.4240  -7.3132
    -6.9085  -6.8652  -6.8133  -6.7773  -6.5761  -6.5244  -5.8563  -5.8142
    -5.5113  -5.4193  -5.2233  -5.0259  -4.8679  -4.8271  -4.6433  -4.5572
    -4.4929  -4.4538  -4.2513  -4.1654  -4.0661  -3.9589  -3.7986  -3.7590
    -3.6558  -3.6398  -3.4514  -3.4138  -3.2383  -3.2197  -3.1465  -2.9497
    -2.7898  -2.6188  -2.4684  -2.4503  -2.3426  -2.1430  -2.0881  -2.0364
    -0.5661  -0.5473  -0.5109  -0.4280  -0.3677  -0.2849  -0.2339  -0.1955
    -0.0844  -0.0328   0.2194   0.2621   0.3426   0.5010   0.7222   0.8039
     3.4424   3.6346   4.3608   4.3899   4.5798   4.7613   6.1246   6.2651
     6.6877   6.9786   7.0670   7.2241   7.4493   7.8717   7.9672   8.2823
     8.4026

          k =-0.5000 0.3849 0.0576 ( 61234 PWs)   bands (ev):

   -23.6015 -23.5931 -20.4202 -20.3671 -19.7509 -19.7449 -18.6495 -18.6286
   -18.2636 -18.2355 -16.1932 -16.1746 -14.9526 -14.8835 -13.1100 -13.0884
   -12.3888 -12.3643 -11.9314 -11.8542 -11.5623 -11.5353 -10.0587 -10.0429
    -9.8201  -9.8081  -8.5074  -8.4940  -8.1397  -8.0891  -7.3841  -7.3238
    -6.9372  -6.9099  -6.8415  -6.7359  -6.6363  -6.5523  -5.8678  -5.8166
    -5.3183  -5.2644  -5.1863  -5.0263  -4.9665  -4.8115  -4.5628  -4.5530
    -4.4371  -4.3467  -4.2748  -4.1844  -4.0766  -4.0067  -3.9334  -3.9000
    -3.6843  -3.5935  -3.4909  -3.4074  -3.2604  -3.1838  -3.0890  -3.0318
    -2.8044  -2.6199  -2.4335  -2.4018  -2.2671  -2.1500  -2.0616  -2.0420
    -0.5637  -0.5281  -0.4881  -0.4347  -0.3800  -0.3392  -0.2151  -0.2093
    -0.0950  -0.0659   0.1412   0.1757   0.3335   0.5143   0.7331   0.8414
     3.4000   3.5469   4.3675   4.3897   4.5559   4.7850   6.2052   6.3154
     6.7137   7.0109   7.1034   7.3735   7.4610   7.5347   7.8941   8.3325
     8.3859

          k =-0.5000 0.3849 0.4314 ( 61219 PWs)   bands (ev):

   -23.6009 -23.5936 -20.4111 -20.3763 -19.7645 -19.7316 -18.6445 -18.6331
   -18.2655 -18.2337 -16.1944 -16.1736 -14.9515 -14.8847 -13.1146 -13.0835
   -12.3894 -12.3647 -11.9346 -11.8501 -11.5648 -11.5323 -10.0522 -10.0460
    -9.8187  -9.8138  -8.5080  -8.4960  -8.1187  -8.1084  -7.3848  -7.3229
    -6.9505  -6.9036  -6.8360  -6.7571  -6.6361  -6.5195  -5.8574  -5.8273
    -5.3328  -5.2155  -5.1832  -5.0593  -4.9310  -4.8436  -4.5727  -4.5299
    -4.4236  -4.3415  -4.2869  -4.1817  -4.0999  -4.0041  -3.9306  -3.9028
    -3.6698  -3.6292  -3.4838  -3.4637  -3.2610  -3.2221  -3.1361  -2.9495
    -2.7522  -2.6354  -2.4353  -2.4025  -2.2883  -2.1169  -2.0773  -2.0260
    -0.5501  -0.5305  -0.4873  -0.4365  -0.3950  -0.3281  -0.2092  -0.1976
    -0.1156  -0.1133   0.1710   0.2020   0.3329   0.5156   0.7284   0.8335
     3.4599   3.4909   4.3706   4.3934   4.6050   4.7524   6.1971   6.3102
     6.8137   7.0030   7.0859   7.3152   7.5767   7.7288   7.8434   8.3091
     8.3379

          k =-0.5000 0.3849-0.3163 ( 61254 PWs)   bands (ev):

   -23.6010 -23.5936 -20.4114 -20.3760 -19.7642 -19.7319 -18.6444 -18.6332
   -18.2654 -18.2338 -16.1959 -16.1719 -14.9560 -14.8813 -13.1165 -13.0791
   -12.3883 -12.3656 -11.9087 -11.8829 -11.5523 -11.5395 -10.0612 -10.0387
    -9.8206  -9.8100  -8.5054  -8.4978  -8.1359  -8.0929  -7.3679  -7.3540
    -6.9426  -6.8540  -6.8442  -6.7863  -6.6134  -6.5434  -5.8662  -5.8254
    -5.3561  -5.2706  -5.1879  -5.0185  -4.8871  -4.8261  -4.5754  -4.5373
    -4.3716  -4.3539  -4.2485  -4.2236  -4.1067  -4.0065  -3.9247  -3.9042
    -3.6716  -3.6436  -3.5058  -3.4604  -3.2286  -3.1955  -3.1680  -2.9714
    -2.8542  -2.5949  -2.4278  -2.3738  -2.2344  -2.1661  -2.0750  -2.0376
    -0.5558  -0.5443  -0.5226  -0.3928  -0.3659  -0.3280  -0.2559  -0.1733
    -0.0675  -0.0015   0.1123   0.2133   0.3715   0.4049   0.7067   0.8445
     3.3903   3.5605   4.3596   4.3999   4.5589   4.7846   6.2140   6.2870
     6.8179   7.0404   7.1230   7.2358   7.6408   7.6763   7.9096   8.1387
     8.3884

     highest occupied, lowest unoccupied level (ev):     0.8445    3.3815

!    total energy              =    -867.75860727 Ry
     Harris-Foulkes estimate   =    -867.75860728 Ry
     estimated scf accuracy    <          4.4E-09 Ry

     total all-electron energy =     -3326.512312 Ry

     The total energy is the sum of the following terms:

     one-electron contribution =    -525.13721256 Ry
     hartree contribution      =     329.64229865 Ry
     xc contribution           =    -184.57627386 Ry
     ewald contribution        =    -231.04880857 Ry
     Dispersion Correction     =      -0.24331605 Ry
     one-center paw contrib.   =    -256.39529489 Ry

     convergence has been achieved in  17 iterations

     Forces acting on atoms (cartesian axes, Ry/au):

     atom    1 type  2   force =     0.00035699   -0.00017016   -0.00107513
     atom    2 type  2   force =    -0.00035699    0.00017016    0.00107513
     atom    3 type  2   force =     0.00234485    0.00010681    0.00133382
     atom    4 type  2   force =    -0.00234485   -0.00010681   -0.00133382
     atom    5 type  2   force =    -0.00219630   -0.00258743   -0.00146662
     atom    6 type  2   force =     0.00219630    0.00258743    0.00146662
     atom    7 type  1   force =     0.00058325    0.00318618   -0.00032611
     atom    8 type  1   force =    -0.00058325   -0.00318618    0.00032611
     atom    9 type  1   force =     0.00170035   -0.00019819    0.00148043
     atom   10 type  1   force =    -0.00170035    0.00019819   -0.00148043
     atom   11 type  1   force =    -0.00169369    0.00284439   -0.00203213
     atom   12 type  1   force =     0.00169369   -0.00284439    0.00203213
     atom   13 type  1   force =    -0.00065800    0.00064955   -0.00012919
     atom   14 type  1   force =     0.00065800   -0.00064955    0.00012919
     atom   15 type  1   force =     0.00026084   -0.00083838    0.00019502
     atom   16 type  1   force =    -0.00026084    0.00083838   -0.00019502
     atom   17 type  1   force =     0.00006644    0.00024148   -0.00071111
     atom   18 type  1   force =    -0.00006644   -0.00024148    0.00071111
     atom   19 type  1   force =    -0.00154359   -0.00055992   -0.00179320
     atom   20 type  1   force =     0.00154359    0.00055992    0.00179320
     atom   21 type  1   force =     0.00360693    0.00172523    0.00217041
     atom   22 type  1   force =    -0.00360693   -0.00172523   -0.00217041
     atom   23 type  4   force =    -0.00013166   -0.00020932   -0.00046257
     atom   24 type  4   force =     0.00013166    0.00020932    0.00046257
     atom   25 type  4   force =    -0.00006586    0.00078245   -0.00035949
     atom   26 type  4   force =     0.00006586   -0.00078245    0.00035949
     atom   27 type  4   force =     0.00037952    0.00149557    0.00140241
     atom   28 type  4   force =    -0.00037952   -0.00149557   -0.00140241
     atom   29 type  2   force =    -0.00079069   -0.00006981   -0.00020571
     atom   30 type  2   force =     0.00079069    0.00006981    0.00020571
     atom   31 type  1   force =    -0.00054104   -0.00006272   -0.00074299
     atom   32 type  1   force =     0.00054104    0.00006272    0.00074299
     atom   33 type  1   force =     0.00041750    0.00008766   -0.00040711
     atom   34 type  1   force =    -0.00041750   -0.00008766    0.00040711
     atom   35 type  3   force =     0.00165775   -0.00380456    0.00025283
     atom   36 type  3   force =    -0.00165775    0.00380456   -0.00025283
     atom   37 type  3   force =    -0.00036066   -0.00057698   -0.00004276
     atom   38 type  3   force =     0.00036066    0.00057698    0.00004276
     atom   39 type  3   force =    -0.00046715   -0.00021552   -0.00041327
     atom   40 type  3   force =     0.00046715    0.00021552    0.00041327
     atom   41 type  3   force =     0.00029023    0.00027063    0.00071093
     atom   42 type  3   force =    -0.00029023   -0.00027063   -0.00071093
     atom   43 type  3   force =    -0.00073788   -0.00097061    0.00032129
     atom   44 type  3   force =     0.00073788    0.00097061   -0.00032129
     atom   45 type  3   force =    -0.00038235    0.00000318   -0.00039392
     atom   46 type  3   force =     0.00038235   -0.00000318    0.00039392
     atom   47 type  3   force =     0.00074445   -0.00064551   -0.00040184
     atom   48 type  3   force =    -0.00074445    0.00064551    0.00040184
     atom   49 type  3   force =    -0.00083082   -0.00031792    0.00037090
     atom   50 type  3   force =     0.00083082    0.00031792   -0.00037090
     atom   51 type  3   force =     0.00100230   -0.00076521    0.00023181
     atom   52 type  3   force =    -0.00100230    0.00076521   -0.00023181
     atom   53 type  3   force =     0.00011696    0.00009104    0.00001736
     atom   54 type  3   force =    -0.00011696   -0.00009104   -0.00001736

     Total force =     0.015076     Total SCF correction =     0.000146


     Computing stress (Cartesian axis) and pressure

          total   stress  (Ry/bohr**3)                   (kbar)     P=   -5.22
  -0.00003894   0.00001006   0.00000237         -5.73      1.48      0.35
   0.00001006  -0.00002988   0.00000658          1.48     -4.40      0.97
   0.00000237   0.00000658  -0.00003765          0.35      0.97     -5.54


     Writing output data file scf.save
 
     init_run     :     18.45s CPU     19.10s WALL (       1 calls)
     electrons    :    528.01s CPU    548.29s WALL (       1 calls)
     forces       :      9.36s CPU      9.44s WALL (       1 calls)
     stress       :     27.65s CPU     27.80s WALL (       1 calls)

     Called by init_run:
     wfcinit      :     12.11s CPU     12.70s WALL (       1 calls)
     potinit      :      2.24s CPU      2.25s WALL (       1 calls)

     Called by electrons:
     c_bands      :    467.79s CPU    485.09s WALL (      17 calls)
     sum_band     :     52.34s CPU     54.72s WALL (      17 calls)
     v_of_rho     :      1.18s CPU      1.30s WALL (      18 calls)
     newd         :      2.43s CPU      2.87s WALL (      18 calls)
     PAW_pot      :      3.92s CPU      3.93s WALL (      18 calls)
     mix_rho      :      0.28s CPU      0.31s WALL (      17 calls)

     Called by c_bands:
     init_us_2    :      3.95s CPU      3.96s WALL (     370 calls)
     cegterg      :    453.53s CPU    470.75s WALL (     170 calls)

     Called by sum_band:
     sum_band:bec :      0.04s CPU      0.04s WALL (     170 calls)
     addusdens    :      2.48s CPU      2.90s WALL (      17 calls)

     Called by *egterg:
     h_psi        :    270.07s CPU    281.92s WALL (     744 calls)
     s_psi        :     47.00s CPU     47.00s WALL (     744 calls)
     g_psi        :      1.67s CPU      1.67s WALL (     564 calls)
     cdiaghg      :     23.44s CPU     23.54s WALL (     734 calls)

     Called by h_psi:
     h_psi:pot    :    267.87s CPU    279.68s WALL (     744 calls)
     h_psi:calbec :     47.09s CPU     47.20s WALL (     744 calls)
     vloc_psi     :    173.69s CPU    185.38s WALL (     744 calls)
     add_vuspsi   :     47.08s CPU     47.09s WALL (     744 calls)

     General routines
     calbec       :     67.52s CPU     67.68s WALL (     964 calls)
     fft          :      0.74s CPU      0.95s WALL (     258 calls)
     fftw         :    186.38s CPU    199.32s WALL (  121456 calls)
 
     Parallel routines
     fft_scatter  :     49.50s CPU     57.62s WALL (  121714 calls)
 
     PWSCF        :  9m48.72s CPU    10m11.03s WALL

 
   This run was terminated on:  12:17:31  20Dec2017            

=------------------------------------------------------------------------------=
   JOB DONE.
=------------------------------------------------------------------------------=
