
     Program PWSCF v.6.1 (svn rev. 13369) starts on 21Dec2017 at 16:19:51 

     This program is part of the open-source Quantum ESPRESSO suite
     for quantum simulation of materials; please cite
         "P. Giannozzi et al., J. Phys.:Condens. Matter 21 395502 (2009);
          URL http://www.quantum-espresso.org", 
     in publications or presentations arising from this work. More details at
     http://www.quantum-espresso.org/quote

     Parallel version (MPI), running on     8 processors
     R & G space division:  proc/nbgrp/npool/nimage =       8
     Waiting for input...
     Reading input from standard input

     Current dimensions of program PWSCF are:
     Max number of different atomic species (ntypx) = 10
     Max number of k-points (npk) =  40000
     Max angular momentum in pseudopotentials (lmaxx) =  3
               file C.pbe-n-kjpaw_psl.0.1.UPF: wavefunction(s)  2P renormalized
               file N.pbe-n-kjpaw_psl.0.1.UPF: wavefunction(s)  2P renormalized
               file H.pbe-kjpaw_psl.0.1.UPF: wavefunction(s)  1S renormalized
               file O.pbe-n-kjpaw_psl.0.1.UPF: wavefunction(s)  2P renormalized

     -------------------------------------
     Parameters for Dispersion Correction:
     -------------------------------------
       atom      VdW radius       C_6     

        C          2.744         60.710
        N          2.640         42.670
        H          1.892          4.857
        O          2.536         24.284

     Subspace diagonalization in iterative solution of the eigenvalue problem:
     a serial algorithm will be used

 
     Parallelization info
     --------------------
     sticks:   dense  smooth     PW     G-vecs:    dense   smooth      PW
     Min        1271    1271    343                94617    94617   13394
     Max        1272    1272    344                94619    94619   13397
     Sum       10175   10175   2749               756943   756943  107165
 


     bravais-lattice index     =            0
     lattice parameter (alat)  =       8.3554  a.u.
     unit-cell volume          =    5601.5381 (a.u.)^3
     number of atoms/cell      =           88
     number of atomic types    =            4
     number of electrons       =       288.00
     number of Kohn-Sham states=          172
     kinetic-energy cutoff     =     100.0000  Ry
     charge density cutoff     =     400.0000  Ry
     convergence threshold     =      1.0E-08
     mixing beta               =       0.5000
     number of iterations used =            8  plain     mixing
     Exchange-correlation      =  SLA  PW   PBX  PBC ( 1  4  3  4 0 0)

     celldm(1)=   8.355424  celldm(2)=   0.000000  celldm(3)=   0.000000
     celldm(4)=   0.000000  celldm(5)=   0.000000  celldm(6)=   0.000000

     crystal axes: (cart. coord. in units of alat)
               a(1) = (   1.000000   0.000000   0.000000 )  
               a(2) = (   0.000000   4.574013   0.000000 )  
               a(3) = (  -0.128260   0.000000   2.099444 )  

     reciprocal axes: (cart. coord. in units 2 pi/alat)
               b(1) = (  1.000000  0.000000  0.061093 )  
               b(2) = (  0.000000  0.218626  0.000000 )  
               b(3) = (  0.000000  0.000000  0.476317 )  


     PseudoPot. # 1 for  C read from file:
     /scratch/ahofstet/pseudo/C.pbe-n-kjpaw_psl.0.1.UPF
     MD5 check sum: 430fe95172b1e11ef3f8ed03bac87931
     Pseudo is Projector augmented-wave + core cor, Zval =  4.0
     Generated using "atomic" code by A. Dal Corso  v.5.0.99 svn rev. 10869
     Shape of augmentation charge: BESSEL
     Using radial grid of 1073 points,  4 beta functions with: 
                l(1) =   0
                l(2) =   0
                l(3) =   1
                l(4) =   1
     Q(r) pseudized with 0 coefficients 


     PseudoPot. # 2 for  N read from file:
     /scratch/ahofstet/pseudo/N.pbe-n-kjpaw_psl.0.1.UPF
     MD5 check sum: f73187c8b701007e77325f868c9291d7
     Pseudo is Projector augmented-wave + core cor, Zval =  5.0
     Generated using "atomic" code by A. Dal Corso  v.5.0.99 svn rev. 10869
     Shape of augmentation charge: PSQ
     Using radial grid of 1085 points,  4 beta functions with: 
                l(1) =   0
                l(2) =   0
                l(3) =   1
                l(4) =   1
     Q(r) pseudized with 0 coefficients 


     PseudoPot. # 3 for  H read from file:
     /scratch/ahofstet/pseudo/H.pbe-kjpaw_psl.0.1.UPF
     MD5 check sum: 94e484f906d9e9773b2f6e52662335b2
     Pseudo is Projector augmented-wave, Zval =  1.0
     Generated using "atomic" code by A. Dal Corso  v.5.0.99 svn rev. 10869
     Shape of augmentation charge: PSQ
     Using radial grid of  929 points,  2 beta functions with: 
                l(1) =   0
                l(2) =   0
     Q(r) pseudized with 0 coefficients 


     PseudoPot. # 4 for  O read from file:
     /scratch/ahofstet/pseudo/O.pbe-n-kjpaw_psl.0.1.UPF
     MD5 check sum: 3f94a2996a3169367d6eb21d9b593f20
     Pseudo is Projector augmented-wave + core cor, Zval =  6.0
     Generated using "atomic" code by A. Dal Corso  v.5.0.99 svn rev. 10869
     Shape of augmentation charge: BESSEL
     Using radial grid of 1095 points,  4 beta functions with: 
                l(1) =   0
                l(2) =   0
                l(3) =   1
                l(4) =   1
     Q(r) pseudized with 0 coefficients 


     atomic species   valence    mass     pseudopotential
        C              4.00    12.01070      C( 1.00)
        N              5.00    14.00670      N( 1.00)
        H              1.00     1.00794      H( 1.00)
        O              6.00    15.99940      O( 1.00)

      2 Sym. Ops., with inversion, found
          (note:  2 additional sym.ops. were found but ignored
           their fractional translations are incommensurate with FFT grid)


   Cartesian axes

     site n.     atom                  positions (alat units)
         1           C   tau(   1) = (   0.0200769   2.6062718   1.5242153  )
         2           C   tau(   2) = (   0.7875325   0.3192651   1.6249512  )
         3           C   tau(   3) = (   0.8516627   1.9677416   0.5752290  )
         4           C   tau(   4) = (   0.0842071   4.2547482   0.4744932  )
         5           C   tau(   5) = (   0.1022685   2.6001542   0.9593036  )
         6           C   tau(   6) = (   0.8336013   0.3131476   0.0904186  )
         7           C   tau(   7) = (   0.7694710   1.9738591   1.1401408  )
         8           C   tau(   8) = (   0.0381383   4.2608658   2.0090258  )
         9           C   tau(   9) = (   0.8133807   2.9592535   0.6498639  )
        10           C   tau(  10) = (   0.1224891   0.6722469   0.3998583  )
        11           C   tau(  11) = (   0.0583589   1.6147598   1.4495805  )
        12           C   tau(  12) = (   0.7492505   3.9017665   1.6995861  )
        13           C   tau(  13) = (   0.4555124   3.3179369   0.9054426  )
        14           C   tau(  14) = (   0.4803574   1.0309303   0.1442796  )
        15           C   tau(  15) = (   0.4162272   1.2560764   1.1940018  )
        16           C   tau(  16) = (   0.3913822   3.5430831   1.9551648  )
        17           C   tau(  17) = (   0.2070998   2.5295460   1.7915095  )
        18           C   tau(  18) = (   0.6005096   0.2425393   1.3576570  )
        19           C   tau(  19) = (   0.6646398   2.0444673   0.3079348  )
        20           C   tau(  20) = (   0.2712300   4.3314740   0.7417874  )
        21           C   tau(  21) = (   0.1809912   3.4987394   0.8599721  )
        22           C   tau(  22) = (   0.7548786   1.2117327   0.1897501  )
        23           C   tau(  23) = (   0.6907484   1.0752740   1.2394723  )
        24           C   tau(  24) = (   0.1168610   3.3622806   1.9096942  )
        25           N   tau(  25) = (   0.1537837   2.5116096   1.2568501  )
        26           N   tau(  26) = (   0.6538257   0.2246029   1.8923164  )
        27           N   tau(  27) = (   0.7179559   2.0624038   0.8425943  )
        28           N   tau(  28) = (   0.2179139   4.3494104   0.2071279  )
        29           N   tau(  29) = (   0.8564657   2.7858318   0.9134371  )
        30           N   tau(  30) = (   0.0794041   0.4988251   0.1362851  )
        31           N   tau(  31) = (   0.0152739   1.7881815   1.1860073  )
        32           N   tau(  32) = (   0.7923355   4.0751882   1.9631593  )
        33           N   tau(  33) = (   0.5660236   3.1563221   0.6586167  )
        34           N   tau(  34) = (   0.3698462   0.8693155   0.3911055  )
        35           N   tau(  35) = (   0.3057160   1.4176912   1.4408277  )
        36           N   tau(  36) = (   0.5018934   3.7046979   1.7083388  )
        37           O   tau(  37) = (   0.7859424   2.7595656   1.5323916  )
        38           O   tau(  38) = (   0.0216670   0.4725590   1.6167750  )
        39           O   tau(  39) = (   0.0857972   1.8144477   0.5670528  )
        40           O   tau(  40) = (   0.8500726   4.1014544   0.4826694  )
        41           O   tau(  41) = (   0.2778322   2.5085295   0.7619456  )
        42           O   tau(  42) = (   0.6580376   0.2215228   0.2877766  )
        43           O   tau(  43) = (   0.5939074   2.0654839   1.3374988  )
        44           O   tau(  44) = (   0.2137020   4.3524905   1.8116678  )
        45           O   tau(  45) = (   0.9742028   2.9406043   0.4267619  )
        46           O   tau(  46) = (  -0.0383330   0.6535976   0.6229603  )
        47           O   tau(  47) = (  -0.1024632   1.6334090   1.6726825  )
        48           O   tau(  48) = (   0.9100726   3.9204157   1.4764841  )
        49           O   tau(  49) = (   0.5874984   3.3072105   1.1532679  )
        50           O   tau(  50) = (   0.2201110   1.0202038   1.9958987  )
        51           O   tau(  51) = (   0.2842412   1.2668028   0.9461765  )
        52           O   tau(  52) = (   0.6516286   3.5538095   0.1035457  )
        53           H   tau(  53) = (   0.3325113   2.3601015   1.2779772  )
        54           H   tau(  54) = (   0.4750981   0.0730948   1.8711894  )
        55           H   tau(  55) = (   0.5392283   2.2139119   0.8214672  )
        56           H   tau(  56) = (   0.3966415   4.5009185   0.2282550  )
        57           H   tau(  57) = (   0.7403208   2.8456149   1.1068805  )
        58           H   tau(  58) = (   0.0672886   0.5586082   2.0422860  )
        59           H   tau(  59) = (   0.1314188   1.7283985   0.9925638  )
        60           H   tau(  60) = (   0.8044510   4.0154051   0.0571584  )
        61           H   tau(  61) = (   0.5133448   3.2419999   0.4492078  )
        62           H   tau(  62) = (   0.4225250   0.9549932   0.6005144  )
        63           H   tau(  63) = (   0.3583948   1.3320135   1.6502365  )
        64           H   tau(  64) = (   0.4492146   3.6190201   1.4989300  )
        65           H   tau(  65) = (   0.0926056   2.5950424   2.0011301  )
        66           H   tau(  66) = (   0.7150038   0.3080358   1.1480365  )
        67           H   tau(  67) = (   0.7791340   1.9789709   0.0983143  )
        68           H   tau(  68) = (   0.1567358   4.2659776   0.9514079  )
        69           H   tau(  69) = (   0.4263301   2.6494618   1.7559746  )
        70           H   tau(  70) = (   0.3812793   0.3624551   1.3931920  )
        71           H   tau(  71) = (   0.4454095   1.9245515   0.3434698  )
        72           H   tau(  72) = (   0.4904603   4.2115582   0.7062524  )
        73           H   tau(  73) = (   0.2696920   2.2888328   1.7936556  )
        74           H   tau(  74) = (   0.5379174   4.5758395   1.3555109  )
        75           H   tau(  75) = (   0.6020476   2.2851805   0.3057887  )
        76           H   tau(  76) = (   0.3338222  -0.0018262   0.7439335  )
        77           H   tau(  77) = (   0.0959275   3.4997030   0.6277988  )
        78           H   tau(  78) = (   0.8399423   1.2126963   0.4219234  )
        79           H   tau(  79) = (   0.7758121   1.0743103   1.4716456  )
        80           H   tau(  80) = (   0.0317973   3.3613170   1.6775210  )
        81           H   tau(  81) = (   0.2172824   3.7305811   0.9399578  )
        82           H   tau(  82) = (   0.5903270   1.4435744   2.2092088  )
        83           H   tau(  83) = (   0.6544572   0.8434323   1.1594866  )
        84           H   tau(  84) = (   0.2814126   3.1304389  -0.1097644  )
        85           H   tau(  85) = (  -0.0047547   3.4057412   1.0095755  )
        86           H   tau(  86) = (   0.9406245   1.1187345   0.0401467  )
        87           H   tau(  87) = (   0.8764943   1.1682722   1.0898689  )
        88           H   tau(  88) = (  -0.0688850   3.4552789   2.0592976  )

     number of k points=     6
                       cart. coord. in units 2pi/alat
        k(    1) = (   0.0000000   0.0000000   0.0000000), wk =   0.2500000
        k(    2) = (   0.0000000   0.0000000  -0.2381583), wk =   0.2500000
        k(    3) = (   0.2500000   0.0000000   0.0152731), wk =   0.5000000
        k(    4) = (   0.2500000   0.0000000  -0.2228851), wk =   0.5000000
        k(    5) = (  -0.5000000   0.0000000  -0.0305463), wk =   0.2500000
        k(    6) = (  -0.5000000   0.0000000  -0.2687045), wk =   0.2500000

     Dense  grid:   756943 G-vectors     FFT dimensions: (  54, 243, 120)

     Estimated max dynamical RAM per process >     625.00MB

     Estimated total allocated dynamical RAM >    5000.00MB

     Check: negative/imaginary core charge=   -0.000002    0.000000

     Initial potential from superposition of free atoms

     starting charge  287.99855, renormalised to  288.00000
     Starting wfc are  244 randomized atomic wfcs
     Checking if some PAW data can be deallocated... 

     total cpu time spent up to now is       34.5 secs

     per-process dynamical memory:   415.7 Mb

     Self-consistent Calculation

     iteration #  1     ecut=   100.00 Ry     beta=0.50
     Davidson diagonalization with overlap
     ethr =  1.00E-02,  avg # of iterations =  5.5

     total cpu time spent up to now is      129.8 secs

     total energy              =   -1488.84251294 Ry
     Harris-Foulkes estimate   =   -1494.41705597 Ry
     estimated scf accuracy    <      10.11693751 Ry

     iteration #  2     ecut=   100.00 Ry     beta=0.50
     Davidson diagonalization with overlap
     ethr =  3.51E-03,  avg # of iterations =  3.0

     total cpu time spent up to now is      182.8 secs

     total energy              =   -1490.34718711 Ry
     Harris-Foulkes estimate   =   -1491.15228786 Ry
     estimated scf accuracy    <       1.62679067 Ry

     iteration #  3     ecut=   100.00 Ry     beta=0.50
     Davidson diagonalization with overlap
     ethr =  5.65E-04,  avg # of iterations =  7.3

     total cpu time spent up to now is      270.4 secs

     total energy              =   -1491.04635345 Ry
     Harris-Foulkes estimate   =   -1491.35714714 Ry
     estimated scf accuracy    <       0.81017379 Ry

     iteration #  4     ecut=   100.00 Ry     beta=0.50
     Davidson diagonalization with overlap
     ethr =  2.81E-04,  avg # of iterations =  2.0

     total cpu time spent up to now is      316.1 secs

     total energy              =   -1491.06181924 Ry
     Harris-Foulkes estimate   =   -1491.13335948 Ry
     estimated scf accuracy    <       0.14396524 Ry

     iteration #  5     ecut=   100.00 Ry     beta=0.50
     Davidson diagonalization with overlap
     ethr =  5.00E-05,  avg # of iterations =  6.3

     total cpu time spent up to now is      407.3 secs

     total energy              =   -1491.14670991 Ry
     Harris-Foulkes estimate   =   -1491.19462583 Ry
     estimated scf accuracy    <       0.15069821 Ry

     iteration #  6     ecut=   100.00 Ry     beta=0.50
     Davidson diagonalization with overlap
     ethr =  5.00E-05,  avg # of iterations =  1.0

     total cpu time spent up to now is      450.5 secs

     total energy              =   -1491.12972376 Ry
     Harris-Foulkes estimate   =   -1491.15148461 Ry
     estimated scf accuracy    <       0.06297093 Ry

     iteration #  7     ecut=   100.00 Ry     beta=0.50
     Davidson diagonalization with overlap
     ethr =  2.19E-05,  avg # of iterations =  3.5

     total cpu time spent up to now is      513.8 secs

     total energy              =   -1491.14782299 Ry
     Harris-Foulkes estimate   =   -1491.14875256 Ry
     estimated scf accuracy    <       0.00266972 Ry

     iteration #  8     ecut=   100.00 Ry     beta=0.50
     Davidson diagonalization with overlap
     ethr =  9.27E-07,  avg # of iterations =  6.8

     total cpu time spent up to now is      607.6 secs

     total energy              =   -1491.14778069 Ry
     Harris-Foulkes estimate   =   -1491.14961666 Ry
     estimated scf accuracy    <       0.00378060 Ry

     iteration #  9     ecut=   100.00 Ry     beta=0.50
     Davidson diagonalization with overlap
     ethr =  9.27E-07,  avg # of iterations =  3.3

     total cpu time spent up to now is      656.0 secs

     total energy              =   -1491.14793594 Ry
     Harris-Foulkes estimate   =   -1491.14814537 Ry
     estimated scf accuracy    <       0.00042087 Ry

     iteration # 10     ecut=   100.00 Ry     beta=0.50
     Davidson diagonalization with overlap
     ethr =  1.46E-07,  avg # of iterations =  4.0

     total cpu time spent up to now is      742.4 secs

     total energy              =   -1491.14844732 Ry
     Harris-Foulkes estimate   =   -1491.14858742 Ry
     estimated scf accuracy    <       0.00036805 Ry

     iteration # 11     ecut=   100.00 Ry     beta=0.50
     Davidson diagonalization with overlap
     ethr =  1.28E-07,  avg # of iterations =  1.8

     total cpu time spent up to now is      786.3 secs

     total energy              =   -1491.14840377 Ry
     Harris-Foulkes estimate   =   -1491.14846060 Ry
     estimated scf accuracy    <       0.00011611 Ry

     iteration # 12     ecut=   100.00 Ry     beta=0.50
     Davidson diagonalization with overlap
     ethr =  4.03E-08,  avg # of iterations =  4.0

     total cpu time spent up to now is      860.5 secs

     total energy              =   -1491.14846985 Ry
     Harris-Foulkes estimate   =   -1491.14848022 Ry
     estimated scf accuracy    <       0.00002329 Ry

     iteration # 13     ecut=   100.00 Ry     beta=0.50
     Davidson diagonalization with overlap
     ethr =  8.09E-09,  avg # of iterations =  2.0

     total cpu time spent up to now is      905.6 secs

     total energy              =   -1491.14846832 Ry
     Harris-Foulkes estimate   =   -1491.14847112 Ry
     estimated scf accuracy    <       0.00000546 Ry

     iteration # 14     ecut=   100.00 Ry     beta=0.50
     Davidson diagonalization with overlap
     ethr =  1.90E-09,  avg # of iterations =  4.0

     total cpu time spent up to now is      984.3 secs

     total energy              =   -1491.14847288 Ry
     Harris-Foulkes estimate   =   -1491.14847359 Ry
     estimated scf accuracy    <       0.00000230 Ry

     iteration # 15     ecut=   100.00 Ry     beta=0.50
     Davidson diagonalization with overlap
     ethr =  7.98E-10,  avg # of iterations =  1.0

     total cpu time spent up to now is     1027.4 secs

     total energy              =   -1491.14847244 Ry
     Harris-Foulkes estimate   =   -1491.14847293 Ry
     estimated scf accuracy    <       0.00000106 Ry

     iteration # 16     ecut=   100.00 Ry     beta=0.50
     Davidson diagonalization with overlap
     ethr =  3.68E-10,  avg # of iterations =  3.3

     total cpu time spent up to now is     1091.7 secs

     total energy              =   -1491.14847285 Ry
     Harris-Foulkes estimate   =   -1491.14847286 Ry
     estimated scf accuracy    <       0.00000004 Ry

     iteration # 17     ecut=   100.00 Ry     beta=0.50
     Davidson diagonalization with overlap
     ethr =  1.23E-11,  avg # of iterations =  3.0

     total cpu time spent up to now is     1140.5 secs

     total energy              =   -1491.14847285 Ry
     Harris-Foulkes estimate   =   -1491.14847286 Ry
     estimated scf accuracy    <       0.00000002 Ry

     iteration # 18     ecut=   100.00 Ry     beta=0.50
     Davidson diagonalization with overlap
     ethr =  6.26E-12,  avg # of iterations =  3.7

     total cpu time spent up to now is     1192.3 secs

     End of self-consistent calculation

          k = 0.0000 0.0000 0.0000 ( 94627 PWs)   bands (ev):

   -20.8940 -20.8859 -20.7693 -20.7553 -20.2712 -20.2375 -20.1682 -20.1398
   -19.8504 -19.8444 -19.8105 -19.8076 -19.6800 -19.6680 -19.6611 -19.6528
   -17.2610 -17.2569 -17.2088 -17.2020 -16.7797 -16.7293 -16.7280 -16.6768
   -16.3407 -16.3377 -16.3011 -16.2945 -12.3344 -12.3012 -12.2598 -12.2252
   -12.0482 -12.0012 -11.9905 -11.9423 -10.5284 -10.4527 -10.4383 -10.3571
    -9.3083  -9.2612  -9.2350  -9.1808  -8.8514  -8.7925  -8.7466  -8.6632
    -7.9017  -7.8886  -7.8721  -7.8650  -7.3782  -7.2645  -7.1732  -7.0660
    -6.3240  -6.1879  -6.1651  -5.9977  -5.9657  -5.9031  -5.8444  -5.7635
    -5.6632  -5.6471  -5.5120  -5.5073  -5.4439  -5.4093  -4.8690  -4.8343
    -4.8199  -4.7903  -4.7500  -4.6886  -4.6315  -4.5706  -4.5544  -4.5413
    -4.4278  -4.3483  -4.3213  -4.2644  -4.2149  -4.1527  -4.1135  -4.1071
    -3.8100  -3.7519  -3.7091  -3.6993  -3.6422  -3.6299  -3.5726  -3.4531
    -3.4181  -3.3108  -3.2886  -3.2802  -3.2684  -3.2657  -3.0203  -3.0174
    -2.9176  -2.8816  -2.8350  -2.8187  -2.6596  -2.6096  -2.5968  -2.5860
    -2.5090  -2.4415  -2.4159  -2.3915  -1.1479  -1.1368  -1.1168  -1.0726
    -1.0346  -0.9677  -0.9612  -0.9569  -0.7189  -0.6252  -0.5316  -0.5234
    -0.4267  -0.4210  -0.4107  -0.3940  -0.2463  -0.1723  -0.1457  -0.1215
    -0.0359  -0.0323   0.1141   0.1233   0.4165   0.4451   0.5098   0.5137
     4.3876   4.4258   4.4600   4.5140   5.0575   5.1290   5.2079   5.2629
     6.0892   6.1135   6.3288   6.4761   6.4882   6.7973   6.8498   7.2864
     7.2949   7.4151   7.5122   7.5686   7.8407   7.8792   8.1226   8.1710
     8.3997   8.4173   8.4438   8.6878

          k = 0.0000 0.0000-0.2382 ( 94644 PWs)   bands (ev):

   -20.8896 -20.8896 -20.7619 -20.7619 -20.2553 -20.2553 -20.1550 -20.1550
   -19.8481 -19.8481 -19.8095 -19.8095 -19.6695 -19.6695 -19.6593 -19.6593
   -17.2584 -17.2584 -17.2048 -17.2048 -16.7530 -16.7530 -16.7022 -16.7022
   -16.3224 -16.3224 -16.3177 -16.3177 -12.3008 -12.3008 -12.2664 -12.2663
   -11.9973 -11.9973 -11.9929 -11.9929 -10.4631 -10.4631 -10.4117 -10.4117
    -9.2633  -9.2633  -9.2470  -9.2470  -8.7810  -8.7810  -8.7318  -8.7318
    -7.8872  -7.8872  -7.8750  -7.8750  -7.2832  -7.2832  -7.1756  -7.1756
    -6.2598  -6.2598  -6.1171  -6.1171  -5.9179  -5.9179  -5.8520  -5.8520
    -5.6272  -5.6272  -5.5745  -5.5745  -5.3215  -5.3215  -4.8785  -4.8785
    -4.7748  -4.7748  -4.7314  -4.7314  -4.6387  -4.6387  -4.5504  -4.5504
    -4.3492  -4.3492  -4.3155  -4.3155  -4.0936  -4.0936  -4.0758  -4.0758
    -3.7603  -3.7603  -3.6670  -3.6670  -3.5336  -3.5335  -3.4819  -3.4819
    -3.4613  -3.4613  -3.4077  -3.4077  -3.1749  -3.1749  -3.1644  -3.1644
    -2.9095  -2.9095  -2.8216  -2.8216  -2.6435  -2.6435  -2.5629  -2.5629
    -2.4691  -2.4691  -2.4104  -2.4104  -1.1407  -1.1407  -1.0961  -1.0961
    -1.0188  -1.0188  -0.9663  -0.9663  -0.6566  -0.6566  -0.5076  -0.5076
    -0.4303  -0.4303  -0.4019  -0.4019  -0.1876  -0.1876  -0.1702  -0.1702
    -0.0100  -0.0100   0.0262   0.0262   0.4693   0.4693   0.5042   0.5043
     4.3864   4.3864   4.4835   4.4835   5.0901   5.0901   5.2360   5.2360
     6.1869   6.1870   6.4631   6.4631   6.8953   6.8953   7.0903   7.0903
     7.2671   7.2671   7.4718   7.4718   7.6480   7.6480   8.1541   8.1541
     8.4564   8.4564   8.8296   8.8296

          k = 0.2500 0.0000 0.0153 ( 94500 PWs)   bands (ev):

   -20.8265 -20.8191 -20.7333 -20.7218 -20.2452 -20.2125 -20.1740 -20.1446
   -19.8332 -19.8297 -19.8046 -19.8027 -19.6828 -19.6702 -19.6600 -19.6485
   -17.3179 -17.3132 -17.2479 -17.2392 -16.8046 -16.7501 -16.7378 -16.6872
   -16.4032 -16.3619 -16.3422 -16.3024 -12.3703 -12.3638 -12.3244 -12.3188
   -12.0928 -12.0890 -12.0496 -12.0491 -10.4900 -10.4822 -10.3653 -10.3522
    -9.2429  -9.2226  -9.2120  -9.1872  -8.8594  -8.7849  -8.7238  -8.6282
    -7.9184  -7.9020  -7.8641  -7.8498  -7.3692  -7.2261  -7.1533  -7.0508
    -6.3214  -6.1744  -6.1634  -6.0567  -5.9455  -5.9225  -5.8800  -5.8767
    -5.6119  -5.5981  -5.5400  -5.5262  -5.3782  -5.3606  -5.2173  -5.1584
    -4.9469  -4.9441  -4.8413  -4.8374  -4.6168  -4.5767  -4.4908  -4.4670
    -4.3635  -4.3433  -4.3307  -4.3200  -4.2820  -4.1982  -4.1842  -4.0746
    -4.0561  -4.0286  -3.7783  -3.7579  -3.7493  -3.7010  -3.6928  -3.5981
    -3.5299  -3.4596  -3.4137  -3.3873  -3.1773  -3.1693  -3.1498  -3.1373
    -2.9533  -2.9123  -2.8298  -2.8242  -2.1720  -2.1693  -2.1513  -2.1399
    -2.0473  -2.0399  -1.9144  -1.9107  -1.0597  -1.0199  -0.9992  -0.9139
    -0.8524  -0.8232  -0.7505  -0.7302  -0.6272  -0.5580  -0.5360  -0.4849
    -0.4302  -0.4031  -0.3700  -0.3294  -0.1364  -0.0786  -0.0194  -0.0138
     0.0333   0.0512   0.1267   0.1417   0.4445   0.4811   0.5186   0.5369
     4.1452   4.1882   4.2355   4.2893   4.9217   4.9813   5.0637   5.1169
     5.8679   5.9504   6.1129   6.2439   6.7611   6.9416   6.9592   7.2461
     7.2499   7.3735   7.4538   7.8126   8.1032   8.1178   8.2551   8.3741
     8.5245   8.6649   8.6657   8.8172

          k = 0.2500 0.0000-0.2229 ( 94583 PWs)   bands (ev):

   -20.8226 -20.8223 -20.7274 -20.7271 -20.2306 -20.2287 -20.1611 -20.1592
   -19.8332 -19.8311 -19.8052 -19.8031 -19.6758 -19.6754 -19.6539 -19.6528
   -17.3157 -17.3143 -17.2438 -17.2420 -16.7765 -16.7765 -16.7117 -16.7111
   -16.3842 -16.3842 -16.3239 -16.3237 -12.3812 -12.3631 -12.3282 -12.3065
   -12.1032 -12.0881 -12.0538 -12.0369 -10.4793 -10.4559 -10.3825 -10.3576
    -9.2824  -9.2397  -9.2090  -9.1649  -8.7881  -8.7614  -8.7260  -8.6964
    -7.9115  -7.9078  -7.8608  -7.8501  -7.2709  -7.2659  -7.1473  -7.1412
    -6.2732  -6.2532  -6.1654  -6.1009  -5.9665  -5.9488  -5.9019  -5.7933
    -5.5929  -5.5750  -5.5098  -5.5090  -5.4333  -5.4224  -5.2029  -5.1647
    -4.9480  -4.8787  -4.8280  -4.8265  -4.5957  -4.5898  -4.5202  -4.5074
    -4.3847  -4.3535  -4.2992  -4.2436  -4.2131  -4.1845  -4.1440  -4.1301
    -3.9506  -3.9330  -3.9009  -3.8646  -3.7311  -3.7298  -3.6528  -3.6444
    -3.4398  -3.4392  -3.3898  -3.3499  -3.2652  -3.2378  -3.1453  -3.0881
    -2.9477  -2.9078  -2.8738  -2.8353  -2.1856  -2.1680  -2.1561  -2.1382
    -2.0516  -2.0484  -1.9081  -1.8918  -1.0450  -1.0401  -0.9602  -0.9553
    -0.8799  -0.8639  -0.7569  -0.7361  -0.5706  -0.5670  -0.5020  -0.4956
    -0.4382  -0.4147  -0.3717  -0.3692  -0.1150  -0.0875  -0.0443  -0.0298
     0.0403   0.0654   0.0832   0.1200   0.4545   0.4999   0.5068   0.5548
     4.1591   4.1651   4.2636   4.2749   4.9150   4.9540   5.0820   5.1028
     5.9422   5.9622   6.1578   6.1843   6.9844   7.0275   7.1693   7.2488
     7.3107   7.3385   7.6038   7.6685   7.8429   7.8730   8.2255   8.4003
     8.6384   8.7227   8.8702   8.9185

          k =-0.5000 0.0000-0.0305 ( 94618 PWs)   bands (ev):

   -20.7251 -20.7210 -20.7176 -20.7136 -20.2088 -20.1977 -20.1775 -20.1666
   -19.8150 -19.8138 -19.8018 -19.8005 -19.6842 -19.6773 -19.6529 -19.6458
   -17.3750 -17.3696 -17.2857 -17.2753 -16.8270 -16.7700 -16.7508 -16.7021
   -16.4503 -16.4086 -16.3624 -16.3239 -12.4397 -12.4191 -12.3978 -12.3767
   -12.1669 -12.1527 -12.1215 -12.1086 -10.4983 -10.4582 -10.3446 -10.3021
    -9.2078  -9.1981  -9.1953  -9.1886  -8.8488  -8.7751  -8.6966  -8.6065
    -7.9339  -7.9111  -7.8336  -7.8301  -7.3626  -7.1922  -7.1325  -7.0579
    -6.4098  -6.2628  -6.0677  -6.0277  -6.0023  -5.9713  -5.7799  -5.7636
    -5.5858  -5.5791  -5.4465  -5.4432  -5.3962  -5.3832  -5.3334  -5.2519
    -5.1706  -5.1672  -5.0135  -4.9405  -4.7281  -4.6739  -4.6558  -4.6168
    -4.5488  -4.4502  -4.4123  -4.4026  -4.2295  -4.2211  -4.1969  -4.1149
    -4.0421  -4.0139  -3.9767  -3.9251  -3.8176  -3.8143  -3.7462  -3.6855
    -3.5270  -3.5125  -3.4101  -3.4032  -3.2077  -3.1687  -3.1399  -3.1290
    -2.8451  -2.8074  -2.7817  -2.7496  -1.9227  -1.9132  -1.7385  -1.7048
    -1.5684  -1.5502  -1.5489  -1.5448  -0.9187  -0.9164  -0.8139  -0.7757
    -0.6747  -0.6138  -0.6101  -0.5457  -0.5217  -0.4554  -0.4521  -0.4291
    -0.4248  -0.3170  -0.3071  -0.2266  -0.1444  -0.0742  -0.0051   0.0569
     0.1359   0.1528   0.1598   0.1897   0.4613   0.5034   0.5108   0.5499
     3.8377   3.9139   3.9364   4.0114   4.7716   4.8016   4.9269   4.9531
     5.7785   5.8697   5.8873   5.9691   6.9357   7.0080   7.0335   7.1224
     7.3724   7.3986   7.8568   7.9400   8.0857   8.2867   8.4837   8.5920
     8.6036   8.6923   8.7274   8.8458

          k =-0.5000 0.0000-0.2687 ( 94596 PWs)   bands (ev):

   -20.7210 -20.7210 -20.7170 -20.7170 -20.1938 -20.1938 -20.1828 -20.1828
   -19.8151 -19.8151 -19.8018 -19.8018 -19.6800 -19.6800 -19.6485 -19.6485
   -17.3718 -17.3718 -17.2798 -17.2798 -16.7977 -16.7977 -16.7251 -16.7251
   -16.4313 -16.4313 -16.3447 -16.3447 -12.4162 -12.4162 -12.4109 -12.4109
   -12.1439 -12.1438 -12.1192 -12.1192 -10.4656 -10.4656 -10.3354 -10.3354
    -9.2310  -9.2310  -9.1813  -9.1813  -8.7546  -8.7546  -8.6940  -8.6940
    -7.9234  -7.9234  -7.8282  -7.8282  -7.2527  -7.2527  -7.1241  -7.1241
    -6.3566  -6.3566  -6.0321  -6.0321  -6.0208  -6.0208  -5.7844  -5.7844
    -5.4893  -5.4893  -5.4586  -5.4586  -5.3886  -5.3886  -5.2848  -5.2848
    -5.2211  -5.2211  -5.0056  -5.0056  -4.6983  -4.6983  -4.6366  -4.6366
    -4.5244  -4.5244  -4.3303  -4.3303  -4.3178  -4.3178  -4.1330  -4.1330
    -3.9939  -3.9939  -3.9051  -3.9051  -3.7597  -3.7597  -3.7109  -3.7109
    -3.5167  -3.5167  -3.3874  -3.3874  -3.2727  -3.2726  -3.1089  -3.1089
    -2.8322  -2.8322  -2.7709  -2.7709  -1.9134  -1.9134  -1.7334  -1.7334
    -1.5598  -1.5598  -1.5442  -1.5442  -0.9316  -0.9316  -0.8134  -0.8134
    -0.5781  -0.5781  -0.5688  -0.5688  -0.5371  -0.5371  -0.4709  -0.4709
    -0.3983  -0.3983  -0.2763  -0.2763  -0.0911  -0.0911   0.0211   0.0211
     0.1350   0.1350   0.1676   0.1676   0.4761   0.4761   0.5509   0.5509
     3.8848   3.8848   3.9818   3.9818   4.7811   4.7811   4.9361   4.9361
     5.8090   5.8090   5.9459   5.9459   6.9628   6.9628   7.0757   7.0757
     7.7806   7.7806   7.8787   7.8787   8.0895   8.0896   8.4470   8.4470
     8.5829   8.5829   8.6984   8.6984

     highest occupied, lowest unoccupied level (ev):     0.5548    3.8377

!    total energy              =   -1491.14847285 Ry
     Harris-Foulkes estimate   =   -1491.14847286 Ry
     estimated scf accuracy    <          3.5E-09 Ry

     total all-electron energy =     -5594.622643 Ry

     The total energy is the sum of the following terms:

     one-electron contribution =    -971.25587887 Ry
     hartree contribution      =     599.19513295 Ry
     xc contribution           =    -309.46538518 Ry
     ewald contribution        =    -398.00770207 Ry
     Dispersion Correction     =      -0.41830772 Ry
     one-center paw contrib.   =    -411.19633196 Ry

     convergence has been achieved in  18 iterations

     Forces acting on atoms (cartesian axes, Ry/au):

     atom    1 type  1   force =    -0.00767264    0.01626552   -0.00432965
     atom    2 type  1   force =     0.00767322    0.01625693    0.00432960
     atom    3 type  1   force =     0.00767264   -0.01626552    0.00432965
     atom    4 type  1   force =    -0.00767322   -0.01625693   -0.00432960
     atom    5 type  1   force =     0.01244904   -0.00903435    0.00175662
     atom    6 type  1   force =    -0.01244858   -0.00904717   -0.00175672
     atom    7 type  1   force =    -0.01244904    0.00903435   -0.00175662
     atom    8 type  1   force =     0.01244858    0.00904717    0.00175672
     atom    9 type  1   force =     0.01627562   -0.01182844    0.00402273
     atom   10 type  1   force =    -0.01627483   -0.01184752   -0.00402260
     atom   11 type  1   force =    -0.01627562    0.01182844   -0.00402273
     atom   12 type  1   force =     0.01627483    0.01184752    0.00402260
     atom   13 type  1   force =     0.03136203   -0.02152143    0.00828603
     atom   14 type  1   force =    -0.03136257   -0.02154099   -0.00828551
     atom   15 type  1   force =    -0.03136203    0.02152143   -0.00828603
     atom   16 type  1   force =     0.03136257    0.02154099    0.00828551
     atom   17 type  1   force =     0.01104639   -0.00464448    0.01124702
     atom   18 type  1   force =    -0.01104646   -0.00464562   -0.01124738
     atom   19 type  1   force =    -0.01104639    0.00464448   -0.01124702
     atom   20 type  1   force =     0.01104646    0.00464562    0.01124738
     atom   21 type  1   force =    -0.03866062    0.00776490    0.00676010
     atom   22 type  1   force =     0.03866080    0.00778380   -0.00675950
     atom   23 type  1   force =     0.03866062   -0.00776490   -0.00676010
     atom   24 type  1   force =    -0.03866080   -0.00778380    0.00675950
     atom   25 type  2   force =    -0.00503517   -0.00008103   -0.00733294
     atom   26 type  2   force =     0.00503525   -0.00008078    0.00733255
     atom   27 type  2   force =     0.00503517    0.00008103    0.00733294
     atom   28 type  2   force =    -0.00503525    0.00008078   -0.00733255
     atom   29 type  2   force =     0.00299878    0.02056305   -0.00553262
     atom   30 type  2   force =    -0.00299905    0.02056286    0.00553209
     atom   31 type  2   force =    -0.00299878   -0.02056305    0.00553262
     atom   32 type  2   force =     0.00299905   -0.02056286   -0.00553209
     atom   33 type  2   force =    -0.00789645    0.01454020    0.00640447
     atom   34 type  2   force =     0.00789648    0.01454034   -0.00640494
     atom   35 type  2   force =     0.00789645   -0.01454020   -0.00640447
     atom   36 type  2   force =    -0.00789648   -0.01454034    0.00640494
     atom   37 type  4   force =     0.01596058   -0.00315634   -0.01227816
     atom   38 type  4   force =    -0.01596077   -0.00315836    0.01227800
     atom   39 type  4   force =    -0.01596058    0.00315634    0.01227816
     atom   40 type  4   force =     0.01596077    0.00315836   -0.01227800
     atom   41 type  4   force =    -0.01553875    0.00095619   -0.00301312
     atom   42 type  4   force =     0.01553896    0.00095929    0.00301334
     atom   43 type  4   force =     0.01553875   -0.00095619    0.00301312
     atom   44 type  4   force =    -0.01553896   -0.00095929   -0.00301334
     atom   45 type  4   force =    -0.01391961   -0.00392700   -0.00816662
     atom   46 type  4   force =     0.01391953   -0.00392343    0.00816571
     atom   47 type  4   force =     0.01391961    0.00392700    0.00816662
     atom   48 type  4   force =    -0.01391953    0.00392343   -0.00816571
     atom   49 type  4   force =    -0.02019169   -0.00340202    0.00491361
     atom   50 type  4   force =     0.02019011   -0.00340981   -0.00491456
     atom   51 type  4   force =     0.02019169    0.00340202   -0.00491361
     atom   52 type  4   force =    -0.02019011    0.00340981    0.00491456
     atom   53 type  3   force =     0.00056996    0.00131027   -0.00006917
     atom   54 type  3   force =    -0.00056994    0.00131028    0.00006917
     atom   55 type  3   force =    -0.00056996   -0.00131027    0.00006917
     atom   56 type  3   force =     0.00056994   -0.00131028   -0.00006917
     atom   57 type  3   force =     0.00041677    0.00059524    0.00296103
     atom   58 type  3   force =    -0.00041692    0.00059529   -0.00296092
     atom   59 type  3   force =    -0.00041677   -0.00059524   -0.00296103
     atom   60 type  3   force =     0.00041692   -0.00059529    0.00296092
     atom   61 type  3   force =     0.00055677   -0.00178353   -0.00021280
     atom   62 type  3   force =    -0.00055671   -0.00178331    0.00021298
     atom   63 type  3   force =    -0.00055677    0.00178353    0.00021280
     atom   64 type  3   force =     0.00055671    0.00178331   -0.00021298
     atom   65 type  3   force =     0.00219125    0.00000848    0.00077564
     atom   66 type  3   force =    -0.00219118    0.00000806   -0.00077571
     atom   67 type  3   force =    -0.00219125   -0.00000848   -0.00077564
     atom   68 type  3   force =     0.00219118   -0.00000806    0.00077571
     atom   69 type  3   force =    -0.01519622   -0.00312761    0.01468065
     atom   70 type  3   force =     0.01519628   -0.00312795   -0.01468066
     atom   71 type  3   force =     0.01519622    0.00312761   -0.01468065
     atom   72 type  3   force =    -0.01519628    0.00312795    0.01468066
     atom   73 type  3   force =    -0.00487619   -0.00211565    0.00094766
     atom   74 type  3   force =     0.00487607   -0.00211512   -0.00094758
     atom   75 type  3   force =     0.00487619    0.00211565   -0.00094766
     atom   76 type  3   force =    -0.00487607    0.00211512    0.00094758
     atom   77 type  3   force =     0.00338406    0.00307275   -0.00424815
     atom   78 type  3   force =    -0.00338411    0.00307263    0.00424813
     atom   79 type  3   force =    -0.00338406   -0.00307275    0.00424815
     atom   80 type  3   force =     0.00338411   -0.00307263   -0.00424813
     atom   81 type  3   force =     0.00186241    0.00146745   -0.00043572
     atom   82 type  3   force =    -0.00186273    0.00146806    0.00043517
     atom   83 type  3   force =    -0.00186241   -0.00146745    0.00043572
     atom   84 type  3   force =     0.00186273   -0.00146806   -0.00043517
     atom   85 type  3   force =     0.02972640    0.01111758   -0.01507153
     atom   86 type  3   force =    -0.02972647    0.01111756    0.01507158
     atom   87 type  3   force =    -0.02972640   -0.01111758    0.01507153
     atom   88 type  3   force =     0.02972647   -0.01111756   -0.01507158

     Total force =     0.183490     Total SCF correction =     0.000079


     Computing stress (Cartesian axis) and pressure

          total   stress  (Ry/bohr**3)                   (kbar)     P=    3.25
   0.00004941  -0.00000000   0.00006482          7.27     -0.00      9.54
  -0.00000000   0.00000150  -0.00000000         -0.00      0.22     -0.00
   0.00006482  -0.00000000   0.00001534          9.54     -0.00      2.26


     Writing output data file scf.save
 
     init_run     :     32.79s CPU     33.82s WALL (       1 calls)
     electrons    :   1110.62s CPU   1157.89s WALL (       1 calls)
     forces       :     16.97s CPU     17.14s WALL (       1 calls)
     stress       :     61.18s CPU     61.45s WALL (       1 calls)

     Called by init_run:
     wfcinit      :     23.63s CPU     24.56s WALL (       1 calls)
     potinit      :      3.31s CPU      3.34s WALL (       1 calls)

     Called by electrons:
     c_bands      :    992.35s CPU   1031.54s WALL (      18 calls)
     sum_band     :    104.55s CPU    111.36s WALL (      18 calls)
     v_of_rho     :      1.98s CPU      2.21s WALL (      19 calls)
     newd         :      4.82s CPU      5.82s WALL (      19 calls)
     PAW_pot      :      6.39s CPU      6.40s WALL (      19 calls)
     mix_rho      :      0.47s CPU      0.52s WALL (      18 calls)

     Called by c_bands:
     init_us_2    :      5.20s CPU      5.23s WALL (     234 calls)
     cegterg      :    970.22s CPU   1009.35s WALL (     108 calls)

     Called by sum_band:
     sum_band:bec :      0.06s CPU      0.06s WALL (     108 calls)
     addusdens    :      4.78s CPU      5.73s WALL (      18 calls)

     Called by *egterg:
     h_psi        :    532.79s CPU    563.51s WALL (     508 calls)
     s_psi        :    107.56s CPU    107.60s WALL (     508 calls)
     g_psi        :      2.57s CPU      2.57s WALL (     394 calls)
     cdiaghg      :     60.20s CPU     60.25s WALL (     502 calls)

     Called by h_psi:
     h_psi:pot    :    529.21s CPU    559.87s WALL (     508 calls)
     h_psi:calbec :    109.83s CPU    110.13s WALL (     508 calls)
     vloc_psi     :    311.78s CPU    342.10s WALL (     508 calls)
     add_vuspsi   :    107.61s CPU    107.65s WALL (     508 calls)

     General routines
     calbec       :    158.02s CPU    158.44s WALL (     646 calls)
     fft          :      1.40s CPU      1.78s WALL (     271 calls)
     fftw         :    340.41s CPU    375.54s WALL (  124438 calls)
 
     Parallel routines
     fft_scatter  :     76.00s CPU    106.29s WALL (  124709 calls)
 
     PWSCF        : 20m28.79s CPU    21m48.04s WALL

 
   This run was terminated on:  16:41:39  21Dec2017            

=------------------------------------------------------------------------------=
   JOB DONE.
=------------------------------------------------------------------------------=
