
     Program PWSCF v.6.1 (svn rev. 13369) starts on  5Nov2017 at  0: 0:31 

     This program is part of the open-source Quantum ESPRESSO suite
     for quantum simulation of materials; please cite
         "P. Giannozzi et al., J. Phys.:Condens. Matter 21 395502 (2009);
          URL http://www.quantum-espresso.org", 
     in publications or presentations arising from this work. More details at
     http://www.quantum-espresso.org/quote

     Parallel version (MPI), running on     8 processors
     R & G space division:  proc/nbgrp/npool/nimage =       8
     Waiting for input...
     Reading input from standard input

     Current dimensions of program PWSCF are:
     Max number of different atomic species (ntypx) = 10
     Max number of k-points (npk) =  40000
     Max angular momentum in pseudopotentials (lmaxx) =  3
               file C.pbe-n-kjpaw_psl.0.1.UPF: wavefunction(s)  2P renormalized
               file N.pbe-n-kjpaw_psl.0.1.UPF: wavefunction(s)  2P renormalized
               file H.pbe-kjpaw_psl.0.1.UPF: wavefunction(s)  1S renormalized
               file O.pbe-n-kjpaw_psl.0.1.UPF: wavefunction(s)  2P renormalized

     -------------------------------------
     Parameters for Dispersion Correction:
     -------------------------------------
       atom      VdW radius       C_6     

        C          2.744         60.710
        N          2.640         42.670
        H          1.892          4.857
        O          2.536         24.284

     Subspace diagonalization in iterative solution of the eigenvalue problem:
     a serial algorithm will be used

 
     Parallelization info
     --------------------
     sticks:   dense  smooth     PW     G-vecs:    dense   smooth      PW
     Min         475     475    130                24807    24807    3598
     Max         476     476    131                24809    24809    3601
     Sum        3805    3805   1047               198463   198463   28803
 


     bravais-lattice index     =            0
     lattice parameter (alat)  =      10.0685  a.u.
     unit-cell volume          =    1469.1990 (a.u.)^3
     number of atoms/cell      =           24
     number of atomic types    =            4
     number of electrons       =        84.00
     number of Kohn-Sham states=           50
     kinetic-energy cutoff     =     100.0000  Ry
     charge density cutoff     =     400.0000  Ry
     convergence threshold     =      1.0E-08
     mixing beta               =       0.5000
     number of iterations used =            8  plain     mixing
     Exchange-correlation      =  SLA  PW   PBX  PBC ( 1  4  3  4 0 0)

     celldm(1)=  10.068461  celldm(2)=   0.000000  celldm(3)=   0.000000
     celldm(4)=   0.000000  celldm(5)=   0.000000  celldm(6)=   0.000000

     crystal axes: (cart. coord. in units of alat)
               a(1) = (   1.000000   0.000000   0.000000 )  
               a(2) = (   0.442141   1.179421   0.000000 )  
               a(3) = (   0.115209   0.569094   1.220457 )  

     reciprocal axes: (cart. coord. in units 2 pi/alat)
               b(1) = (  1.000000 -0.374880  0.080406 )  
               b(2) = (  0.000000  0.847874 -0.395360 )  
               b(3) = (  0.000000  0.000000  0.819365 )  


     PseudoPot. # 1 for  C read from file:
     /scratch/ahofstet/pseudo/C.pbe-n-kjpaw_psl.0.1.UPF
     MD5 check sum: 430fe95172b1e11ef3f8ed03bac87931
     Pseudo is Projector augmented-wave + core cor, Zval =  4.0
     Generated using "atomic" code by A. Dal Corso  v.5.0.99 svn rev. 10869
     Shape of augmentation charge: BESSEL
     Using radial grid of 1073 points,  4 beta functions with: 
                l(1) =   0
                l(2) =   0
                l(3) =   1
                l(4) =   1
     Q(r) pseudized with 0 coefficients 


     PseudoPot. # 2 for  N read from file:
     /scratch/ahofstet/pseudo/N.pbe-n-kjpaw_psl.0.1.UPF
     MD5 check sum: f73187c8b701007e77325f868c9291d7
     Pseudo is Projector augmented-wave + core cor, Zval =  5.0
     Generated using "atomic" code by A. Dal Corso  v.5.0.99 svn rev. 10869
     Shape of augmentation charge: PSQ
     Using radial grid of 1085 points,  4 beta functions with: 
                l(1) =   0
                l(2) =   0
                l(3) =   1
                l(4) =   1
     Q(r) pseudized with 0 coefficients 


     PseudoPot. # 3 for  H read from file:
     /scratch/ahofstet/pseudo/H.pbe-kjpaw_psl.0.1.UPF
     MD5 check sum: 94e484f906d9e9773b2f6e52662335b2
     Pseudo is Projector augmented-wave, Zval =  1.0
     Generated using "atomic" code by A. Dal Corso  v.5.0.99 svn rev. 10869
     Shape of augmentation charge: PSQ
     Using radial grid of  929 points,  2 beta functions with: 
                l(1) =   0
                l(2) =   0
     Q(r) pseudized with 0 coefficients 


     PseudoPot. # 4 for  O read from file:
     /scratch/ahofstet/pseudo/O.pbe-n-kjpaw_psl.0.1.UPF
     MD5 check sum: 3f94a2996a3169367d6eb21d9b593f20
     Pseudo is Projector augmented-wave + core cor, Zval =  6.0
     Generated using "atomic" code by A. Dal Corso  v.5.0.99 svn rev. 10869
     Shape of augmentation charge: BESSEL
     Using radial grid of 1095 points,  4 beta functions with: 
                l(1) =   0
                l(2) =   0
                l(3) =   1
                l(4) =   1
     Q(r) pseudized with 0 coefficients 


     atomic species   valence    mass     pseudopotential
        C              4.00    12.01070      C( 1.00)
        N              5.00    14.00670      N( 1.00)
        H              1.00     1.00794      H( 1.00)
        O              6.00    15.99940      O( 1.00)

      2 Sym. Ops., with inversion, found



   Cartesian axes

     site n.     atom                  positions (alat units)
         1           N   tau(   1) = (   1.0891324   0.6667622   0.4341965  )
         2           N   tau(   2) = (   0.4682177   1.0817530   0.7862608  )
         3           H   tau(   3) = (   1.0058246   0.8428045   0.4387330  )
         4           H   tau(   4) = (   0.5515256   0.9057107   0.7817243  )
         5           H   tau(   5) = (   1.0123040   0.5240274   0.5404940  )
         6           H   tau(   6) = (   0.5450461   1.2244877   0.6799633  )
         7           N   tau(   7) = (   1.1078156   1.2647820   0.2236229  )
         8           N   tau(   8) = (   0.4495345   0.4837331   0.9968344  )
         9           N   tau(   9) = (   0.6209753   0.3268091   0.1706567  )
        10           N   tau(  10) = (   0.9363748   1.4217061   1.0498007  )
        11           N   tau(  11) = (   0.7751750   1.3653425   0.4395701  )
        12           N   tau(  12) = (   0.7821752   0.3831727   0.7808872  )
        13           C   tau(  13) = (   0.4151037   0.3851592   0.3047150  )
        14           C   tau(  14) = (   1.1422464   1.3633559   0.9157424  )
        15           C   tau(  15) = (   0.2984591   0.6313027   0.3049806  )
        16           C   tau(  16) = (   1.2588910   1.1172125   0.9154768  )
        17           N   tau(  17) = (   0.9367482   1.1821656   0.3836765  )
        18           N   tau(  18) = (   0.6206019   0.5663495   0.8367809  )
        19           N   tau(  19) = (   0.4075905   0.8130204   0.1740909  )
        20           N   tau(  20) = (   1.1497596   0.9354947   1.0463665  )
        21           H   tau(  21) = (   1.3292463   0.9909082   0.1698188  )
        22           H   tau(  22) = (   0.2281039   0.7576070   1.0506386  )
        23           H   tau(  23) = (   0.5672539   0.7775954   0.0696621  )
        24           H   tau(  24) = (   0.9900962   0.9709198   1.1507952  )

     number of k points=    19
                       cart. coord. in units 2pi/alat
        k(    1) = (   0.0000000   0.0000000   0.0000000), wk =   0.0555556
        k(    2) = (   0.0000000   0.0000000   0.2731217), wk =   0.1111111
        k(    3) = (   0.0000000   0.2826246  -0.1317867), wk =   0.1111111
        k(    4) = (   0.0000000   0.2826246   0.1413349), wk =   0.1111111
        k(    5) = (   0.0000000   0.2826246  -0.4049084), wk =   0.1111111
        k(    6) = (   0.2500000  -0.0937199   0.0201016), wk =   0.1111111
        k(    7) = (   0.2500000  -0.0937199   0.2932233), wk =   0.1111111
        k(    8) = (   0.2500000  -0.0937199  -0.2530200), wk =   0.1111111
        k(    9) = (   0.2500000   0.1889047  -0.1116851), wk =   0.1111111
        k(   10) = (   0.2500000   0.1889047   0.1614365), wk =   0.1111111
        k(   11) = (   0.2500000   0.1889047  -0.3848068), wk =   0.1111111
        k(   12) = (   0.2500000  -0.3763445   0.1518883), wk =   0.1111111
        k(   13) = (   0.2500000  -0.3763445   0.4250100), wk =   0.1111111
        k(   14) = (   0.2500000  -0.3763445  -0.1212333), wk =   0.1111111
        k(   15) = (  -0.5000000   0.1874398  -0.0402032), wk =   0.0555556
        k(   16) = (  -0.5000000   0.1874398   0.2329184), wk =   0.1111111
        k(   17) = (  -0.5000000   0.4700644  -0.1719900), wk =   0.1111111
        k(   18) = (  -0.5000000   0.4700644   0.1011317), wk =   0.1111111
        k(   19) = (  -0.5000000   0.4700644  -0.4451116), wk =   0.1111111

     Dense  grid:   198463 G-vectors     FFT dimensions: (  72,  81,  90)

     Estimated max dynamical RAM per process >      90.27MB

     Estimated total allocated dynamical RAM >     722.14MB

     Check: negative/imaginary core charge=   -0.000002    0.000000

     Initial potential from superposition of free atoms

     starting charge   83.99967, renormalised to   84.00000
     Starting wfc are   72 randomized atomic wfcs
     Checking if some PAW data can be deallocated... 

     total cpu time spent up to now is        7.2 secs

     per-process dynamical memory:   113.5 Mb

     Self-consistent Calculation

     iteration #  1     ecut=   100.00 Ry     beta=0.50
     Davidson diagonalization with overlap
     ethr =  1.00E-02,  avg # of iterations =  3.0

     total cpu time spent up to now is       19.8 secs

     total energy              =    -421.53555485 Ry
     Harris-Foulkes estimate   =    -422.59525972 Ry
     estimated scf accuracy    <       2.07722740 Ry

     iteration #  2     ecut=   100.00 Ry     beta=0.50
     Davidson diagonalization with overlap
     ethr =  2.47E-03,  avg # of iterations =  3.0

     total cpu time spent up to now is       28.9 secs

     total energy              =    -421.85819684 Ry
     Harris-Foulkes estimate   =    -421.94532971 Ry
     estimated scf accuracy    <       0.21236523 Ry

     iteration #  3     ecut=   100.00 Ry     beta=0.50
     Davidson diagonalization with overlap
     ethr =  2.53E-04,  avg # of iterations =  7.7

     total cpu time spent up to now is       40.6 secs

     total energy              =    -421.91077956 Ry
     Harris-Foulkes estimate   =    -421.91940822 Ry
     estimated scf accuracy    <       0.03489587 Ry

     iteration #  4     ecut=   100.00 Ry     beta=0.50
     Davidson diagonalization with overlap
     ethr =  4.15E-05,  avg # of iterations =  4.1

     total cpu time spent up to now is       49.1 secs

     total energy              =    -421.91409602 Ry
     Harris-Foulkes estimate   =    -421.91470100 Ry
     estimated scf accuracy    <       0.00450207 Ry

     iteration #  5     ecut=   100.00 Ry     beta=0.50
     Davidson diagonalization with overlap
     ethr =  5.36E-06,  avg # of iterations =  7.7

     total cpu time spent up to now is       61.6 secs

     total energy              =    -421.91507026 Ry
     Harris-Foulkes estimate   =    -421.91539061 Ry
     estimated scf accuracy    <       0.00082878 Ry

     iteration #  6     ecut=   100.00 Ry     beta=0.50
     Davidson diagonalization with overlap
     ethr =  9.87E-07,  avg # of iterations =  3.0

     total cpu time spent up to now is       70.2 secs

     total energy              =    -421.91521740 Ry
     Harris-Foulkes estimate   =    -421.91524822 Ry
     estimated scf accuracy    <       0.00010851 Ry

     iteration #  7     ecut=   100.00 Ry     beta=0.50
     Davidson diagonalization with overlap
     ethr =  1.29E-07,  avg # of iterations =  3.3

     total cpu time spent up to now is       81.5 secs

     total energy              =    -421.91524853 Ry
     Harris-Foulkes estimate   =    -421.91526488 Ry
     estimated scf accuracy    <       0.00003533 Ry

     iteration #  8     ecut=   100.00 Ry     beta=0.50
     Davidson diagonalization with overlap
     ethr =  4.21E-08,  avg # of iterations =  3.2

     total cpu time spent up to now is       89.9 secs

     total energy              =    -421.91525330 Ry
     Harris-Foulkes estimate   =    -421.91525388 Ry
     estimated scf accuracy    <       0.00000223 Ry

     iteration #  9     ecut=   100.00 Ry     beta=0.50
     Davidson diagonalization with overlap
     ethr =  2.65E-09,  avg # of iterations =  4.0

     total cpu time spent up to now is      103.5 secs

     total energy              =    -421.91525498 Ry
     Harris-Foulkes estimate   =    -421.91525554 Ry
     estimated scf accuracy    <       0.00000163 Ry

     iteration # 10     ecut=   100.00 Ry     beta=0.50
     Davidson diagonalization with overlap
     ethr =  1.94E-09,  avg # of iterations =  1.0

     total cpu time spent up to now is      110.7 secs

     total energy              =    -421.91525479 Ry
     Harris-Foulkes estimate   =    -421.91525507 Ry
     estimated scf accuracy    <       0.00000053 Ry

     iteration # 11     ecut=   100.00 Ry     beta=0.50
     Davidson diagonalization with overlap
     ethr =  6.35E-10,  avg # of iterations =  3.7

     total cpu time spent up to now is      122.2 secs

     total energy              =    -421.91525506 Ry
     Harris-Foulkes estimate   =    -421.91525511 Ry
     estimated scf accuracy    <       0.00000015 Ry

     iteration # 12     ecut=   100.00 Ry     beta=0.50
     Davidson diagonalization with overlap
     ethr =  1.79E-10,  avg # of iterations =  1.0

     total cpu time spent up to now is      129.5 secs

     total energy              =    -421.91525504 Ry
     Harris-Foulkes estimate   =    -421.91525507 Ry
     estimated scf accuracy    <       0.00000006 Ry

     iteration # 13     ecut=   100.00 Ry     beta=0.50
     Davidson diagonalization with overlap
     ethr =  6.83E-11,  avg # of iterations =  3.3

     total cpu time spent up to now is      140.5 secs

     End of self-consistent calculation

          k = 0.0000 0.0000 0.0000 ( 24767 PWs)   bands (ev):

   -20.4645 -20.3485 -17.1108 -16.9858 -15.3993 -15.2686 -14.5330 -14.3766
   -13.8229 -13.7693  -9.5853  -9.3316  -8.2508  -8.1474  -7.8156  -7.3402
    -6.6645  -6.0478  -5.5948  -5.5721  -4.7578  -4.6057  -4.4467  -4.3846
    -4.2482  -3.5954  -2.8840  -2.2520  -2.2254  -1.6941  -0.4040  -0.0823
     0.0639   0.0809   0.3313   0.4386   0.6038   0.6517   0.7648   0.9339
     1.0580   1.2740   5.3474   5.7033   6.5441   6.5867   8.4839   8.6742
     8.9378   9.8051

          k = 0.0000 0.0000 0.2731 ( 24777 PWs)   bands (ev):

   -20.4371 -20.3767 -17.0925 -17.0140 -15.3518 -15.2854 -14.5090 -14.4289
   -13.8097 -13.7796  -9.5189  -9.3888  -8.2242  -8.1675  -7.6839  -7.4337
    -6.5735  -6.2594  -5.5944  -5.5750  -4.8979  -4.7364  -4.4041  -4.1161
    -4.0218  -3.8516  -2.8701  -2.3018  -2.0420  -1.7560  -0.2788  -0.0639
     0.0636   0.0919   0.3370   0.4415   0.4729   0.6587   0.8363   0.9145
     1.0204   1.1227   5.3702   5.7392   6.4840   6.5993   8.6891   8.8663
     9.1048   9.8781

          k = 0.0000 0.2826-0.1318 ( 24779 PWs)   bands (ev):

   -20.4536 -20.3490 -17.1702 -17.0248 -15.3295 -15.2735 -14.5428 -14.4572
   -13.6592 -13.6306  -9.7932  -9.7210  -8.0353  -7.9953  -7.7071  -7.4183
    -6.6524  -6.2986  -5.8544  -5.7881  -4.6813  -4.4377  -4.3912  -3.7979
    -3.7644  -3.6880  -2.9301  -2.3477  -2.1772  -2.1228  -0.2576  -0.0804
     0.2039   0.2850   0.4078   0.4631   0.5935   0.6536   0.7161   0.7477
     0.9016   1.1288   5.2731   5.4177   6.5524   6.6108   8.7465   8.8961
     9.0826   9.4780

          k = 0.0000 0.2826 0.1413 ( 24808 PWs)   bands (ev):

   -20.4336 -20.3703 -17.1283 -17.0604 -15.3718 -15.2619 -14.5425 -14.4226
   -13.6783 -13.6142  -9.8406  -9.6804  -8.0602  -7.9838  -7.8502  -7.3409
    -6.7054  -5.9727  -5.8905  -5.8027  -4.6398  -4.4064  -4.3064  -3.9331
    -3.8976  -3.6767  -2.7431  -2.5356  -2.4846  -2.1205  -0.2455  -0.0067
     0.2224   0.3589   0.4100   0.4540   0.5659   0.6596   0.7439   0.7552
     1.0102   1.1518   5.1765   5.5434   6.5245   6.6373   8.6176   9.0276
     9.1799   9.7391

          k = 0.0000 0.2826-0.4049 ( 24796 PWs)   bands (ev):

   -20.4273 -20.3763 -17.1454 -17.0512 -15.3293 -15.2722 -14.5244 -14.4744
   -13.6639 -13.6254  -9.8021  -9.7118  -8.0419  -7.9897  -7.7036  -7.4212
    -6.6604  -6.2870  -5.8484  -5.7902  -4.5561  -4.4712  -4.3367  -4.0000
    -3.7436  -3.6657  -2.9201  -2.3299  -2.2891  -2.1410  -0.1307  -0.0878
     0.1978   0.2635   0.3893   0.5291   0.5371   0.6812   0.6990   0.7960
     0.9315   1.0522   5.2527   5.4812   6.5024   6.6362   8.7224   9.0901
     9.3749   9.6377

          k = 0.2500-0.0937 0.0201 ( 24823 PWs)   bands (ev):

   -20.4556 -20.3465 -17.1416 -17.0038 -15.3656 -15.2809 -14.5506 -14.4383
   -13.7220 -13.6816  -9.7221  -9.5988  -8.0967  -8.0337  -7.7552  -7.3688
    -6.6532  -6.1605  -5.7772  -5.7081  -4.7177  -4.5235  -4.4173  -4.0545
    -3.8746  -3.7570  -2.9465  -2.3369  -2.1680  -1.9560  -0.2287  -0.0170
     0.1907   0.2834   0.3572   0.4992   0.5628   0.6586   0.6979   0.7853
     1.0661   1.2430   5.2361   5.4581   6.5049   6.5233   8.6857   8.8457
     9.0459   9.8043

          k = 0.2500-0.0937 0.2932 ( 24808 PWs)   bands (ev):

   -20.4305 -20.3723 -17.1194 -17.0289 -15.3879 -15.2694 -14.5461 -14.4172
   -13.7160 -13.6913  -9.7583  -9.5712  -8.1104  -8.0215  -7.8317  -7.3224
    -6.6795  -6.0204  -5.8024  -5.7055  -4.6219  -4.4290  -4.3008  -4.1807
    -4.0556  -3.8332  -2.9828  -2.3848  -2.2437  -1.9397  -0.1622   0.0161
     0.1883   0.2716   0.4729   0.4913   0.5497   0.6871   0.7776   0.8560
     1.0607   1.0637   5.1786   5.5556   6.4315   6.5572   8.6229   9.0613
     9.4682   9.5805

          k = 0.2500-0.0937-0.2530 ( 24817 PWs)   bands (ev):

   -20.4293 -20.3736 -17.1092 -17.0431 -15.3320 -15.2947 -14.5129 -14.4929
   -13.7243 -13.6770  -9.6904  -9.6254  -8.0773  -8.0490  -7.6239  -7.4710
    -6.5531  -6.3806  -5.7551  -5.7137  -4.6681  -4.6037  -4.4048  -3.9707
    -3.8480  -3.7829  -2.7143  -2.5652  -2.1239  -2.0077  -0.1153  -0.0236
     0.1914   0.2307   0.3493   0.3607   0.5084   0.6736   0.7607   0.8347
     1.0222   1.2379   5.2692   5.5179   6.4442   6.5564   8.7617   8.9588
     9.0795   9.9770

          k = 0.2500 0.1889-0.1117 ( 24829 PWs)   bands (ev):

   -20.4544 -20.3516 -17.1174 -16.9877 -15.3580 -15.3106 -14.4787 -14.4678
   -13.8069 -13.7609  -9.5183  -9.4289  -8.1834  -8.1520  -7.6251  -7.4900
    -6.5210  -6.3589  -5.6068  -5.5847  -4.8458  -4.8032  -4.6492  -4.0291
    -4.0100  -3.6387  -2.8196  -2.2188  -1.9678  -1.8344  -0.1718  -0.0624
     0.0877   0.1153   0.2919   0.3184   0.5231   0.6532   0.8259   0.8591
     0.9963   1.2342   5.4118   5.4573   6.4207   6.5335   8.7635   8.9782
     9.1366  10.0134

          k = 0.2500 0.1889 0.1614 ( 24820 PWs)   bands (ev):

   -20.4353 -20.3718 -17.0871 -17.0147 -15.3923 -15.2902 -14.5205 -14.4071
   -13.8093 -13.7623  -9.5645  -9.3843  -8.2102  -8.1266  -7.7549  -7.3865
    -6.6331  -6.1716  -5.5965  -5.5926  -4.7470  -4.6473  -4.5516  -4.2243
    -4.0751  -3.8424  -2.7934  -2.3246  -2.1288  -1.7542  -0.1602   0.0061
     0.1139   0.1276   0.3793   0.4501   0.5067   0.6873   0.7961   0.8538
     1.0865   1.1074   5.2282   5.5985   6.4291   6.5346   8.7543   8.9514
     9.4076   9.8788

          k = 0.2500 0.1889-0.3848 ( 24802 PWs)   bands (ev):

   -20.4267 -20.3803 -17.0949 -17.0077 -15.4192 -15.2743 -14.5113 -14.3953
   -13.7939 -13.7797  -9.6127  -9.3489  -8.2273  -8.1111  -7.8232  -7.3346
    -6.6755  -6.0489  -5.6154  -5.5898  -4.7207  -4.6502  -4.3739  -4.3008
    -4.1341  -3.9546  -2.8386  -2.2789  -2.2215  -1.7254  -0.0822  -0.0378
     0.0757   0.1123   0.4367   0.4919   0.6321   0.7209   0.7531   0.8655
     0.9287   1.1418   5.2389   5.6152   6.3867   6.5721   8.6763   9.1016
     9.4678   9.8608

          k = 0.2500-0.3763 0.1519 ( 24822 PWs)   bands (ev):

   -20.4473 -20.3482 -17.1740 -17.0256 -15.3793 -15.2679 -14.5443 -14.4454
   -13.6186 -13.6073  -9.9100  -9.7603  -7.9895  -7.9128  -7.8518  -7.3242
    -6.7045  -6.0106  -5.9778  -5.8401  -4.7033  -4.4995  -4.2941  -3.8468
    -3.6850  -3.5150  -2.9483  -2.5577  -2.3893  -2.1398  -0.1757  -0.0243
     0.2386   0.3627   0.4294   0.5984   0.6486   0.6916   0.7135   0.8444
     0.8720   1.1134   5.1338   5.3342   6.4750   6.5585   8.6146   9.2333
     9.3073   9.4354

          k = 0.2500-0.3763 0.4250 ( 24808 PWs)   bands (ev):

   -20.4251 -20.3713 -17.1398 -17.0657 -15.3226 -15.2895 -14.5303 -14.5016
   -13.6316 -13.5904  -9.8536  -9.8012  -7.9615  -7.9398  -7.6288  -7.4643
    -6.5982  -6.4172  -5.9133  -5.8556  -4.6228  -4.4401  -4.3467  -3.8925
    -3.5873  -3.5210  -2.7692  -2.5025  -2.3599  -2.2998  -0.0968  -0.0198
     0.2058   0.2517   0.4481   0.4956   0.5496   0.6365   0.6732   0.8757
     1.0305   1.0960   5.2450   5.2927   6.4636   6.5460   8.8155   9.0193
     9.3982   9.5866

          k = 0.2500-0.3763-0.1212 ( 24809 PWs)   bands (ev):

   -20.4255 -20.3713 -17.1434 -17.0568 -15.3567 -15.2744 -14.5447 -14.4686
   -13.6371 -13.5862  -9.8814  -9.7785  -7.9793  -7.9231  -7.7701  -7.3677
    -6.6923  -6.1686  -5.9422  -5.8493  -4.5408  -4.4305  -4.3157  -4.0537
    -3.6256  -3.5218  -2.9112  -2.4924  -2.3367  -2.3094  -0.1143   0.0455
     0.2210   0.3405   0.4456   0.4996   0.5834   0.6162   0.6908   0.8538
     0.9843   1.1531   5.1430   5.3426   6.4837   6.5690   8.7394   9.1153
     9.1597   9.6855

          k =-0.5000 0.1874-0.0402 ( 24846 PWs)   bands (ev):

   -20.4466 -20.3445 -17.1716 -17.0215 -15.3130 -15.3088 -14.5523 -14.5189
   -13.6078 -13.5965  -9.8725  -9.8436  -7.9144  -7.9118  -7.5641  -7.5063
    -6.5418  -6.4558  -5.9266  -5.8973  -4.6726  -4.3902  -4.3657  -3.9295
    -3.4950  -3.4921  -3.0116  -2.4877  -2.3891  -2.1281  -0.0190   0.0467
     0.1840   0.2811   0.4566   0.4766   0.6160   0.6184   0.7507   0.8550
     1.0230   1.1949   5.1374   5.2124   6.4600   6.4665   8.7246   8.9715
     9.3652   9.6741

          k =-0.5000 0.1874 0.2329 ( 24833 PWs)   bands (ev):

   -20.4226 -20.3693 -17.1366 -17.0566 -15.3721 -15.2761 -14.5632 -14.4663
   -13.6160 -13.5932  -9.9280  -9.7970  -7.9465  -7.8836  -7.8107  -7.3219
    -6.6906  -6.0724  -6.0085  -5.8566  -4.5905  -4.5143  -4.2764  -3.9865
    -3.5951  -3.4486  -2.9139  -2.5513  -2.4598  -2.3646   0.0310   0.0798
     0.2413   0.2990   0.4333   0.5039   0.5801   0.6460   0.6686   0.9596
     1.0743   1.1901   5.1231   5.2963   6.4229   6.4838   8.6162   9.1256
     9.2734   9.8466

          k =-0.5000 0.4701-0.1720 ( 24821 PWs)   bands (ev):

   -20.4482 -20.3508 -17.1213 -16.9885 -15.4227 -15.2846 -14.5185 -14.4234
   -13.7712 -13.7380  -9.6639  -9.4470  -8.1604  -8.0682  -7.7968  -7.3320
    -6.6687  -6.0800  -5.6887  -5.6426  -4.8644  -4.6169  -4.3772  -4.2556
    -4.0449  -3.7043  -2.8499  -2.2618  -2.2121  -1.8104  -0.0864   0.0127
     0.1198   0.1395   0.4202   0.4952   0.6070   0.6696   0.7532   0.8224
     1.0510   1.2219   5.1980   5.4364   6.3403   6.4816   8.6501   9.1515
     9.6337   9.9456

          k =-0.5000 0.4701 0.1011 ( 24805 PWs)   bands (ev):

   -20.4271 -20.3728 -17.1021 -17.0117 -15.3467 -15.3368 -14.4942 -14.4785
   -13.7621 -13.7451  -9.5746  -9.5183  -8.1175  -8.1088  -7.5757  -7.5269
    -6.4701  -6.4304  -5.6604  -5.6356  -4.7553  -4.6756  -4.4377  -4.1092
    -3.9761  -3.9096  -2.9101  -2.2305  -1.9693  -1.9296   0.0166   0.0878
     0.1438   0.1879   0.3107   0.3656   0.5940   0.7388   0.7662   0.7839
     1.0504   1.1426   5.1819   5.3972   6.4050   6.4454   8.8402   9.0188
     9.6153   9.9228

          k =-0.5000 0.4701-0.4451 ( 24805 PWs)   bands (ev):

   -20.4246 -20.3752 -17.0889 -17.0229 -15.4204 -15.2848 -14.5248 -14.4148
   -13.7773 -13.7335  -9.6601  -9.4481  -8.1608  -8.0675  -7.8007  -7.3300
    -6.6664  -6.0934  -5.6982  -5.6216  -4.7609  -4.6273  -4.3599  -4.2573
    -4.0137  -3.8819  -2.7063  -2.4526  -2.2366  -1.8055  -0.0434   0.0629
     0.1180   0.1466   0.4312   0.4700   0.5439   0.7201   0.8092   0.8479
     1.0702   1.1525   5.1479   5.4904   6.3415   6.4862   8.7069   9.1380
     9.4901  10.2550

     highest occupied, lowest unoccupied level (ev):     1.2740    5.1231

!    total energy              =    -421.91525506 Ry
     Harris-Foulkes estimate   =    -421.91525507 Ry
     estimated scf accuracy    <          3.8E-09 Ry

     total all-electron energy =     -1628.557240 Ry

     The total energy is the sum of the following terms:

     one-electron contribution =    -178.45916686 Ry
     hartree contribution      =     124.44430847 Ry
     xc contribution           =     -87.31678946 Ry
     ewald contribution        =    -154.48799148 Ry
     Dispersion Correction     =      -0.12889544 Ry
     one-center paw contrib.   =    -125.96672031 Ry

     convergence has been achieved in  13 iterations

     Forces acting on atoms (cartesian axes, Ry/au):

     atom    1 type  2   force =     0.00844134   -0.00399157   -0.00119418
     atom    2 type  2   force =    -0.00844134    0.00399157    0.00119418
     atom    3 type  3   force =     0.00178795   -0.00005080   -0.00218589
     atom    4 type  3   force =    -0.00178795    0.00005080    0.00218589
     atom    5 type  3   force =    -0.00181867    0.00069714    0.00097838
     atom    6 type  3   force =     0.00181867   -0.00069714   -0.00097838
     atom    7 type  2   force =    -0.00124798    0.01415954    0.00062286
     atom    8 type  2   force =     0.00124798   -0.01415954   -0.00062286
     atom    9 type  2   force =    -0.00145668   -0.00876113    0.00136010
     atom   10 type  2   force =     0.00145668    0.00876113   -0.00136010
     atom   11 type  2   force =     0.00654878    0.00787928   -0.01242945
     atom   12 type  2   force =    -0.00654878   -0.00787928    0.01242945
     atom   13 type  1   force =     0.00559944   -0.02948257    0.00523785
     atom   14 type  1   force =    -0.00559944    0.02948257   -0.00523785
     atom   15 type  1   force =    -0.00802905    0.02217147    0.00004348
     atom   16 type  1   force =     0.00802905   -0.02217147   -0.00004348
     atom   17 type  2   force =    -0.00751479    0.00314543    0.00475064
     atom   18 type  2   force =     0.00751479   -0.00314543   -0.00475064
     atom   19 type  2   force =    -0.00281363   -0.00745697    0.00412409
     atom   20 type  2   force =     0.00281363    0.00745697   -0.00412409
     atom   21 type  3   force =    -0.00149817   -0.00107923    0.00099259
     atom   22 type  3   force =     0.00149817    0.00107923   -0.00099259
     atom   23 type  3   force =     0.00029545    0.00205519   -0.00112203
     atom   24 type  3   force =    -0.00029545   -0.00205519    0.00112203

     Total force =     0.067933     Total SCF correction =     0.000137


     Computing stress (Cartesian axis) and pressure

          total   stress  (Ry/bohr**3)                   (kbar)     P=   -6.40
  -0.00004985   0.00000222   0.00003199         -7.33      0.33      4.71
   0.00000222  -0.00004619   0.00001348          0.33     -6.80      1.98
   0.00003199   0.00001348  -0.00003441          4.71      1.98     -5.06


     Writing output data file scf.save
 
     init_run     :      6.39s CPU      6.55s WALL (       1 calls)
     electrons    :    129.19s CPU    133.40s WALL (       1 calls)
     forces       :      2.99s CPU      3.01s WALL (       1 calls)
     stress       :      5.85s CPU      5.85s WALL (       1 calls)

     Called by init_run:
     wfcinit      :      3.83s CPU      3.94s WALL (       1 calls)
     potinit      :      0.90s CPU      0.92s WALL (       1 calls)

     Called by electrons:
     c_bands      :    111.20s CPU    114.93s WALL (      13 calls)
     sum_band     :     15.49s CPU     15.82s WALL (      13 calls)
     v_of_rho     :      0.44s CPU      0.49s WALL (      14 calls)
     newd         :      0.63s CPU      0.65s WALL (      14 calls)
     PAW_pot      :      1.27s CPU      1.27s WALL (      14 calls)
     mix_rho      :      0.07s CPU      0.08s WALL (      13 calls)

     Called by c_bands:
     init_us_2    :      1.26s CPU      1.28s WALL (     551 calls)
     cegterg      :    107.42s CPU    111.07s WALL (     247 calls)

     Called by sum_band:
     sum_band:bec :      0.01s CPU      0.01s WALL (     247 calls)
     addusdens    :      0.64s CPU      0.69s WALL (      13 calls)

     Called by *egterg:
     h_psi        :     79.42s CPU     81.65s WALL (    1177 calls)
     s_psi        :      6.56s CPU      6.56s WALL (    1177 calls)
     g_psi        :      0.45s CPU      0.45s WALL (     911 calls)
     cdiaghg      :      6.56s CPU      6.53s WALL (    1158 calls)

     Called by h_psi:
     h_psi:pot    :     79.01s CPU     81.22s WALL (    1177 calls)
     h_psi:calbec :      6.65s CPU      6.67s WALL (    1177 calls)
     vloc_psi     :     65.86s CPU     68.06s WALL (    1177 calls)
     add_vuspsi   :      6.49s CPU      6.50s WALL (    1177 calls)

     General routines
     calbec       :      9.68s CPU      9.69s WALL (    1519 calls)
     fft          :      0.28s CPU      0.37s WALL (     206 calls)
     fftw         :     71.15s CPU     73.43s WALL (   84034 calls)
 
     Parallel routines
     fft_scatter  :     14.67s CPU     15.42s WALL (   84240 calls)
 
     PWSCF        :  2m26.86s CPU     2m32.42s WALL

 
   This run was terminated on:   0: 3: 3   5Nov2017            

=------------------------------------------------------------------------------=
   JOB DONE.
=------------------------------------------------------------------------------=
