
     Program PWSCF v.6.1 (svn rev. 13369) starts on  8Dec2017 at  7:25:34 

     This program is part of the open-source Quantum ESPRESSO suite
     for quantum simulation of materials; please cite
         "P. Giannozzi et al., J. Phys.:Condens. Matter 21 395502 (2009);
          URL http://www.quantum-espresso.org", 
     in publications or presentations arising from this work. More details at
     http://www.quantum-espresso.org/quote

     Parallel version (MPI), running on     8 processors
     R & G space division:  proc/nbgrp/npool/nimage =       8
     Waiting for input...
     Reading input from standard input

     Current dimensions of program PWSCF are:
     Max number of different atomic species (ntypx) = 10
     Max number of k-points (npk) =  40000
     Max angular momentum in pseudopotentials (lmaxx) =  3
               file C.pbe-n-kjpaw_psl.0.1.UPF: wavefunction(s)  2P renormalized
               file N.pbe-n-kjpaw_psl.0.1.UPF: wavefunction(s)  2P renormalized
               file H.pbe-kjpaw_psl.0.1.UPF: wavefunction(s)  1S renormalized
               file O.pbe-n-kjpaw_psl.0.1.UPF: wavefunction(s)  2P renormalized

     -------------------------------------
     Parameters for Dispersion Correction:
     -------------------------------------
       atom      VdW radius       C_6     

        C          2.744         60.710
        N          2.640         42.670
        H          1.892          4.857
        O          2.536         24.284

     Subspace diagonalization in iterative solution of the eigenvalue problem:
     a serial algorithm will be used

 
     Parallelization info
     --------------------
     sticks:   dense  smooth     PW     G-vecs:    dense   smooth      PW
     Min        2418    2418    643               159620   159620   21963
     Max        2419    2419    644               159621   159621   21964
     Sum       19345   19345   5151              1276961  1276961  175711
 


     bravais-lattice index     =            0
     lattice parameter (alat)  =      20.8397  a.u.
     unit-cell volume          =    9451.1436 (a.u.)^3
     number of atoms/cell      =          144
     number of atomic types    =            4
     number of electrons       =       512.00
     number of Kohn-Sham states=          307
     kinetic-energy cutoff     =     100.0000  Ry
     charge density cutoff     =     400.0000  Ry
     convergence threshold     =      1.0E-08
     mixing beta               =       0.5000
     number of iterations used =            8  plain     mixing
     Exchange-correlation      =  SLA  PW   PBX  PBC ( 1  4  3  4 0 0)

     celldm(1)=  20.839711  celldm(2)=   0.000000  celldm(3)=   0.000000
     celldm(4)=   0.000000  celldm(5)=   0.000000  celldm(6)=   0.000000

     crystal axes: (cart. coord. in units of alat)
               a(1) = (   1.000000   0.000000   0.000000 )  
               a(2) = (   0.000000   1.399015   0.000000 )  
               a(3) = (  -0.326012   0.000000   0.746426 )  

     reciprocal axes: (cart. coord. in units 2 pi/alat)
               b(1) = (  1.000000  0.000000  0.436765 )  
               b(2) = (  0.000000  0.714789  0.000000 )  
               b(3) = (  0.000000  0.000000  1.339717 )  


     PseudoPot. # 1 for  C read from file:
     /scratch/ahofstet/pseudo/C.pbe-n-kjpaw_psl.0.1.UPF
     MD5 check sum: 430fe95172b1e11ef3f8ed03bac87931
     Pseudo is Projector augmented-wave + core cor, Zval =  4.0
     Generated using "atomic" code by A. Dal Corso  v.5.0.99 svn rev. 10869
     Shape of augmentation charge: BESSEL
     Using radial grid of 1073 points,  4 beta functions with: 
                l(1) =   0
                l(2) =   0
                l(3) =   1
                l(4) =   1
     Q(r) pseudized with 0 coefficients 


     PseudoPot. # 2 for  N read from file:
     /scratch/ahofstet/pseudo/N.pbe-n-kjpaw_psl.0.1.UPF
     MD5 check sum: f73187c8b701007e77325f868c9291d7
     Pseudo is Projector augmented-wave + core cor, Zval =  5.0
     Generated using "atomic" code by A. Dal Corso  v.5.0.99 svn rev. 10869
     Shape of augmentation charge: PSQ
     Using radial grid of 1085 points,  4 beta functions with: 
                l(1) =   0
                l(2) =   0
                l(3) =   1
                l(4) =   1
     Q(r) pseudized with 0 coefficients 


     PseudoPot. # 3 for  H read from file:
     /scratch/ahofstet/pseudo/H.pbe-kjpaw_psl.0.1.UPF
     MD5 check sum: 94e484f906d9e9773b2f6e52662335b2
     Pseudo is Projector augmented-wave, Zval =  1.0
     Generated using "atomic" code by A. Dal Corso  v.5.0.99 svn rev. 10869
     Shape of augmentation charge: PSQ
     Using radial grid of  929 points,  2 beta functions with: 
                l(1) =   0
                l(2) =   0
     Q(r) pseudized with 0 coefficients 


     PseudoPot. # 4 for  O read from file:
     /scratch/ahofstet/pseudo/O.pbe-n-kjpaw_psl.0.1.UPF
     MD5 check sum: 3f94a2996a3169367d6eb21d9b593f20
     Pseudo is Projector augmented-wave + core cor, Zval =  6.0
     Generated using "atomic" code by A. Dal Corso  v.5.0.99 svn rev. 10869
     Shape of augmentation charge: BESSEL
     Using radial grid of 1095 points,  4 beta functions with: 
                l(1) =   0
                l(2) =   0
                l(3) =   1
                l(4) =   1
     Q(r) pseudized with 0 coefficients 


     atomic species   valence    mass     pseudopotential
        C              4.00    12.01070      C( 1.00)
        N              5.00    14.00670      N( 1.00)
        H              1.00     1.00794      H( 1.00)
        O              6.00    15.99940      O( 1.00)

      4 Sym. Ops., with inversion, found ( 2 have fractional translation)



   Cartesian axes

     site n.     atom                  positions (alat units)
         1           H   tau(   1) = (   0.2292241   1.3760533   0.5199657  )
         2           H   tau(   2) = (   0.2817572   0.6765457   0.5996736  )
         3           H   tau(   3) = (   0.4447634   0.0229619   0.2264605  )
         4           H   tau(   4) = (   0.3922303   0.7224695   0.1467526  )
         5           H   tau(   5) = (  -0.2206482   0.7253573   0.4979693  )
         6           H   tau(   6) = (   0.7316295   0.0258497   0.6216700  )
         7           H   tau(   7) = (   0.8946357   0.6736579   0.2484569  )
         8           H   tau(   8) = (  -0.0576420   1.3731655   0.1247562  )
         9           O   tau(   9) = (   0.7905106   0.7991591   0.4418191  )
        10           O   tau(  10) = (  -0.2795294   0.0996515   0.6778201  )
        11           O   tau(  11) = (  -0.1165231   0.5998561   0.3046070  )
        12           O   tau(  12) = (   0.9535169   1.2993637   0.0686061  )
        13           N   tau(  13) = (   0.2066901   0.9819546   0.4502815  )
        14           N   tau(  14) = (   0.3042911   0.2824470   0.6693577  )
        15           N   tau(  15) = (   0.4672974   0.4170606   0.2961446  )
        16           N   tau(  16) = (   0.3696964   1.1165682   0.0770684  )
        17           O   tau(  17) = (   0.2185315   1.3091483   0.4562157  )
        18           O   tau(  18) = (   0.2924497   0.6096407   0.6634236  )
        19           O   tau(  19) = (   0.4554560   0.0898669   0.2902105  )
        20           O   tau(  20) = (   0.3815378   0.7893745   0.0830026  )
        21           O   tau(  21) = (   0.2232630   1.1744352   0.6119110  )
        22           O   tau(  22) = (   0.2877182   0.4749276   0.5077282  )
        23           O   tau(  23) = (   0.4507245   0.2245800   0.1345151  )
        24           O   tau(  24) = (   0.3862693   0.9240876   0.2386979  )
        25           N   tau(  25) = (   0.4534484   1.0524502   0.4866168  )
        26           N   tau(  26) = (   0.0575329   0.3529426   0.6330225  )
        27           N   tau(  27) = (   0.2205391   0.3465650   0.2598094  )
        28           N   tau(  28) = (   0.6164546   1.0460726   0.1134037  )
        29           O   tau(  29) = (  -0.1991280   0.9113215   0.6139967  )
        30           O   tau(  30) = (   0.7101093   0.2118139   0.5056425  )
        31           O   tau(  31) = (   0.8731155   0.4876937   0.1324294  )
        32           O   tau(  32) = (  -0.0361218   1.1872013   0.2407837  )
        33           N   tau(  33) = (   0.5678780   1.0627772   0.4854158  )
        34           N   tau(  34) = (  -0.0568968   0.3632696   0.6342234  )
        35           N   tau(  35) = (   0.1061095   0.3362380   0.2610103  )
        36           N   tau(  36) = (   0.7308843   1.0357456   0.1122028  )
        37           N   tau(  37) = (  -0.1816499   1.1231655   0.4754129  )
        38           N   tau(  38) = (   0.6926312   0.4236578   0.6442263  )
        39           N   tau(  39) = (   0.8556375   0.2758498   0.2710132  )
        40           N   tau(  40) = (  -0.0186437   0.9753574   0.1021999  )
        41           C   tau(  41) = (   0.2059402   1.1045310   0.4037094  )
        42           C   tau(  42) = (   0.3050410   0.4050234   0.7159298  )
        43           C   tau(  43) = (   0.4680473   0.2944842   0.3427167  )
        44           C   tau(  44) = (   0.3689465   0.9939918   0.0304963  )
        45           H   tau(  45) = (   0.1199277   1.1180084   0.3553520  )
        46           H   tau(  46) = (   0.7170661   0.4185008   0.0178611  )
        47           H   tau(  47) = (   0.5540598   0.2810068   0.3910742  )
        48           H   tau(  48) = (  -0.0430786   0.9805144   0.7285650  )
        49           H   tau(  49) = (   0.2805843   1.1146834   0.3389428  )
        50           H   tau(  50) = (   0.5564094   0.4151757   0.0342703  )
        51           H   tau(  51) = (   0.3934032   0.2843319   0.4074833  )
        52           H   tau(  52) = (   0.1175781   0.9838395   0.7121559  )
        53           C   tau(  53) = (   0.2970719   0.9099939   0.4918746  )
        54           C   tau(  54) = (   0.2139094   0.2104863   0.6277646  )
        55           C   tau(  55) = (   0.3769156   0.4890213   0.2545515  )
        56           C   tau(  56) = (   0.4600781   1.1885289   0.1186616  )
        57           N   tau(  57) = (   0.6050930   1.1814646   0.4765929  )
        58           N   tau(  58) = (  -0.0941117   0.4819570   0.6430463  )
        59           N   tau(  59) = (   0.0688945   0.2175506   0.2698332  )
        60           N   tau(  60) = (   0.7680992   0.9170582   0.1033798  )
        61           N   tau(  61) = (   0.1273649   0.8125156   0.5004161  )
        62           N   tau(  62) = (   0.3836163   0.1130080   0.6192231  )
        63           N   tau(  63) = (   0.5466226   0.5864996   0.2460101  )
        64           N   tau(  64) = (   0.2903712   1.2860072   0.1272030  )
        65           C   tau(  65) = (   0.7258820   1.2004779   0.4994873  )
        66           C   tau(  66) = (  -0.2149008   0.5009703   0.6201519  )
        67           C   tau(  67) = (  -0.0518945   0.1985373   0.2469388  )
        68           C   tau(  68) = (   0.8888883   0.8980449   0.1262743  )
        69           N   tau(  69) = (  -0.1049375   1.2829816   0.5519588  )
        70           N   tau(  70) = (   0.6159188   0.5834740   0.5676805  )
        71           N   tau(  71) = (   0.7789250   0.1160336   0.1944674  )
        72           N   tau(  72) = (   0.0580687   0.8155412   0.1787457  )
        73           N   tau(  73) = (   0.4180822   0.9351983   0.5004659  )
        74           N   tau(  74) = (   0.0928991   0.2356907   0.6191734  )
        75           N   tau(  75) = (   0.2559053   0.4638170   0.2459603  )
        76           N   tau(  76) = (   0.5810884   1.1633246   0.1272528  )
        77           C   tau(  77) = (  -0.1799852   1.0065416   0.4160777  )
        78           C   tau(  78) = (   0.6909665   0.3070340   0.7035615  )
        79           C   tau(  79) = (   0.8539727   0.3924737   0.3303484  )
        80           C   tau(  80) = (  -0.0169790   1.0919813   0.0428646  )
        81           H   tau(  81) = (  -0.0909507   0.9971695   0.3727874  )
        82           H   tau(  82) = (   0.9279445   0.2976619   0.0004257  )
        83           H   tau(  83) = (   0.7649382   0.4018457   0.3736387  )
        84           H   tau(  84) = (  -0.2539570   1.1013533   0.7460005  )
        85           H   tau(  85) = (   0.7492004   1.0046216   0.3464158  )
        86           H   tau(  86) = (   0.0877933   0.3051140   0.0267973  )
        87           H   tau(  87) = (  -0.0752129   0.3943936   0.4000104  )
        88           H   tau(  88) = (   0.5861942   1.0939013   0.7196289  )
        89           N   tau(  89) = (  -0.0764570   1.1774752   0.5109784  )
        90           N   tau(  90) = (   0.5874382   0.4779676   0.6086609  )
        91           N   tau(  91) = (   0.7504445   0.2215400   0.2354478  )
        92           N   tau(  92) = (   0.0865493   0.9210476   0.1377653  )
        93           N   tau(  93) = (   0.2477795   0.8034354   0.5235155  )
        94           N   tau(  94) = (   0.2632017   0.1039278   0.5961237  )
        95           N   tau(  95) = (   0.4262080   0.5955798   0.2229106  )
        96           N   tau(  96) = (   0.4107858   1.2950874   0.1503024  )
        97           N   tau(  97) = (  -0.2267474   1.3012324   0.5471182  )
        98           N   tau(  98) = (   0.7377287   0.6017248   0.5725210  )
        99           N   tau(  99) = (   0.9007349   0.0977828   0.1993079  )
       100           N   tau( 100) = (  -0.0637411   0.7972904   0.1739051  )
       101           C   tau( 101) = (  -0.1975968   0.9010628   0.5037026  )
       102           C   tau( 102) = (   0.7085781   0.2015552   0.6159366  )
       103           C   tau( 103) = (   0.8715843   0.4979524   0.2427236  )
       104           C   tau( 104) = (  -0.0345906   1.1974600   0.1304895  )
       105           N   tau( 105) = (   0.1009694   0.9179133   0.4576958  )
       106           N   tau( 106) = (   0.4100119   0.2184057   0.6619434  )
       107           N   tau( 107) = (   0.5730181   0.4811019   0.2887303  )
       108           N   tau( 108) = (   0.2639756   1.1806095   0.0844827  )
       109           C   tau( 109) = (   0.2166017   1.1988202   0.5042315  )
       110           C   tau( 110) = (   0.2943796   0.4993126   0.6154077  )
       111           C   tau( 111) = (   0.4573858   0.2001950   0.2421946  )
       112           C   tau( 112) = (   0.3796079   0.8997026   0.1310184  )
       113           C   tau( 113) = (   0.5196048   1.2828014   0.4836303  )
       114           C   tau( 114) = (  -0.0086236   0.5832938   0.6360090  )
       115           C   tau( 115) = (   0.1543827   0.1162138   0.2627959  )
       116           C   tau( 116) = (   0.6826111   0.8157214   0.1104172  )
       117           H   tau( 117) = (   0.4771830   1.2875215   0.5736401  )
       118           H   tau( 118) = (   0.0337982   0.5880138   0.5459992  )
       119           H   tau( 119) = (   0.1968045   0.1114938   0.1727861  )
       120           H   tau( 120) = (   0.6401893   0.8110014   0.2004270  )
       121           H   tau( 121) = (   0.4491428   1.2702701   0.4148709  )
       122           H   tau( 122) = (   0.0618384   0.5707625   0.7047683  )
       123           H   tau( 123) = (   0.2248447   0.1287451   0.3315552  )
       124           H   tau( 124) = (   0.6121491   0.8282527   0.0416579  )
       125           H   tau( 125) = (   0.5684458   1.3670352   0.4651357  )
       126           H   tau( 126) = (  -0.0574645   0.6675275   0.6545036  )
       127           H   tau( 127) = (   0.1055418   0.0319801   0.2812905  )
       128           H   tau( 128) = (   0.7314520   0.7314877   0.0919226  )
       129           C   tau( 129) = (   0.5063504   0.8367708   0.5086069  )
       130           C   tau( 130) = (   0.0046308   0.1372632   0.6110323  )
       131           C   tau( 131) = (   0.1676371   0.5622445   0.2378192  )
       132           C   tau( 132) = (   0.6693567   1.2617521   0.1353939  )
       133           H   tau( 133) = (   0.4593199   0.7510110   0.5223667  )
       134           H   tau( 134) = (   0.0516614   0.0515034   0.5972726  )
       135           H   tau( 135) = (   0.2146677   0.6480042   0.2240595  )
       136           H   tau( 136) = (   0.6223261   1.3475118   0.1491536  )
       137           H   tau( 137) = (   0.5686992   0.8537484   0.5842316  )
       138           H   tau( 138) = (  -0.0577180   0.1542408   0.5354077  )
       139           H   tau( 139) = (   0.1052883   0.5452669   0.1621946  )
       140           H   tau( 140) = (   0.7317055   1.2447745   0.2110185  )
       141           H   tau( 141) = (   0.5586006   0.8321824   0.4239975  )
       142           H   tau( 142) = (  -0.0476193   0.1326748   0.6956418  )
       143           H   tau( 143) = (   0.1153869   0.5668328   0.3224287  )
       144           H   tau( 144) = (   0.7216068   1.2663404   0.0507844  )

     number of k points=     8
                       cart. coord. in units 2pi/alat
        k(    1) = (   0.0000000   0.0000000   0.0000000), wk =   0.2500000
        k(    2) = (   0.0000000   0.0000000  -0.6698586), wk =   0.2500000
        k(    3) = (   0.0000000  -0.3573943   0.0000000), wk =   0.2500000
        k(    4) = (   0.0000000  -0.3573943  -0.6698586), wk =   0.2500000
        k(    5) = (  -0.5000000   0.0000000  -0.2183823), wk =   0.2500000
        k(    6) = (  -0.5000000   0.0000000  -0.8882409), wk =   0.2500000
        k(    7) = (  -0.5000000  -0.3573943  -0.2183823), wk =   0.2500000
        k(    8) = (  -0.5000000  -0.3573943  -0.8882409), wk =   0.2500000

     Dense  grid:  1276961 G-vectors     FFT dimensions: ( 135, 192, 120)

     Estimated max dynamical RAM per process >    1999.75MB

     Estimated total allocated dynamical RAM >   15998.00MB

     Check: negative/imaginary core charge=   -0.000002    0.000000

     Initial potential from superposition of free atoms

     starting charge  511.99784, renormalised to  512.00000
     Starting wfc are  432 randomized atomic wfcs
     Checking if some PAW data can be deallocated... 

     total cpu time spent up to now is      130.6 secs

     per-process dynamical memory:  1297.0 Mb

     Self-consistent Calculation

     iteration #  1     ecut=   100.00 Ry     beta=0.50
     Davidson diagonalization with overlap
     ethr =  1.00E-02,  avg # of iterations =  3.1

     total cpu time spent up to now is      512.4 secs

     total energy              =   -2664.93814061 Ry
     Harris-Foulkes estimate   =   -2671.07606598 Ry
     estimated scf accuracy    <      12.09971882 Ry

     iteration #  2     ecut=   100.00 Ry     beta=0.50
     Davidson diagonalization with overlap
     ethr =  2.36E-03,  avg # of iterations =  3.0

     total cpu time spent up to now is      740.3 secs

     total energy              =   -2666.35251960 Ry
     Harris-Foulkes estimate   =   -2667.15431162 Ry
     estimated scf accuracy    <       1.76303753 Ry

     iteration #  3     ecut=   100.00 Ry     beta=0.50
     Davidson diagonalization with overlap
     ethr =  3.44E-04,  avg # of iterations =  7.9

     total cpu time spent up to now is     1130.8 secs

     total energy              =   -2666.96243374 Ry
     Harris-Foulkes estimate   =   -2667.24690101 Ry
     estimated scf accuracy    <       0.70199343 Ry

     iteration #  4     ecut=   100.00 Ry     beta=0.50
     Davidson diagonalization with overlap
     ethr =  1.37E-04,  avg # of iterations =  3.2

     total cpu time spent up to now is     1345.3 secs

     total energy              =   -2667.01200202 Ry
     Harris-Foulkes estimate   =   -2667.06379785 Ry
     estimated scf accuracy    <       0.12066712 Ry

     iteration #  5     ecut=   100.00 Ry     beta=0.50
     Davidson diagonalization with overlap
     ethr =  2.36E-05,  avg # of iterations =  8.8

     total cpu time spent up to now is     1780.3 secs

     total energy              =   -2667.07117040 Ry
     Harris-Foulkes estimate   =   -2667.10030605 Ry
     estimated scf accuracy    <       0.08816847 Ry

     iteration #  6     ecut=   100.00 Ry     beta=0.50
     Davidson diagonalization with overlap
     ethr =  1.72E-05,  avg # of iterations =  1.0

     total cpu time spent up to now is     1974.8 secs

     total energy              =   -2667.06659637 Ry
     Harris-Foulkes estimate   =   -2667.07796464 Ry
     estimated scf accuracy    <       0.02812699 Ry

     iteration #  7     ecut=   100.00 Ry     beta=0.50
     Davidson diagonalization with overlap
     ethr =  5.49E-06,  avg # of iterations =  7.4

     total cpu time spent up to now is     2328.9 secs

     total energy              =   -2667.07679520 Ry
     Harris-Foulkes estimate   =   -2667.07706393 Ry
     estimated scf accuracy    <       0.00191925 Ry

     iteration #  8     ecut=   100.00 Ry     beta=0.50
     Davidson diagonalization with overlap
     ethr =  3.75E-07,  avg # of iterations =  4.0

     total cpu time spent up to now is     2596.9 secs

     total energy              =   -2667.07652370 Ry
     Harris-Foulkes estimate   =   -2667.07735245 Ry
     estimated scf accuracy    <       0.00167988 Ry

     iteration #  9     ecut=   100.00 Ry     beta=0.50
     Davidson diagonalization with overlap
     ethr =  3.28E-07,  avg # of iterations =  2.0

     total cpu time spent up to now is     2800.2 secs

     total energy              =   -2667.07654277 Ry
     Harris-Foulkes estimate   =   -2667.07668289 Ry
     estimated scf accuracy    <       0.00026155 Ry

     iteration # 10     ecut=   100.00 Ry     beta=0.50
     Davidson diagonalization with overlap
     ethr =  5.11E-08,  avg # of iterations =  4.0

     total cpu time spent up to now is     3192.2 secs

     total energy              =   -2667.07682981 Ry
     Harris-Foulkes estimate   =   -2667.07691760 Ry
     estimated scf accuracy    <       0.00026003 Ry

     iteration # 11     ecut=   100.00 Ry     beta=0.50
     Davidson diagonalization with overlap
     ethr =  5.08E-08,  avg # of iterations =  1.0

     total cpu time spent up to now is     3386.3 secs

     total energy              =   -2667.07679293 Ry
     Harris-Foulkes estimate   =   -2667.07683716 Ry
     estimated scf accuracy    <       0.00010470 Ry

     iteration # 12     ecut=   100.00 Ry     beta=0.50
     Davidson diagonalization with overlap
     ethr =  2.04E-08,  avg # of iterations =  3.0

     total cpu time spent up to now is     3681.2 secs

     total energy              =   -2667.07683515 Ry
     Harris-Foulkes estimate   =   -2667.07683629 Ry
     estimated scf accuracy    <       0.00000419 Ry

     iteration # 13     ecut=   100.00 Ry     beta=0.50
     Davidson diagonalization with overlap
     ethr =  8.19E-10,  avg # of iterations =  2.4

     total cpu time spent up to now is     3888.9 secs

     total energy              =   -2667.07683477 Ry
     Harris-Foulkes estimate   =   -2667.07683558 Ry
     estimated scf accuracy    <       0.00000169 Ry

     iteration # 14     ecut=   100.00 Ry     beta=0.50
     Davidson diagonalization with overlap
     ethr =  3.29E-10,  avg # of iterations =  3.9

     total cpu time spent up to now is     4207.6 secs

     total energy              =   -2667.07683538 Ry
     Harris-Foulkes estimate   =   -2667.07683542 Ry
     estimated scf accuracy    <       0.00000012 Ry

     iteration # 15     ecut=   100.00 Ry     beta=0.50
     Davidson diagonalization with overlap
     ethr =  2.40E-11,  avg # of iterations =  3.2

     total cpu time spent up to now is     4425.5 secs

     total energy              =   -2667.07683539 Ry
     Harris-Foulkes estimate   =   -2667.07683540 Ry
     estimated scf accuracy    <       0.00000002 Ry

     iteration # 16     ecut=   100.00 Ry     beta=0.50
     Davidson diagonalization with overlap
     ethr =  4.79E-12,  avg # of iterations =  4.0

     total cpu time spent up to now is     4803.5 secs

     total energy              =   -2667.07683540 Ry
     Harris-Foulkes estimate   =   -2667.07683541 Ry
     estimated scf accuracy    <       0.00000002 Ry

     iteration # 17     ecut=   100.00 Ry     beta=0.50
     Davidson diagonalization with overlap
     ethr =  4.66E-12,  avg # of iterations =  1.0

     total cpu time spent up to now is     4997.1 secs

     total energy              =   -2667.07683540 Ry
     Harris-Foulkes estimate   =   -2667.07683540 Ry
     estimated scf accuracy    <       0.00000001 Ry

     iteration # 18     ecut=   100.00 Ry     beta=0.50
     Davidson diagonalization with overlap
     ethr =  2.37E-12,  avg # of iterations =  3.0

     total cpu time spent up to now is     5273.0 secs

     End of self-consistent calculation

          k = 0.0000 0.0000 0.0000 (159623 PWs)   bands (ev):

   -21.8497 -21.8437 -21.8299 -21.8267 -21.7877 -21.7860 -21.7826 -21.7787
   -21.1034 -21.1024 -21.0937 -21.0933 -20.3531 -20.3382 -20.3199 -20.3057
   -20.2905 -20.2882 -20.2766 -20.2736 -18.8331 -18.8308 -18.8222 -18.8202
   -18.1708 -18.1391 -18.1291 -18.1190 -18.1174 -18.1026 -18.1023 -18.0990
   -17.0588 -17.0513 -17.0389 -17.0370 -17.0003 -16.9969 -16.9838 -16.9824
   -16.6100 -16.6094 -16.6009 -16.6006 -15.2328 -15.2273 -15.2227 -15.2163
   -14.4521 -14.4448 -14.4425 -14.4350 -12.3665 -12.3530 -12.2837 -12.2824
   -12.2267 -12.2120 -12.1503 -12.1153 -11.9988 -11.9553 -11.9516 -11.9272
   -11.2761 -11.2583 -11.2534 -11.2295 -10.6057 -10.6035 -10.5324 -10.5187
    -9.6150  -9.5963  -9.5863  -9.5770  -9.5226  -9.5124  -9.3950  -9.3940
    -9.2604  -9.2546  -9.0332  -8.9537  -8.9200  -8.9092  -8.5766  -8.5293
    -8.1984  -8.1912  -8.1837  -8.1281  -7.4566  -7.4510  -7.3126  -7.2833
    -6.7770  -6.7565  -6.6332  -6.5161  -6.4723  -6.4663  -6.2826  -6.2720
    -6.2484  -6.2238  -6.1433  -6.0699  -6.0680  -6.0456  -6.0066  -5.9928
    -5.8638  -5.8181  -5.7453  -5.7429  -5.6539  -5.6412  -5.5754  -5.5681
    -5.5159  -5.4017  -5.3999  -5.3897  -5.3421  -5.3210  -5.2686  -5.2123
    -4.9404  -4.9365  -4.8634  -4.8521  -4.7907  -4.7844  -4.7536  -4.7141
    -4.6699  -4.6262  -4.6167  -4.5879  -4.5558  -4.5548  -4.4502  -4.4340
    -4.3487  -4.3269  -4.2416  -4.2298  -4.2012  -4.1830  -4.1356  -4.1035
    -4.0902  -4.0098  -3.8907  -3.8580  -3.7233  -3.7045  -3.6391  -3.5736
    -3.2443  -3.1669  -3.1357  -3.1332  -2.9470  -2.9111  -2.8960  -2.8694
    -2.8490  -2.8434  -2.8321  -2.8164  -2.7904  -2.7680  -2.7546  -2.7415
    -2.6923  -2.6873  -2.6242  -2.4936  -2.4816  -2.4187  -2.4057  -2.3839
    -2.3138  -2.2799  -2.1239  -2.0561  -2.0290  -2.0024  -1.9879  -1.9658
    -1.9332  -1.9239  -1.7729  -1.7706  -1.7667  -1.7470  -1.6908  -1.6891
    -1.2556  -1.2280  -1.2058  -1.1834  -0.9754  -0.9651  -0.8995  -0.8656
    -0.8602  -0.7905  -0.7897  -0.7733  -0.5240  -0.4979  -0.4846  -0.4775
    -0.4690  -0.4164  -0.4145  -0.4109  -0.3919  -0.3262  -0.3118  -0.3082
    -0.2876  -0.2385  -0.1899  -0.1804  -0.1597  -0.1550  -0.1341  -0.1199
    -0.0889  -0.0475  -0.0466  -0.0204   0.1181   0.2245   0.2632   0.2749
     0.2834   0.2889   0.3198   0.3659   0.5619   0.5814   0.6200   0.6288
     0.7289   0.7710   0.7852   0.8379   1.5870   1.6098   1.7057   1.7149
     4.6291   4.6320   4.7107   4.7117   5.4209   5.4620   5.4702   5.4931
     5.6194   5.6273   5.6368   5.6518   6.0012   6.0309   6.0313   6.0340
     6.1734   6.1777   6.3452   6.3689   6.4686   6.4707   6.4837   6.5256
     6.6069   6.7098   6.7182   6.7700   7.0552   7.4785   7.5067   7.9023
     7.9590   8.1658   8.2209   8.2703   8.4408   8.5178   8.5194   8.6192
     8.6279   8.6803   8.6897   8.7557   8.8316   8.8631   8.8643   9.0513
     9.1061   9.2314   9.2323

          k = 0.0000 0.0000-0.6699 (159584 PWs)   bands (ev):

   -21.8401 -21.8401 -21.8355 -21.8355 -21.7848 -21.7848 -21.7820 -21.7820
   -21.0986 -21.0986 -21.0978 -21.0978 -20.3488 -20.3488 -20.3100 -20.3100
   -20.2896 -20.2896 -20.2749 -20.2749 -18.8271 -18.8271 -18.8258 -18.8258
   -18.1538 -18.1538 -18.1239 -18.1239 -18.1109 -18.1109 -18.1003 -18.1003
   -17.0484 -17.0484 -17.0449 -17.0449 -16.9913 -16.9913 -16.9903 -16.9903
   -16.6065 -16.6065 -16.6045 -16.6045 -15.2301 -15.2301 -15.2194 -15.2194
   -14.4484 -14.4484 -14.4387 -14.4387 -12.3579 -12.3579 -12.2836 -12.2836
   -12.2207 -12.2207 -12.1317 -12.1317 -11.9782 -11.9782 -11.9387 -11.9387
   -11.2670 -11.2670 -11.2417 -11.2417 -10.6042 -10.6042 -10.5256 -10.5256
    -9.6053  -9.6053  -9.5828  -9.5828  -9.5166  -9.5166  -9.3943  -9.3943
    -9.2553  -9.2553  -9.0002  -9.0002  -8.9099  -8.9099  -8.5511  -8.5511
    -8.2060  -8.2060  -8.1481  -8.1481  -7.4549  -7.4549  -7.2963  -7.2963
    -6.7931  -6.7931  -6.5999  -6.5999  -6.3479  -6.3479  -6.3267  -6.3267
    -6.2331  -6.2331  -6.1991  -6.1991  -6.0949  -6.0949  -6.0417  -6.0417
    -5.8358  -5.8358  -5.7601  -5.7601  -5.6198  -5.6198  -5.4961  -5.4961
    -5.4067  -5.4067  -5.3665  -5.3665  -5.2806  -5.2806  -5.2461  -5.2461
    -4.9002  -4.9002  -4.8450  -4.8450  -4.7801  -4.7801  -4.7556  -4.7556
    -4.6560  -4.6560  -4.6278  -4.6278  -4.4894  -4.4894  -4.4581  -4.4581
    -4.2962  -4.2962  -4.2790  -4.2790  -4.1990  -4.1990  -4.1837  -4.1837
    -4.0272  -4.0272  -3.9526  -3.9526  -3.6929  -3.6929  -3.6356  -3.6356
    -3.1923  -3.1923  -3.1300  -3.1300  -2.9031  -2.9031  -2.8847  -2.8847
    -2.8667  -2.8667  -2.8235  -2.8235  -2.7872  -2.7872  -2.7484  -2.7484
    -2.6824  -2.6824  -2.6110  -2.6110  -2.4183  -2.4183  -2.4034  -2.4034
    -2.2800  -2.2800  -2.0980  -2.0980  -2.0472  -2.0472  -2.0323  -2.0323
    -1.9188  -1.9188  -1.7941  -1.7941  -1.7679  -1.7679  -1.6633  -1.6633
    -1.2193  -1.2193  -1.1731  -1.1731  -0.9487  -0.9487  -0.8807  -0.8807
    -0.8023  -0.8023  -0.7391  -0.7391  -0.5392  -0.5392  -0.5119  -0.5119
    -0.4372  -0.4372  -0.4128  -0.4128  -0.3416  -0.3416  -0.2931  -0.2931
    -0.2369  -0.2369  -0.2196  -0.2196  -0.1802  -0.1802  -0.1046  -0.1046
    -0.0602  -0.0602  -0.0184  -0.0184   0.1986   0.1986   0.2523   0.2523
     0.3135   0.3135   0.3288   0.3288   0.6138   0.6138   0.6481   0.6481
     0.7120   0.7120   0.7284   0.7284   1.6459   1.6459   1.6619   1.6619
     4.6722   4.6722   4.6745   4.6745   5.4349   5.4349   5.4723   5.4723
     5.6160   5.6160   5.6472   5.6472   6.0623   6.0623   6.0896   6.0896
     6.1576   6.1576   6.1938   6.1938   6.4422   6.4422   6.4829   6.4829
     6.6812   6.6812   6.7358   6.7358   7.7195   7.7195   7.8317   7.8317
     8.0863   8.0863   8.2295   8.2295   8.2561   8.2561   8.4095   8.4095
     8.6385   8.6385   8.7278   8.7278   8.8103   8.8103   8.8214   8.8214
     9.1932   9.1992   9.2102

          k = 0.0000-0.3574 0.0000 (159584 PWs)   bands (ev):

   -21.8467 -21.8467 -21.8283 -21.8283 -21.7868 -21.7868 -21.7807 -21.7807
   -21.1029 -21.1029 -21.0935 -21.0935 -20.3456 -20.3456 -20.3128 -20.3128
   -20.2835 -20.2835 -20.2810 -20.2810 -18.8320 -18.8320 -18.8212 -18.8212
   -18.1553 -18.1553 -18.1164 -18.1164 -18.1096 -18.1096 -18.1083 -18.1083
   -17.0553 -17.0553 -17.0379 -17.0379 -16.9987 -16.9987 -16.9830 -16.9830
   -16.6101 -16.6101 -16.6005 -16.6005 -15.2279 -15.2279 -15.2216 -15.2216
   -14.4471 -14.4471 -14.4397 -14.4397 -12.3232 -12.3232 -12.3153 -12.3153
   -12.1904 -12.1904 -12.1652 -12.1652 -11.9838 -11.9838 -11.9447 -11.9447
   -11.2603 -11.2603 -11.2407 -11.2407 -10.5705 -10.5705 -10.5579 -10.5579
    -9.5979  -9.5979  -9.5925  -9.5925  -9.4823  -9.4823  -9.4668  -9.4668
    -9.0993  -9.0993  -9.0704  -9.0704  -8.8035  -8.8035  -8.7598  -8.7598
    -8.1996  -8.1996  -8.1387  -8.1387  -7.3852  -7.3852  -7.3324  -7.3324
    -6.6999  -6.6999  -6.6234  -6.6234  -6.4754  -6.4754  -6.2731  -6.2731
    -6.2310  -6.2310  -6.1082  -6.1082  -6.0535  -6.0535  -6.0264  -6.0264
    -5.8045  -5.8045  -5.7367  -5.7367  -5.6107  -5.6107  -5.5911  -5.5911
    -5.5040  -5.5040  -5.3802  -5.3802  -5.2951  -5.2951  -5.2742  -5.2742
    -4.9463  -4.9463  -4.8518  -4.8518  -4.8136  -4.8136  -4.7283  -4.7283
    -4.6377  -4.6377  -4.5919  -4.5919  -4.5750  -4.5750  -4.4374  -4.4374
    -4.3250  -4.3250  -4.2758  -4.2758  -4.1587  -4.1587  -4.1483  -4.1483
    -4.0662  -4.0662  -3.8623  -3.8623  -3.7186  -3.7186  -3.6067  -3.6067
    -3.1834  -3.1834  -3.1513  -3.1513  -2.9282  -2.9282  -2.9007  -2.9007
    -2.8355  -2.8355  -2.8148  -2.8148  -2.7800  -2.7800  -2.7650  -2.7650
    -2.6710  -2.6710  -2.5647  -2.5647  -2.4668  -2.4668  -2.3958  -2.3958
    -2.1957  -2.1957  -2.1492  -2.1492  -1.9811  -1.9811  -1.9425  -1.9425
    -1.9045  -1.9045  -1.8471  -1.8471  -1.7508  -1.7508  -1.7104  -1.7104
    -1.2390  -1.2390  -1.1921  -1.1921  -0.9057  -0.9057  -0.8756  -0.8756
    -0.8634  -0.8634  -0.8313  -0.8313  -0.5081  -0.5081  -0.4864  -0.4864
    -0.4300  -0.4300  -0.4188  -0.4188  -0.3541  -0.3541  -0.3428  -0.3428
    -0.2329  -0.2329  -0.1531  -0.1531  -0.1391  -0.1391  -0.1241  -0.1241
    -0.1114  -0.1114  -0.0493  -0.0493   0.1598   0.1598   0.2769   0.2769
     0.2963   0.2963   0.3388   0.3388   0.5785   0.5785   0.6156   0.6156
     0.7591   0.7591   0.8076   0.8076   1.5986   1.5986   1.7105   1.7105
     4.6303   4.6303   4.7112   4.7112   5.4393   5.4393   5.4851   5.4851
     5.6235   5.6235   5.6427   5.6427   6.0132   6.0132   6.0342   6.0342
     6.1761   6.1761   6.3577   6.3577   6.4737   6.4737   6.4992   6.4992
     6.6615   6.6615   6.7438   6.7438   7.1858   7.1858   7.8111   7.8111
     8.0334   8.0334   8.2486   8.2486   8.4827   8.4827   8.5525   8.5525
     8.6257   8.6257   8.7934   8.7934   8.8511   8.8511   8.9564   8.9564
     9.1782   9.1787   9.2149

          k = 0.0000-0.3574-0.6699 (159624 PWs)   bands (ev):

   -21.8378 -21.8378 -21.8378 -21.8378 -21.7834 -21.7834 -21.7834 -21.7834
   -21.0984 -21.0984 -21.0980 -21.0980 -20.3474 -20.3474 -20.3114 -20.3114
   -20.2846 -20.2846 -20.2801 -20.2801 -18.8269 -18.8269 -18.8260 -18.8260
   -18.1503 -18.1503 -18.1151 -18.1151 -18.1119 -18.1119 -18.1116 -18.1116
   -17.0473 -17.0473 -17.0460 -17.0460 -16.9917 -16.9917 -16.9900 -16.9900
   -16.6064 -16.6064 -16.6048 -16.6048 -15.2250 -15.2250 -15.2245 -15.2245
   -14.4440 -14.4440 -14.4427 -14.4427 -12.3205 -12.3205 -12.3164 -12.3164
   -12.1825 -12.1825 -12.1742 -12.1742 -11.9661 -11.9661 -11.9623 -11.9623
   -11.2550 -11.2550 -11.2461 -11.2461 -10.5685 -10.5685 -10.5596 -10.5596
    -9.5989  -9.5989  -9.5913  -9.5913  -9.4795  -9.4795  -9.4686  -9.4686
    -9.0970  -9.0970  -9.0729  -9.0729  -8.7930  -8.7930  -8.7708  -8.7708
    -8.1850  -8.1850  -8.1547  -8.1547  -7.3873  -7.3873  -7.3299  -7.3299
    -6.6937  -6.6937  -6.6888  -6.6888  -6.3421  -6.3421  -6.3100  -6.3100
    -6.2283  -6.2283  -6.2239  -6.2239  -6.0772  -6.0772  -6.0621  -6.0621
    -5.8129  -5.8129  -5.7569  -5.7569  -5.5970  -5.5970  -5.5232  -5.5232
    -5.3823  -5.3823  -5.3760  -5.3760  -5.2849  -5.2849  -5.2620  -5.2620
    -4.8766  -4.8766  -4.8655  -4.8655  -4.7986  -4.7986  -4.7599  -4.7599
    -4.6449  -4.6449  -4.6397  -4.6397  -4.4775  -4.4775  -4.4759  -4.4759
    -4.2722  -4.2722  -4.2612  -4.2612  -4.2283  -4.2283  -4.2051  -4.2051
    -4.0259  -4.0259  -3.9614  -3.9614  -3.6710  -3.6710  -3.6568  -3.6568
    -3.1837  -3.1837  -3.1408  -3.1408  -2.9088  -2.9088  -2.8933  -2.8933
    -2.8451  -2.8451  -2.8344  -2.8344  -2.7910  -2.7910  -2.7338  -2.7338
    -2.6543  -2.6543  -2.6297  -2.6297  -2.4761  -2.4761  -2.3760  -2.3760
    -2.1827  -2.1827  -2.1616  -2.1616  -2.0175  -2.0175  -1.9888  -1.9888
    -1.9128  -1.9128  -1.8147  -1.8147  -1.7465  -1.7465  -1.7390  -1.7390
    -1.1991  -1.1991  -1.1873  -1.1873  -0.8850  -0.8850  -0.8570  -0.8570
    -0.8260  -0.8260  -0.8139  -0.8139  -0.5234  -0.5234  -0.5233  -0.5233
    -0.4311  -0.4311  -0.4156  -0.4156  -0.3487  -0.3487  -0.2991  -0.2991
    -0.2389  -0.2389  -0.1949  -0.1949  -0.1672  -0.1672  -0.1014  -0.1014
    -0.0623  -0.0623  -0.0508  -0.0508   0.2205   0.2205   0.2242   0.2242
     0.3124   0.3124   0.3434   0.3434   0.6163   0.6163   0.6468   0.6468
     0.7118   0.7118   0.7268   0.7268   1.6528   1.6528   1.6554   1.6554
     4.6712   4.6712   4.6755   4.6755   5.4450   5.4450   5.4613   5.4613
     5.6293   5.6293   5.6347   5.6347   6.0562   6.0562   6.0980   6.0980
     6.1512   6.1512   6.1986   6.1986   6.4533   6.4533   6.4730   6.4730
     6.6998   6.6998   6.7190   6.7190   7.7481   7.7481   7.7746   7.7746
     8.1479   8.1479   8.1852   8.1852   8.3013   8.3013   8.4428   8.4428
     8.5671   8.5671   8.6593   8.6593   8.8692   8.8692   8.8907   8.8907
     9.1946   9.1946   9.2457

          k =-0.5000 0.0000-0.2184 (159604 PWs)   bands (ev):

   -21.8344 -21.8343 -21.8329 -21.8307 -21.7983 -21.7952 -21.7814 -21.7800
   -21.1005 -21.1004 -21.0948 -21.0944 -20.3530 -20.3382 -20.3198 -20.3057
   -20.2902 -20.2879 -20.2763 -20.2740 -18.8307 -18.8306 -18.8234 -18.8231
   -18.1708 -18.1392 -18.1296 -18.1187 -18.1177 -18.1026 -18.1023 -18.0992
   -17.0565 -17.0507 -17.0347 -17.0344 -17.0050 -17.0025 -16.9897 -16.9885
   -16.6023 -16.6012 -16.5988 -16.5987 -15.2308 -15.2282 -15.2199 -15.2188
   -14.4490 -14.4487 -14.4486 -14.4479 -12.3540 -12.3180 -12.2998 -12.2934
   -12.1821 -12.1791 -12.1701 -12.1419 -12.0035 -11.9625 -11.9528 -11.9504
   -11.2701 -11.2573 -11.2454 -11.2389 -10.5795 -10.5794 -10.5732 -10.5666
    -9.5794  -9.5740  -9.5521  -9.5464  -9.5155  -9.5019  -9.4704  -9.4524
    -9.1790  -9.1787  -9.1551  -9.1201  -8.7088  -8.6906  -8.6900  -8.6718
    -8.2050  -8.1944  -8.1756  -8.1733  -7.4026  -7.3785  -7.3642  -7.3207
    -6.7179  -6.7004  -6.6922  -6.6809  -6.4297  -6.4231  -6.2585  -6.2410
    -6.2233  -6.2218  -6.1524  -6.1397  -6.1058  -6.0425  -6.0259  -5.9794
    -5.8668  -5.8520  -5.8120  -5.7390  -5.6019  -5.5962  -5.5654  -5.5109
    -5.5012  -5.4219  -5.3891  -5.3839  -5.3193  -5.3036  -5.2634  -5.2378
    -5.0238  -5.0043  -4.9614  -4.9557  -4.8208  -4.7914  -4.7697  -4.7481
    -4.7302  -4.6716  -4.5043  -4.4970  -4.4795  -4.4792  -4.4200  -4.3821
    -4.3340  -4.2957  -4.2636  -4.2521  -4.1941  -4.1653  -4.1448  -4.1120
    -4.0322  -4.0123  -3.9324  -3.9097  -3.6064  -3.5948  -3.5809  -3.5554
    -3.1747  -3.1699  -3.1620  -3.1315  -2.9477  -2.9217  -2.9164  -2.9049
    -2.8665  -2.8313  -2.8064  -2.7919  -2.7748  -2.7347  -2.7032  -2.6942
    -2.6844  -2.6418  -2.6312  -2.5678  -2.5594  -2.5007  -2.4273  -2.4181
    -2.2263  -2.2046  -2.2038  -2.1957  -2.0690  -2.0609  -2.0585  -1.9548
    -1.8707  -1.8665  -1.8626  -1.8568  -1.7698  -1.7611  -1.7340  -1.6148
    -1.3065  -1.2722  -1.1694  -1.1029  -0.9459  -0.9373  -0.9126  -0.8838
    -0.8101  -0.7969  -0.7771  -0.7740  -0.5367  -0.5297  -0.4953  -0.4612
    -0.4283  -0.4171  -0.4122  -0.4036  -0.3374  -0.3001  -0.2972  -0.2872
    -0.2848  -0.2649  -0.2078  -0.2003  -0.1884  -0.1777  -0.1578  -0.0957
    -0.0609  -0.0596  -0.0312   0.0143   0.1614   0.1681   0.1721   0.2263
     0.3413   0.3435   0.3512   0.3576   0.5191   0.5441   0.6127   0.6494
     0.7152   0.7579   0.8049   0.8333   1.6072   1.6125   1.6953   1.7003
     4.6178   4.6242   4.7049   4.7200   5.4823   5.4923   5.5027   5.5430
     5.5646   5.5737   5.5893   5.6158   6.0617   6.0708   6.0838   6.1161
     6.1381   6.1557   6.2266   6.2320   6.4649   6.4703   6.4761   6.5292
     6.6094   6.6993   6.7236   6.7823   7.3511   7.3776   7.6360   7.7048
     8.0740   8.1172   8.2652   8.2983   8.3931   8.4489   8.5974   8.6380
     8.7259   8.8259   8.8588   8.8784   8.8925   8.9031   9.0237   9.0254
     9.0703   9.0836   9.0970

          k =-0.5000 0.0000-0.8882 (159698 PWs)   bands (ev):

   -21.8351 -21.8351 -21.8325 -21.8325 -21.7890 -21.7890 -21.7868 -21.7868
   -21.0978 -21.0978 -21.0974 -21.0974 -20.3487 -20.3487 -20.3098 -20.3098
   -20.2897 -20.2897 -20.2748 -20.2748 -18.8274 -18.8274 -18.8262 -18.8262
   -18.1537 -18.1537 -18.1241 -18.1241 -18.1108 -18.1108 -18.1006 -18.1006
   -17.0457 -17.0457 -17.0429 -17.0429 -16.9971 -16.9971 -16.9960 -16.9960
   -16.6009 -16.6009 -16.5994 -16.5994 -15.2248 -15.2248 -15.2241 -15.2241
   -14.4489 -14.4489 -14.4483 -14.4483 -12.3371 -12.3371 -12.2951 -12.2951
   -12.1852 -12.1852 -12.1503 -12.1503 -11.9787 -11.9787 -11.9567 -11.9567
   -11.2581 -11.2581 -11.2474 -11.2474 -10.5797 -10.5797 -10.5698 -10.5698
    -9.5807  -9.5807  -9.5433  -9.5433  -9.5090  -9.5090  -9.4615  -9.4615
    -9.1826  -9.1826  -9.1346  -9.1346  -8.7006  -8.7006  -8.6799  -8.6799
    -8.2064  -8.2064  -8.1695  -8.1695  -7.3937  -7.3937  -7.3401  -7.3401
    -6.7327  -6.7327  -6.7060  -6.7060  -6.3692  -6.3692  -6.2704  -6.2704
    -6.2251  -6.2251  -6.2024  -6.2024  -6.0810  -6.0810  -6.0420  -6.0420
    -5.8725  -5.8725  -5.7688  -5.7688  -5.5656  -5.5656  -5.4830  -5.4830
    -5.4307  -5.4307  -5.3775  -5.3775  -5.2602  -5.2602  -5.2341  -5.2341
    -4.9911  -4.9911  -4.9403  -4.9403  -4.7809  -4.7809  -4.7585  -4.7585
    -4.5804  -4.5804  -4.5526  -4.5526  -4.5029  -4.5029  -4.4533  -4.4533
    -4.3838  -4.3838  -4.3286  -4.3286  -4.1817  -4.1817  -4.0906  -4.0906
    -4.0304  -4.0304  -3.9845  -3.9845  -3.5898  -3.5898  -3.5628  -3.5628
    -3.1619  -3.1619  -3.1464  -3.1464  -2.9713  -2.9713  -2.9156  -2.9156
    -2.8577  -2.8577  -2.7991  -2.7991  -2.7809  -2.7809  -2.6956  -2.6956
    -2.6476  -2.6476  -2.5775  -2.5775  -2.4921  -2.4921  -2.4023  -2.4023
    -2.2729  -2.2729  -2.2226  -2.2226  -2.0741  -2.0741  -1.9735  -1.9735
    -1.8855  -1.8855  -1.8141  -1.8141  -1.7629  -1.7629  -1.6984  -1.6984
    -1.1964  -1.1964  -1.1880  -1.1880  -0.9308  -0.9308  -0.8902  -0.8902
    -0.7926  -0.7926  -0.7651  -0.7651  -0.5215  -0.5215  -0.5169  -0.5169
    -0.4359  -0.4359  -0.4127  -0.4127  -0.3011  -0.3011  -0.2942  -0.2942
    -0.2580  -0.2580  -0.2042  -0.2042  -0.1922  -0.1922  -0.1607  -0.1607
    -0.0685  -0.0685  -0.0073  -0.0073   0.1788   0.1788   0.2070   0.2070
     0.3303   0.3303   0.3491   0.3491   0.6432   0.6432   0.6581   0.6581
     0.7011   0.7011   0.7256   0.7256   1.6551   1.6551   1.6599   1.6599
     4.6587   4.6587   4.6716   4.6716   5.4866   5.4866   5.5189   5.5189
     5.5695   5.5695   5.5841   5.5841   6.0274   6.0274   6.0484   6.0484
     6.2199   6.2199   6.2499   6.2499   6.4379   6.4379   6.4869   6.4869
     6.6884   6.6884   6.7361   6.7361   7.6573   7.6573   7.9019   7.9019
     8.0421   8.0421   8.2273   8.2273   8.3717   8.3717   8.4840   8.4840
     8.6375   8.6375   8.7397   8.7397   8.8766   8.8766   8.9285   8.9285
     9.0091   9.0091   9.1862

          k =-0.5000-0.3574-0.2184 (159572 PWs)   bands (ev):

   -21.8339 -21.8339 -21.8322 -21.8322 -21.7969 -21.7969 -21.7807 -21.7807
   -21.1005 -21.1005 -21.0946 -21.0946 -20.3456 -20.3456 -20.3127 -20.3127
   -20.2834 -20.2834 -20.2810 -20.2810 -18.8307 -18.8307 -18.8232 -18.8232
   -18.1553 -18.1553 -18.1166 -18.1166 -18.1096 -18.1096 -18.1084 -18.1084
   -17.0538 -17.0538 -17.0344 -17.0344 -17.0040 -17.0040 -16.9888 -16.9888
   -16.6006 -16.6006 -16.5999 -16.5999 -15.2295 -15.2295 -15.2193 -15.2193
   -14.4489 -14.4489 -14.4478 -14.4478 -12.3198 -12.3198 -12.2968 -12.2968
   -12.1794 -12.1794 -12.1656 -12.1656 -11.9950 -11.9950 -11.9587 -11.9587
   -11.2585 -11.2585 -11.2376 -11.2376 -10.5777 -10.5777 -10.5708 -10.5708
    -9.5651  -9.5651  -9.5439  -9.5439  -9.5181  -9.5181  -9.5036  -9.5036
    -9.0628  -9.0628  -9.0566  -9.0566  -8.8347  -8.8347  -8.7580  -8.7580
    -8.2014  -8.2014  -8.1622  -8.1622  -7.3689  -7.3689  -7.3231  -7.3231
    -6.7256  -6.7256  -6.6413  -6.6413  -6.4358  -6.4358  -6.2670  -6.2670
    -6.2337  -6.2337  -6.1237  -6.1237  -6.0886  -6.0886  -6.0182  -6.0182
    -5.8148  -5.8148  -5.7766  -5.7766  -5.5934  -5.5934  -5.5445  -5.5445
    -5.4407  -5.4407  -5.3952  -5.3952  -5.3308  -5.3308  -5.2493  -5.2493
    -4.9989  -4.9989  -4.9862  -4.9862  -4.8095  -4.8095  -4.7631  -4.7631
    -4.7071  -4.7071  -4.4950  -4.4950  -4.4810  -4.4810  -4.4001  -4.4001
    -4.3243  -4.3243  -4.2225  -4.2225  -4.1903  -4.1903  -4.1578  -4.1578
    -4.0481  -4.0481  -3.9071  -3.9071  -3.6028  -3.6028  -3.5707  -3.5707
    -3.1518  -3.1518  -3.1353  -3.1353  -2.9433  -2.9433  -2.9163  -2.9163
    -2.8840  -2.8840  -2.7990  -2.7990  -2.7703  -2.7703  -2.7062  -2.7062
    -2.6430  -2.6430  -2.6074  -2.6074  -2.5208  -2.5208  -2.2937  -2.2937
    -2.2644  -2.2644  -2.2245  -2.2245  -2.0214  -2.0214  -1.9841  -1.9841
    -1.8992  -1.8992  -1.8563  -1.8563  -1.7673  -1.7673  -1.7201  -1.7201
    -1.2873  -1.2873  -1.1330  -1.1330  -0.9098  -0.9098  -0.8523  -0.8523
    -0.8346  -0.8346  -0.8327  -0.8327  -0.5282  -0.5282  -0.4675  -0.4675
    -0.4232  -0.4232  -0.4085  -0.4085  -0.3330  -0.3330  -0.3074  -0.3074
    -0.2732  -0.2732  -0.1821  -0.1821  -0.1561  -0.1561  -0.1351  -0.1351
    -0.0586  -0.0586  -0.0325  -0.0325   0.1516   0.1516   0.2058   0.2058
     0.3435   0.3435   0.3582   0.3582   0.5324   0.5324   0.6289   0.6289
     0.7456   0.7456   0.8136   0.8136   1.6101   1.6101   1.6983   1.6983
     4.6206   4.6206   4.7123   4.7123   5.4836   5.4836   5.5291   5.5291
     5.5672   5.5672   5.6022   5.6022   6.0650   6.0650   6.1020   6.1020
     6.1457   6.1457   6.2290   6.2290   6.4673   6.4673   6.5032   6.5032
     6.6568   6.6568   6.7556   6.7556   7.3721   7.3721   7.6384   7.6384
     8.1116   8.1116   8.4108   8.4108   8.4134   8.4134   8.6153   8.6153
     8.6318   8.6318   8.8336   8.8336   8.8760   8.8760   9.0361   9.0361
     9.1047   9.1048   9.1583

          k =-0.5000-0.3574-0.8882 (159672 PWs)   bands (ev):

   -21.8341 -21.8341 -21.8334 -21.8334 -21.7882 -21.7882 -21.7877 -21.7877
   -21.0978 -21.0978 -21.0975 -21.0975 -20.3473 -20.3473 -20.3113 -20.3113
   -20.2846 -20.2846 -20.2800 -20.2800 -18.8273 -18.8273 -18.8263 -18.8263
   -18.1503 -18.1503 -18.1143 -18.1143 -18.1128 -18.1128 -18.1118 -18.1118
   -17.0451 -17.0451 -17.0435 -17.0435 -16.9975 -16.9975 -16.9956 -16.9956
   -16.6013 -16.6013 -16.5991 -16.5991 -15.2250 -15.2250 -15.2239 -15.2239
   -14.4487 -14.4487 -14.4481 -14.4481 -12.3098 -12.3098 -12.3074 -12.3074
   -12.1749 -12.1749 -12.1678 -12.1678 -11.9808 -11.9808 -11.9740 -11.9740
   -11.2516 -11.2516 -11.2441 -11.2441 -10.5775 -10.5775 -10.5712 -10.5712
    -9.5624  -9.5624  -9.5488  -9.5488  -9.5121  -9.5121  -9.5067  -9.5067
    -9.0623  -9.0623  -9.0567  -9.0567  -8.8321  -8.8321  -8.7611  -8.7611
    -8.1976  -8.1976  -8.1671  -8.1671  -7.3589  -7.3589  -7.3337  -7.3337
    -6.7535  -6.7535  -6.6588  -6.6588  -6.3620  -6.3620  -6.3101  -6.3101
    -6.2262  -6.2262  -6.2132  -6.2132  -6.0627  -6.0627  -6.0474  -6.0474
    -5.8103  -5.8103  -5.7989  -5.7989  -5.5275  -5.5275  -5.5099  -5.5099
    -5.4510  -5.4510  -5.3692  -5.3692  -5.2533  -5.2533  -5.2494  -5.2494
    -4.9794  -4.9794  -4.9544  -4.9544  -4.7897  -4.7897  -4.7689  -4.7689
    -4.5793  -4.5793  -4.5579  -4.5579  -4.4754  -4.4754  -4.4721  -4.4721
    -4.3742  -4.3742  -4.3522  -4.3522  -4.1360  -4.1360  -4.1333  -4.1333
    -4.0620  -4.0620  -3.9705  -3.9705  -3.5818  -3.5818  -3.5745  -3.5745
    -3.1534  -3.1534  -3.1350  -3.1350  -2.9523  -2.9523  -2.8932  -2.8932
    -2.8517  -2.8517  -2.8497  -2.8497  -2.8001  -2.8001  -2.7369  -2.7369
    -2.6566  -2.6566  -2.5899  -2.5899  -2.3910  -2.3910  -2.3684  -2.3684
    -2.2649  -2.2649  -2.2521  -2.2521  -2.0255  -2.0255  -1.9340  -1.9340
    -1.9056  -1.9056  -1.8884  -1.8884  -1.7423  -1.7423  -1.7290  -1.7290
    -1.2057  -1.2057  -1.1782  -1.1782  -0.8781  -0.8781  -0.8457  -0.8457
    -0.8353  -0.8353  -0.8291  -0.8291  -0.5258  -0.5258  -0.4890  -0.4890
    -0.4521  -0.4521  -0.4019  -0.4019  -0.3164  -0.3164  -0.3009  -0.3009
    -0.2564  -0.2564  -0.2435  -0.2435  -0.1396  -0.1396  -0.1332  -0.1332
    -0.0784  -0.0784  -0.0321  -0.0321   0.1884   0.1884   0.1897   0.1897
     0.3429   0.3429   0.3455   0.3455   0.6451   0.6451   0.6555   0.6555
     0.7054   0.7054   0.7213   0.7213   1.6533   1.6533   1.6623   1.6623
     4.6647   4.6647   4.6651   4.6651   5.4891   5.4891   5.5211   5.5211
     5.5642   5.5642   5.5847   5.5847   6.0353   6.0353   6.0398   6.0398
     6.2195   6.2195   6.2538   6.2538   6.4461   6.4461   6.4789   6.4789
     6.7055   6.7055   6.7208   6.7208   7.6944   7.6944   7.7844   7.7844
     8.1601   8.1601   8.2377   8.2377   8.3647   8.3647   8.4602   8.4602
     8.6489   8.6489   8.7697   8.7697   8.8435   8.8435   8.8948   8.8948
     9.0351   9.0352   9.1224

     highest occupied, lowest unoccupied level (ev):     1.7149    4.6178

!    total energy              =   -2667.07683541 Ry
     Harris-Foulkes estimate   =   -2667.07683540 Ry
     estimated scf accuracy    <          4.4E-10 Ry

     total all-electron energy =    -10159.420605 Ry

     The total energy is the sum of the following terms:

     one-electron contribution =   -1431.60825958 Ry
     hartree contribution      =     920.01971959 Ry
     xc contribution           =    -545.10280670 Ry
     ewald contribution        =    -847.21299225 Ry
     Dispersion Correction     =      -0.68698649 Ry
     one-center paw contrib.   =    -762.48550998 Ry

     convergence has been achieved in  18 iterations

     Forces acting on atoms (cartesian axes, Ry/au):

     atom    1 type  3   force =     0.00009618   -0.00004556   -0.00037151
     atom    2 type  3   force =    -0.00009618   -0.00004556    0.00037151
     atom    3 type  3   force =    -0.00009618    0.00004556    0.00037151
     atom    4 type  3   force =     0.00009618    0.00004556   -0.00037151
     atom    5 type  3   force =    -0.00007598   -0.00006798   -0.00035580
     atom    6 type  3   force =     0.00007598   -0.00006798    0.00035580
     atom    7 type  3   force =     0.00007598    0.00006798    0.00035580
     atom    8 type  3   force =    -0.00007598    0.00006798   -0.00035580
     atom    9 type  4   force =     0.00040092   -0.00016417    0.00037399
     atom   10 type  4   force =    -0.00040092   -0.00016417   -0.00037399
     atom   11 type  4   force =    -0.00040092    0.00016417   -0.00037399
     atom   12 type  4   force =     0.00040092    0.00016417    0.00037399
     atom   13 type  2   force =     0.00008259    0.00057908   -0.00041370
     atom   14 type  2   force =    -0.00008259    0.00057908    0.00041370
     atom   15 type  2   force =    -0.00008259   -0.00057908    0.00041370
     atom   16 type  2   force =     0.00008259   -0.00057908   -0.00041370
     atom   17 type  4   force =    -0.00045220    0.00004806    0.00051981
     atom   18 type  4   force =     0.00045220    0.00004806   -0.00051981
     atom   19 type  4   force =     0.00045220   -0.00004806   -0.00051981
     atom   20 type  4   force =    -0.00045220   -0.00004806    0.00051981
     atom   21 type  4   force =    -0.00051931    0.00031297   -0.00023694
     atom   22 type  4   force =     0.00051931    0.00031297    0.00023694
     atom   23 type  4   force =     0.00051931   -0.00031297    0.00023694
     atom   24 type  4   force =    -0.00051931   -0.00031297   -0.00023694
     atom   25 type  2   force =    -0.00001250    0.00006910    0.00044938
     atom   26 type  2   force =     0.00001250    0.00006910   -0.00044938
     atom   27 type  2   force =     0.00001250   -0.00006910   -0.00044938
     atom   28 type  2   force =    -0.00001250   -0.00006910    0.00044938
     atom   29 type  4   force =    -0.00009217    0.00052720   -0.00053316
     atom   30 type  4   force =     0.00009217    0.00052720    0.00053316
     atom   31 type  4   force =     0.00009217   -0.00052720    0.00053316
     atom   32 type  4   force =    -0.00009217   -0.00052720   -0.00053316
     atom   33 type  2   force =    -0.00018533    0.00000878    0.00050423
     atom   34 type  2   force =     0.00018533    0.00000878   -0.00050423
     atom   35 type  2   force =     0.00018533   -0.00000878   -0.00050423
     atom   36 type  2   force =    -0.00018533   -0.00000878    0.00050423
     atom   37 type  2   force =    -0.00034071    0.00018571   -0.00036088
     atom   38 type  2   force =     0.00034071    0.00018571    0.00036088
     atom   39 type  2   force =     0.00034071   -0.00018571    0.00036088
     atom   40 type  2   force =    -0.00034071   -0.00018571   -0.00036088
     atom   41 type  1   force =    -0.00006372   -0.00006356   -0.00028423
     atom   42 type  1   force =     0.00006372   -0.00006356    0.00028423
     atom   43 type  1   force =     0.00006372    0.00006356    0.00028423
     atom   44 type  1   force =    -0.00006372    0.00006356   -0.00028423
     atom   45 type  3   force =    -0.00016943    0.00004539   -0.00028887
     atom   46 type  3   force =     0.00016943    0.00004539    0.00028887
     atom   47 type  3   force =     0.00016943   -0.00004539    0.00028887
     atom   48 type  3   force =    -0.00016943   -0.00004539   -0.00028887
     atom   49 type  3   force =     0.00015588    0.00001344   -0.00058479
     atom   50 type  3   force =    -0.00015588    0.00001344    0.00058479
     atom   51 type  3   force =    -0.00015588   -0.00001344    0.00058479
     atom   52 type  3   force =     0.00015588   -0.00001344   -0.00058479
     atom   53 type  1   force =    -0.00027059   -0.00002934   -0.00003266
     atom   54 type  1   force =     0.00027059   -0.00002934    0.00003266
     atom   55 type  1   force =     0.00027059    0.00002934    0.00003266
     atom   56 type  1   force =    -0.00027059    0.00002934   -0.00003266
     atom   57 type  2   force =    -0.00058376   -0.00030767    0.00012173
     atom   58 type  2   force =     0.00058376   -0.00030767   -0.00012173
     atom   59 type  2   force =     0.00058376    0.00030767   -0.00012173
     atom   60 type  2   force =    -0.00058376    0.00030767    0.00012173
     atom   61 type  2   force =     0.00007215    0.00013829   -0.00023631
     atom   62 type  2   force =    -0.00007215    0.00013829    0.00023631
     atom   63 type  2   force =    -0.00007215   -0.00013829    0.00023631
     atom   64 type  2   force =     0.00007215   -0.00013829   -0.00023631
     atom   65 type  1   force =     0.00000078    0.00027686    0.00004831
     atom   66 type  1   force =    -0.00000078    0.00027686   -0.00004831
     atom   67 type  1   force =    -0.00000078   -0.00027686   -0.00004831
     atom   68 type  1   force =     0.00000078   -0.00027686    0.00004831
     atom   69 type  2   force =    -0.00003831   -0.00037128    0.00027393
     atom   70 type  2   force =     0.00003831   -0.00037128   -0.00027393
     atom   71 type  2   force =     0.00003831    0.00037128   -0.00027393
     atom   72 type  2   force =    -0.00003831    0.00037128    0.00027393
     atom   73 type  2   force =     0.00056852   -0.00019007   -0.00003319
     atom   74 type  2   force =    -0.00056852   -0.00019007    0.00003319
     atom   75 type  2   force =    -0.00056852    0.00019007    0.00003319
     atom   76 type  2   force =     0.00056852    0.00019007   -0.00003319
     atom   77 type  1   force =     0.00009119    0.00018804    0.00014690
     atom   78 type  1   force =    -0.00009119    0.00018804   -0.00014690
     atom   79 type  1   force =    -0.00009119   -0.00018804   -0.00014690
     atom   80 type  1   force =     0.00009119   -0.00018804    0.00014690
     atom   81 type  3   force =    -0.00049574    0.00001359   -0.00041768
     atom   82 type  3   force =     0.00049574    0.00001359    0.00041768
     atom   83 type  3   force =     0.00049574   -0.00001359    0.00041768
     atom   84 type  3   force =    -0.00049574   -0.00001359   -0.00041768
     atom   85 type  3   force =     0.00076666    0.00039604    0.00004386
     atom   86 type  3   force =    -0.00076666    0.00039604   -0.00004386
     atom   87 type  3   force =    -0.00076666   -0.00039604   -0.00004386
     atom   88 type  3   force =     0.00076666   -0.00039604    0.00004386
     atom   89 type  2   force =    -0.00028366   -0.00044793    0.00077404
     atom   90 type  2   force =     0.00028366   -0.00044793   -0.00077404
     atom   91 type  2   force =     0.00028366    0.00044793   -0.00077404
     atom   92 type  2   force =    -0.00028366    0.00044793    0.00077404
     atom   93 type  2   force =    -0.00007394    0.00019086    0.00016336
     atom   94 type  2   force =     0.00007394    0.00019086   -0.00016336
     atom   95 type  2   force =     0.00007394   -0.00019086   -0.00016336
     atom   96 type  2   force =    -0.00007394   -0.00019086    0.00016336
     atom   97 type  2   force =     0.00041814   -0.00005582    0.00001291
     atom   98 type  2   force =    -0.00041814   -0.00005582   -0.00001291
     atom   99 type  2   force =    -0.00041814    0.00005582   -0.00001291
     atom  100 type  2   force =     0.00041814    0.00005582    0.00001291
     atom  101 type  1   force =     0.00038955   -0.00046279    0.00039363
     atom  102 type  1   force =    -0.00038955   -0.00046279   -0.00039363
     atom  103 type  1   force =    -0.00038955    0.00046279   -0.00039363
     atom  104 type  1   force =     0.00038955    0.00046279    0.00039363
     atom  105 type  2   force =     0.00000726    0.00008616    0.00077459
     atom  106 type  2   force =    -0.00000726    0.00008616   -0.00077459
     atom  107 type  2   force =    -0.00000726   -0.00008616   -0.00077459
     atom  108 type  2   force =     0.00000726   -0.00008616    0.00077459
     atom  109 type  1   force =     0.00019370   -0.00011926    0.00094480
     atom  110 type  1   force =    -0.00019370   -0.00011926   -0.00094480
     atom  111 type  1   force =    -0.00019370    0.00011926   -0.00094480
     atom  112 type  1   force =     0.00019370    0.00011926    0.00094480
     atom  113 type  1   force =     0.00046146    0.00002710    0.00001541
     atom  114 type  1   force =    -0.00046146    0.00002710   -0.00001541
     atom  115 type  1   force =    -0.00046146   -0.00002710   -0.00001541
     atom  116 type  1   force =     0.00046146   -0.00002710    0.00001541
     atom  117 type  3   force =     0.00008375    0.00013999    0.00003777
     atom  118 type  3   force =    -0.00008375    0.00013999   -0.00003777
     atom  119 type  3   force =    -0.00008375   -0.00013999   -0.00003777
     atom  120 type  3   force =     0.00008375   -0.00013999    0.00003777
     atom  121 type  3   force =    -0.00017937   -0.00001470   -0.00005826
     atom  122 type  3   force =     0.00017937   -0.00001470    0.00005826
     atom  123 type  3   force =     0.00017937    0.00001470    0.00005826
     atom  124 type  3   force =    -0.00017937    0.00001470   -0.00005826
     atom  125 type  3   force =     0.00043249    0.00002335    0.00051814
     atom  126 type  3   force =    -0.00043249    0.00002335   -0.00051814
     atom  127 type  3   force =    -0.00043249   -0.00002335   -0.00051814
     atom  128 type  3   force =     0.00043249   -0.00002335    0.00051814
     atom  129 type  1   force =    -0.00005479    0.00002813    0.00035166
     atom  130 type  1   force =     0.00005479    0.00002813   -0.00035166
     atom  131 type  1   force =     0.00005479   -0.00002813   -0.00035166
     atom  132 type  1   force =    -0.00005479   -0.00002813    0.00035166
     atom  133 type  3   force =    -0.00026819    0.00002830    0.00031972
     atom  134 type  3   force =     0.00026819    0.00002830   -0.00031972
     atom  135 type  3   force =     0.00026819   -0.00002830   -0.00031972
     atom  136 type  3   force =    -0.00026819   -0.00002830    0.00031972
     atom  137 type  3   force =     0.00003802   -0.00023051    0.00025973
     atom  138 type  3   force =    -0.00003802   -0.00023051   -0.00025973
     atom  139 type  3   force =    -0.00003802    0.00023051   -0.00025973
     atom  140 type  3   force =     0.00003802    0.00023051    0.00025973
     atom  141 type  3   force =    -0.00013210    0.00038779   -0.00002888
     atom  142 type  3   force =     0.00013210    0.00038779    0.00002888
     atom  143 type  3   force =     0.00013210   -0.00038779    0.00002888
     atom  144 type  3   force =    -0.00013210   -0.00038779   -0.00002888

     Total force =     0.006622     Total SCF correction =     0.000038


     Computing stress (Cartesian axis) and pressure

          total   stress  (Ry/bohr**3)                   (kbar)     P=   -3.22
  -0.00001797   0.00000000  -0.00000293         -2.64      0.00     -0.43
   0.00000000  -0.00002924   0.00000000          0.00     -4.30      0.00
  -0.00000293   0.00000000  -0.00001853         -0.43      0.00     -2.73


     Writing output data file scf.save
 
     init_run     :    125.35s CPU    129.94s WALL (       1 calls)
     electrons    :   4932.58s CPU   5142.60s WALL (       1 calls)
     forces       :     56.51s CPU     56.96s WALL (       1 calls)
     stress       :    476.27s CPU    477.07s WALL (       1 calls)

     Called by init_run:
     wfcinit      :    107.40s CPU    111.72s WALL (       1 calls)
     potinit      :      6.28s CPU      6.32s WALL (       1 calls)

     Called by electrons:
     c_bands      :   4437.48s CPU   4621.62s WALL (      18 calls)
     sum_band     :    467.70s CPU    490.49s WALL (      18 calls)
     v_of_rho     :      4.37s CPU      4.77s WALL (      19 calls)
     newd         :     10.09s CPU     12.77s WALL (      19 calls)
     PAW_pot      :     11.93s CPU     11.95s WALL (      19 calls)
     mix_rho      :      1.05s CPU      1.17s WALL (      18 calls)

     Called by c_bands:
     init_us_2    :     24.06s CPU     24.16s WALL (     312 calls)
     cegterg      :   4341.11s CPU   4524.77s WALL (     144 calls)

     Called by sum_band:
     sum_band:bec :      0.22s CPU      0.22s WALL (     144 calls)
     addusdens    :     10.42s CPU     12.93s WALL (      18 calls)

     Called by *egterg:
     h_psi        :   2411.62s CPU   2559.24s WALL (     679 calls)
     s_psi        :    498.31s CPU    498.45s WALL (     679 calls)
     g_psi        :     13.00s CPU     13.01s WALL (     527 calls)
     cdiaghg      :    279.02s CPU    279.22s WALL (     671 calls)

     Called by h_psi:
     h_psi:pot    :   2395.64s CPU   2542.97s WALL (     679 calls)
     h_psi:calbec :    476.99s CPU    477.78s WALL (     679 calls)
     vloc_psi     :   1420.31s CPU   1566.66s WALL (     679 calls)
     add_vuspsi   :    498.34s CPU    498.54s WALL (     679 calls)

     General routines
     calbec       :    689.44s CPU    690.67s WALL (     863 calls)
     fft          :      2.61s CPU      3.26s WALL (     271 calls)
     fftw         :   1510.49s CPU   1676.16s WALL (  292592 calls)
 
     Parallel routines
     fft_scatter  :    251.52s CPU    417.02s WALL (  292863 calls)
 
     PWSCF        :     1h33m CPU        1h38m WALL

 
   This run was terminated on:   9: 3:48   8Dec2017            

=------------------------------------------------------------------------------=
   JOB DONE.
=------------------------------------------------------------------------------=
