
     Program PWSCF v.6.1 (svn rev. 13369) starts on 19Dec2017 at  0:10: 5 

     This program is part of the open-source Quantum ESPRESSO suite
     for quantum simulation of materials; please cite
         "P. Giannozzi et al., J. Phys.:Condens. Matter 21 395502 (2009);
          URL http://www.quantum-espresso.org", 
     in publications or presentations arising from this work. More details at
     http://www.quantum-espresso.org/quote

     Parallel version (MPI), running on     8 processors
     R & G space division:  proc/nbgrp/npool/nimage =       8
     Waiting for input...
     Reading input from standard input

     Current dimensions of program PWSCF are:
     Max number of different atomic species (ntypx) = 10
     Max number of k-points (npk) =  40000
     Max angular momentum in pseudopotentials (lmaxx) =  3
               file C.pbe-n-kjpaw_psl.0.1.UPF: wavefunction(s)  2P renormalized
               file N.pbe-n-kjpaw_psl.0.1.UPF: wavefunction(s)  2P renormalized
               file H.pbe-kjpaw_psl.0.1.UPF: wavefunction(s)  1S renormalized
               file O.pbe-n-kjpaw_psl.0.1.UPF: wavefunction(s)  2P renormalized

     -------------------------------------
     Parameters for Dispersion Correction:
     -------------------------------------
       atom      VdW radius       C_6     

        C          2.744         60.710
        N          2.640         42.670
        H          1.892          4.857
        O          2.536         24.284

     Subspace diagonalization in iterative solution of the eigenvalue problem:
     a serial algorithm will be used

 
     Parallelization info
     --------------------
     sticks:   dense  smooth     PW     G-vecs:    dense   smooth      PW
     Min        1426    1426    376                85909    85909   11662
     Max        1427    1427    377                85910    85910   11665
     Sum       11411   11411   3011               687275   687275   93309
 


     bravais-lattice index     =            0
     lattice parameter (alat)  =      13.1729  a.u.
     unit-cell volume          =    5088.8491 (a.u.)^3
     number of atoms/cell      =           80
     number of atomic types    =            4
     number of electrons       =       304.00
     number of Kohn-Sham states=          182
     kinetic-energy cutoff     =     100.0000  Ry
     charge density cutoff     =     400.0000  Ry
     convergence threshold     =      1.0E-08
     mixing beta               =       0.5000
     number of iterations used =            8  plain     mixing
     Exchange-correlation      =  SLA  PW   PBX  PBC ( 1  4  3  4 0 0)

     celldm(1)=  13.172903  celldm(2)=   0.000000  celldm(3)=   0.000000
     celldm(4)=   0.000000  celldm(5)=   0.000000  celldm(6)=   0.000000

     crystal axes: (cart. coord. in units of alat)
               a(1) = (   1.000000   0.000000   0.000000 )  
               a(2) = (   0.000000   2.066908   0.000000 )  
               a(3) = (  -0.308649   0.000000   1.077095 )  

     reciprocal axes: (cart. coord. in units 2 pi/alat)
               b(1) = (  1.000000  0.000000  0.286557 )  
               b(2) = (  0.000000  0.483815  0.000000 )  
               b(3) = (  0.000000  0.000000  0.928423 )  


     PseudoPot. # 1 for  C read from file:
     /scratch/ahofstet/pseudo/C.pbe-n-kjpaw_psl.0.1.UPF
     MD5 check sum: 430fe95172b1e11ef3f8ed03bac87931
     Pseudo is Projector augmented-wave + core cor, Zval =  4.0
     Generated using "atomic" code by A. Dal Corso  v.5.0.99 svn rev. 10869
     Shape of augmentation charge: BESSEL
     Using radial grid of 1073 points,  4 beta functions with: 
                l(1) =   0
                l(2) =   0
                l(3) =   1
                l(4) =   1
     Q(r) pseudized with 0 coefficients 


     PseudoPot. # 2 for  N read from file:
     /scratch/ahofstet/pseudo/N.pbe-n-kjpaw_psl.0.1.UPF
     MD5 check sum: f73187c8b701007e77325f868c9291d7
     Pseudo is Projector augmented-wave + core cor, Zval =  5.0
     Generated using "atomic" code by A. Dal Corso  v.5.0.99 svn rev. 10869
     Shape of augmentation charge: PSQ
     Using radial grid of 1085 points,  4 beta functions with: 
                l(1) =   0
                l(2) =   0
                l(3) =   1
                l(4) =   1
     Q(r) pseudized with 0 coefficients 


     PseudoPot. # 3 for  H read from file:
     /scratch/ahofstet/pseudo/H.pbe-kjpaw_psl.0.1.UPF
     MD5 check sum: 94e484f906d9e9773b2f6e52662335b2
     Pseudo is Projector augmented-wave, Zval =  1.0
     Generated using "atomic" code by A. Dal Corso  v.5.0.99 svn rev. 10869
     Shape of augmentation charge: PSQ
     Using radial grid of  929 points,  2 beta functions with: 
                l(1) =   0
                l(2) =   0
     Q(r) pseudized with 0 coefficients 


     PseudoPot. # 4 for  O read from file:
     /scratch/ahofstet/pseudo/O.pbe-n-kjpaw_psl.0.1.UPF
     MD5 check sum: 3f94a2996a3169367d6eb21d9b593f20
     Pseudo is Projector augmented-wave + core cor, Zval =  6.0
     Generated using "atomic" code by A. Dal Corso  v.5.0.99 svn rev. 10869
     Shape of augmentation charge: BESSEL
     Using radial grid of 1095 points,  4 beta functions with: 
                l(1) =   0
                l(2) =   0
                l(3) =   1
                l(4) =   1
     Q(r) pseudized with 0 coefficients 


     atomic species   valence    mass     pseudopotential
        C              4.00    12.01070      C( 1.00)
        N              5.00    14.00670      N( 1.00)
        H              1.00     1.00794      H( 1.00)
        O              6.00    15.99940      O( 1.00)

      2 Sym. Ops., with inversion, found



   Cartesian axes

     site n.     atom                  positions (alat units)
         1           O   tau(   1) = (   0.7450195   0.3215843   0.0196413  )
         2           O   tau(   2) = (   0.6006488   1.3549383   0.5189011  )
         3           O   tau(   3) = (  -0.0536681   1.7453234   1.0574538  )
         4           O   tau(   4) = (   0.0907026   0.7119694   0.5581939  )
         5           O   tau(   5) = (   0.7900834   0.4168805   0.3396804  )
         6           O   tau(   6) = (   0.5556005   1.4501483   0.1988414  )
         7           O   tau(   7) = (  -0.0987320   1.6500272   0.7374146  )
         8           O   tau(   8) = (   0.1357510   0.6167593   0.8782536  )
         9           O   tau(   9) = (   0.3300581   0.2739696   0.5758867  )
        10           O   tau(  10) = (   0.7069593   1.3073566   1.0397452  )
        11           O   tau(  11) = (   0.3612933   1.7929381   0.5012083  )
        12           O   tau(  12) = (  -0.0156079   0.7595511   0.0373498  )
        13           O   tau(  13) = (   0.1711819   0.0395898   0.8524969  )
        14           O   tau(  14) = (  -0.1341914   1.0730435   0.7631340  )
        15           O   tau(  15) = (   0.5201695   2.0273179   0.2245981  )
        16           O   tau(  16) = (   0.8255428   0.9938642   0.3139610  )
        17           N   tau(  17) = (   0.8676130   0.3496584   0.1976492  )
        18           N   tau(  18) = (   0.4780672   1.3829503   0.3408823  )
        19           N   tau(  19) = (  -0.1762616   1.7172493   0.8794458  )
        20           N   tau(  20) = (   0.2132842   0.6839574   0.7362127  )
        21           N   tau(  21) = (   0.5509493   0.2524316   0.9595844  )
        22           N   tau(  22) = (   0.4860706   1.2858060   0.6560639  )
        23           N   tau(  23) = (   0.1404021   1.8144761   0.1175107  )
        24           N   tau(  24) = (   0.2052808   0.7811017   0.4210311  )
        25           N   tau(  25) = (   0.1720433   0.2404244   0.4553740  )
        26           N   tau(  26) = (   0.1736145   1.2737300   0.0831215  )
        27           N   tau(  27) = (   0.5193081   1.8264832   0.6217210  )
        28           N   tau(  28) = (   0.5177369   0.7931776   0.9939735  )
        29           N   tau(  29) = (   0.3653427   0.4019070   0.2258422  )
        30           N   tau(  30) = (  -0.0196283   1.4352443   0.3126739  )
        31           N   tau(  31) = (   0.3260087   1.6650006   0.8512528  )
        32           N   tau(  32) = (   0.7109797   0.6316633   0.7644211  )
        33           N   tau(  33) = (   0.0334805   0.1058046   0.9850374  )
        34           N   tau(  34) = (   0.0035197   1.1392161   0.6305971  )
        35           N   tau(  35) = (   0.6578709   1.9611030   0.0920576  )
        36           N   tau(  36) = (   0.6878317   0.9276915   0.4464979  )
        37           N   tau(  37) = (  -0.1588723   0.1590852   0.7092422  )
        38           N   tau(  38) = (   0.1958634   1.1925004   0.9063882  )
        39           N   tau(  39) = (   0.8502238   1.9078224   0.3678528  )
        40           N   tau(  40) = (   0.4954880   0.8744072   0.1707068  )
        41           C   tau(  41) = (   0.0431856   0.2922201   0.1473790  )
        42           C   tau(  42) = (   0.3025003   1.3255021   0.3911473  )
        43           C   tau(  43) = (   0.6481658   1.7746876   0.9297160  )
        44           C   tau(  44) = (   0.3888511   0.7414056   0.6859477  )
        45           C   tau(  45) = (  -0.2741402   0.2347563   1.0279781  )
        46           C   tau(  46) = (   0.3111644   1.2680855   0.5876514  )
        47           C   tau(  47) = (   0.9654916   1.8321514   0.0491169  )
        48           C   tau(  48) = (   0.3801870   0.7988221   0.4894436  )
        49           C   tau(  49) = (   0.2040839   0.3072890   0.2840063  )
        50           C   tau(  50) = (   0.1415820   1.3406014   0.2545538  )
        51           C   tau(  51) = (   0.4872675   1.7596187   0.7930887  )
        52           C   tau(  52) = (   0.5497694   0.7263062   0.8225413  )
        53           C   tau(  53) = (  -0.1226593   0.1637094   0.8995033  )
        54           C   tau(  54) = (   0.1596771   1.1971159   0.7161389  )
        55           C   tau(  55) = (   0.8140107   1.9031983   0.1775918  )
        56           C   tau(  56) = (   0.5316743   0.8697918   0.3609561  )
        57           H   tau(  57) = (   0.4857207   0.3785995   0.3063392  )
        58           H   tau(  58) = (   0.8599822   1.4119725   0.2322108  )
        59           H   tau(  59) = (   0.2056307   1.6883081   0.7707558  )
        60           H   tau(  60) = (  -0.1686308   0.6549352   0.8448842  )
        61           H   tau(  61) = (  -0.0462430   0.1535048   0.6132631  )
        62           H   tau(  62) = (   0.0832371   1.1869322   1.0023702  )
        63           H   tau(  63) = (   0.7375944   1.9134029   0.4638319  )
        64           H   tau(  64) = (   0.6081143   0.8799755   0.0747249  )
        65           H   tau(  65) = (   0.3915162   0.4064425   0.0824257  )
        66           H   tau(  66) = (  -0.0458029   1.4397724   0.4561290  )
        67           H   tau(  67) = (   0.2998352   1.6604652   0.9946693  )
        68           H   tau(  68) = (   0.7371543   0.6271352   0.6209660  )
        69           H   tau(  69) = (   0.7207317   0.2261682   0.6617161  )
        70           H   tau(  70) = (   0.3162803   1.2595653   0.9539207  )
        71           H   tau(  71) = (  -0.0293803   1.8407395   0.4153789  )
        72           H   tau(  72) = (   0.3750711   0.8073424   0.1231743  )
        73           H   tau(  73) = (   0.2937937   0.2012058   0.6927591  )
        74           H   tau(  74) = (   0.7432101   1.2346198   0.9228473  )
        75           H   tau(  75) = (   0.3975577   1.8657019   0.3843359  )
        76           H   tau(  76) = (  -0.0518587   0.8322879   0.1542477  )
        77           H   tau(  77) = (   0.2669671   2.0464370   0.9419137  )
        78           H   tau(  78) = (  -0.2299720   1.0129786   0.6737075  )
        79           H   tau(  79) = (   0.4243843   0.0204707   0.1351813  )
        80           H   tau(  80) = (   0.9213234   1.0539291   0.4033875  )

     number of k points=    10
                       cart. coord. in units 2pi/alat
        k(    1) = (   0.0000000   0.0000000   0.0000000), wk =   0.1111111
        k(    2) = (   0.0000000   0.0000000   0.3094744), wk =   0.2222222
        k(    3) = (   0.0000000  -0.2419073   0.0000000), wk =   0.1111111
        k(    4) = (   0.0000000  -0.2419073   0.3094744), wk =   0.2222222
        k(    5) = (   0.3333333   0.0000000   0.0955188), wk =   0.2222222
        k(    6) = (   0.3333333   0.0000000   0.4049932), wk =   0.2222222
        k(    7) = (   0.3333333   0.0000000  -0.2139556), wk =   0.2222222
        k(    8) = (   0.3333333  -0.2419073   0.0955188), wk =   0.2222222
        k(    9) = (   0.3333333  -0.2419073   0.4049932), wk =   0.2222222
        k(   10) = (   0.3333333  -0.2419073  -0.2139556), wk =   0.2222222

     Dense  grid:   687275 G-vectors     FFT dimensions: (  90, 180,  96)

     Estimated max dynamical RAM per process >     717.28MB

     Estimated total allocated dynamical RAM >    5738.26MB

     Check: negative/imaginary core charge=   -0.000002    0.000000

     Initial potential from superposition of free atoms

     starting charge  303.99891, renormalised to  304.00000
     Starting wfc are  248 randomized atomic wfcs
     Checking if some PAW data can be deallocated... 

     total cpu time spent up to now is       45.9 secs

     per-process dynamical memory:   506.4 Mb

     Self-consistent Calculation

     iteration #  1     ecut=   100.00 Ry     beta=0.50
     Davidson diagonalization with overlap
     ethr =  1.00E-02,  avg # of iterations =  3.0

     total cpu time spent up to now is      175.6 secs

     total energy              =   -1664.10184536 Ry
     Harris-Foulkes estimate   =   -1668.09591086 Ry
     estimated scf accuracy    <       7.44367735 Ry

     iteration #  2     ecut=   100.00 Ry     beta=0.50
     Davidson diagonalization with overlap
     ethr =  2.45E-03,  avg # of iterations =  3.0

     total cpu time spent up to now is      269.4 secs

     total energy              =   -1665.28400326 Ry
     Harris-Foulkes estimate   =   -1666.11355925 Ry
     estimated scf accuracy    <       1.74330130 Ry

     iteration #  3     ecut=   100.00 Ry     beta=0.50
     Davidson diagonalization with overlap
     ethr =  5.73E-04,  avg # of iterations =  4.6

     total cpu time spent up to now is      361.9 secs

     total energy              =   -1665.64839962 Ry
     Harris-Foulkes estimate   =   -1665.79775608 Ry
     estimated scf accuracy    <       0.37743886 Ry

     iteration #  4     ecut=   100.00 Ry     beta=0.50
     Davidson diagonalization with overlap
     ethr =  1.24E-04,  avg # of iterations =  8.7

     total cpu time spent up to now is      461.9 secs

     total energy              =   -1665.70995093 Ry
     Harris-Foulkes estimate   =   -1665.74727917 Ry
     estimated scf accuracy    <       0.09744984 Ry

     iteration #  5     ecut=   100.00 Ry     beta=0.50
     Davidson diagonalization with overlap
     ethr =  3.21E-05,  avg # of iterations =  7.8

     total cpu time spent up to now is      558.5 secs

     total energy              =   -1665.72797381 Ry
     Harris-Foulkes estimate   =   -1665.73987106 Ry
     estimated scf accuracy    <       0.03396762 Ry

     iteration #  6     ecut=   100.00 Ry     beta=0.50
     Davidson diagonalization with overlap
     c_bands:  1 eigenvalues not converged
     c_bands:  1 eigenvalues not converged
     ethr =  1.12E-05,  avg # of iterations =  8.8

     total cpu time spent up to now is      647.0 secs

     total energy              =   -1665.73478718 Ry
     Harris-Foulkes estimate   =   -1665.73616604 Ry
     estimated scf accuracy    <       0.00415176 Ry

     iteration #  7     ecut=   100.00 Ry     beta=0.50
     Davidson diagonalization with overlap
     ethr =  1.37E-06,  avg # of iterations =  9.6

     total cpu time spent up to now is      796.1 secs

     total energy              =   -1665.73608874 Ry
     Harris-Foulkes estimate   =   -1665.73640561 Ry
     estimated scf accuracy    <       0.00086056 Ry

     iteration #  8     ecut=   100.00 Ry     beta=0.50
     Davidson diagonalization with overlap
     ethr =  2.83E-07,  avg # of iterations =  2.0

     total cpu time spent up to now is      870.9 secs

     total energy              =   -1665.73621749 Ry
     Harris-Foulkes estimate   =   -1665.73626621 Ry
     estimated scf accuracy    <       0.00016235 Ry

     iteration #  9     ecut=   100.00 Ry     beta=0.50
     Davidson diagonalization with overlap
     ethr =  5.34E-08,  avg # of iterations =  3.0

     total cpu time spent up to now is      973.6 secs

     total energy              =   -1665.73626026 Ry
     Harris-Foulkes estimate   =   -1665.73628708 Ry
     estimated scf accuracy    <       0.00007543 Ry

     iteration # 10     ecut=   100.00 Ry     beta=0.50
     Davidson diagonalization with overlap
     ethr =  2.48E-08,  avg # of iterations =  2.0

     total cpu time spent up to now is     1046.6 secs

     total energy              =   -1665.73627079 Ry
     Harris-Foulkes estimate   =   -1665.73627680 Ry
     estimated scf accuracy    <       0.00001714 Ry

     iteration # 11     ecut=   100.00 Ry     beta=0.50
     Davidson diagonalization with overlap
     ethr =  5.64E-09,  avg # of iterations =  3.0

     total cpu time spent up to now is     1131.2 secs

     total energy              =   -1665.73627488 Ry
     Harris-Foulkes estimate   =   -1665.73627535 Ry
     estimated scf accuracy    <       0.00000193 Ry

     iteration # 12     ecut=   100.00 Ry     beta=0.50
     Davidson diagonalization with overlap
     ethr =  6.35E-10,  avg # of iterations =  3.0

     total cpu time spent up to now is     1242.2 secs

     total energy              =   -1665.73627545 Ry
     Harris-Foulkes estimate   =   -1665.73627565 Ry
     estimated scf accuracy    <       0.00000064 Ry

     iteration # 13     ecut=   100.00 Ry     beta=0.50
     Davidson diagonalization with overlap
     ethr =  2.10E-10,  avg # of iterations =  1.0

     total cpu time spent up to now is     1309.9 secs

     total energy              =   -1665.73627550 Ry
     Harris-Foulkes estimate   =   -1665.73627554 Ry
     estimated scf accuracy    <       0.00000011 Ry

     iteration # 14     ecut=   100.00 Ry     beta=0.50
     Davidson diagonalization with overlap
     ethr =  3.73E-11,  avg # of iterations =  4.0

     total cpu time spent up to now is     1442.3 secs

     total energy              =   -1665.73627555 Ry
     Harris-Foulkes estimate   =   -1665.73627557 Ry
     estimated scf accuracy    <       0.00000006 Ry

     iteration # 15     ecut=   100.00 Ry     beta=0.50
     Davidson diagonalization with overlap
     ethr =  2.03E-11,  avg # of iterations =  1.0

     total cpu time spent up to now is     1510.7 secs

     total energy              =   -1665.73627555 Ry
     Harris-Foulkes estimate   =   -1665.73627555 Ry
     estimated scf accuracy    <       0.00000002 Ry

     iteration # 16     ecut=   100.00 Ry     beta=0.50
     Davidson diagonalization with overlap
     ethr =  6.39E-12,  avg # of iterations =  3.0

     total cpu time spent up to now is     1631.4 secs

     End of self-consistent calculation

          k = 0.0000 0.0000 0.0000 ( 85895 PWs)   bands (ev):

   -23.0863 -23.0838 -23.0744 -23.0720 -21.0508 -21.0463 -21.0341 -21.0298
   -19.8073 -19.8070 -19.5261 -19.5251 -19.3393 -19.3373 -19.3028 -19.3021
   -16.2602 -16.2478 -16.2384 -16.2231 -15.9507 -15.9131 -15.8913 -15.8517
   -14.9340 -14.9285 -14.9075 -14.8978 -14.1372 -14.1345 -14.1026 -14.0992
   -13.3653 -13.3614 -13.2061 -13.1928 -12.9969 -12.9836 -12.9796 -12.9599
    -9.7896  -9.7840  -9.7550  -9.7501  -9.2738  -9.2668  -9.2507  -9.2421
    -7.7595  -7.7518  -7.7106  -7.6984  -7.2170  -7.1799  -7.1499  -7.1149
    -6.4310  -6.4113  -6.2619  -6.2059  -6.1516  -6.1027  -5.9996  -5.9736
    -5.9058  -5.9033  -5.8475  -5.7730  -5.7151  -5.6749  -5.6092  -5.6088
    -5.4034  -5.3905  -5.3716  -5.3402  -5.0495  -4.9993  -4.9519  -4.8795
    -4.6941  -4.6814  -4.2842  -4.2585  -4.2318  -4.2126  -3.9852  -3.9202
    -3.6455  -3.5876  -3.4772  -3.3977  -3.2760  -3.2207  -3.2068  -3.1756
    -3.1331  -3.1228  -3.0786  -3.0412  -2.9217  -2.8526  -2.8435  -2.8391
    -2.6808  -2.6600  -2.6493  -2.6445  -2.5555  -2.5338  -2.5102  -2.4314
    -1.7531  -1.7266  -1.7101  -1.6784  -1.1916  -1.1704  -1.0751  -0.9929
    -0.6032  -0.5443  -0.3944  -0.3586  -0.3279  -0.3035   0.0550   0.0921
     0.1208   0.1788   0.2326   0.2615   0.3177   0.3575   0.7620   0.7893
     0.8050   0.8559   0.9520   0.9540   1.1454   1.2250   1.2523   1.2752
     2.0186   2.0526   2.1689   2.1950   2.3962   2.4272   2.4354   2.4644
     4.6865   4.6954   4.7375   4.7462   5.5643   5.7050   5.7441   5.8712
     6.2247   6.2249   6.3206   6.3252   7.2216   7.2363   7.2843   7.2902
     7.4541   7.8090   8.0033   8.0617   8.4193   8.4960   8.5324   8.5575
     8.7863   8.8733   9.4382   9.4518   9.5024   9.5676

          k = 0.0000 0.0000 0.3095 ( 85900 PWs)   bands (ev):

   -23.0831 -23.0806 -23.0771 -23.0747 -21.0478 -21.0432 -21.0394 -21.0349
   -19.7940 -19.7937 -19.5388 -19.5383 -19.3450 -19.3440 -19.3001 -19.2997
   -16.2313 -16.2205 -16.2202 -16.2039 -15.9391 -15.9228 -15.9075 -15.8902
   -14.9282 -14.9153 -14.9151 -14.8991 -14.1390 -14.1384 -14.1186 -14.1182
   -13.4084 -13.4065 -13.2149 -13.2111 -12.9769 -12.9686 -12.9575 -12.9444
    -9.7794  -9.7711  -9.7641  -9.7549  -9.2375  -9.2363  -9.2129  -9.2104
    -7.7650  -7.7464  -7.6088  -7.5856  -7.2532  -7.2279  -7.1997  -7.1766
    -6.5255  -6.5074  -6.3192  -6.2870  -6.2007  -6.1532  -6.1451  -6.0787
    -5.9287  -5.8787  -5.7852  -5.7348  -5.6760  -5.6118  -5.5056  -5.4109
    -5.3338  -5.2959  -5.2831  -5.2499  -5.0408  -5.0198  -4.9668  -4.9283
    -4.7225  -4.6767  -4.5350  -4.4780  -4.1729  -4.1411  -3.7838  -3.7476
    -3.6914  -3.6510  -3.4990  -3.4772  -3.4051  -3.4008  -3.2459  -3.2415
    -3.1852  -3.1792  -3.0343  -3.0173  -2.8806  -2.8296  -2.7288  -2.7203
    -2.7175  -2.6920  -2.6122  -2.5918  -2.5803  -2.5566  -2.5022  -2.4771
    -1.6538  -1.6277  -1.6060  -1.6056  -1.2416  -1.2075  -1.0893  -1.0767
    -0.5225  -0.4523  -0.4482  -0.3642  -0.2980  -0.2933  -0.0244   0.0403
     0.1010   0.1116   0.2741   0.3158   0.3324   0.3423   0.7530   0.7649
     0.8313   0.8481   0.9631   0.9722   1.2188   1.2549   1.2721   1.2845
     2.0094   2.0596   2.0988   2.1335   2.3889   2.4351   2.4479   2.4791
     4.7060   4.7261   4.7281   4.7577   5.5760   5.6625   5.6841   5.7463
     6.2544   6.2666   6.3195   6.3315   7.2251   7.2546   7.3318   7.3352
     7.3992   7.6300   8.0926   8.2523   8.4150   8.6029   8.7322   8.8082
     8.9549   8.9977   9.0134   9.2564   9.3434   9.4346

          k = 0.0000-0.2419 0.0000 ( 85902 PWs)   bands (ev):

   -23.0852 -23.0852 -23.0730 -23.0730 -21.0489 -21.0488 -21.0317 -21.0316
   -19.8073 -19.8070 -19.5256 -19.5256 -19.3383 -19.3383 -19.3025 -19.3024
   -16.2560 -16.2559 -16.2288 -16.2286 -15.9379 -15.9375 -15.8659 -15.8656
   -14.9318 -14.9317 -14.9022 -14.9021 -14.1361 -14.1358 -14.1010 -14.1006
   -13.3639 -13.3629 -13.2002 -13.1987 -12.9941 -12.9919 -12.9679 -12.9658
    -9.7870  -9.7870  -9.7524  -9.7523  -9.2710  -9.2707  -9.2459  -9.2457
    -7.7561  -7.7560  -7.7041  -7.7041  -7.2031  -7.2029  -7.1279  -7.1277
    -6.4222  -6.4220  -6.2372  -6.2369  -6.1232  -6.1229  -5.9916  -5.9916
    -5.9059  -5.9053  -5.7918  -5.7917  -5.7188  -5.7188  -5.5989  -5.5987
    -5.3967  -5.3965  -5.3551  -5.3547  -5.0342  -5.0341  -4.9053  -4.9052
    -4.6891  -4.6885  -4.2780  -4.2776  -4.2166  -4.2162  -3.9530  -3.9528
    -3.6138  -3.6137  -3.4459  -3.4458  -3.2367  -3.2363  -3.2035  -3.2030
    -3.1272  -3.1264  -3.0621  -3.0619  -2.8800  -2.8798  -2.8273  -2.8269
    -2.7008  -2.7004  -2.6405  -2.6401  -2.5343  -2.5339  -2.4727  -2.4719
    -1.7429  -1.7428  -1.6907  -1.6906  -1.1832  -1.1829  -1.0324  -1.0322
    -0.5834  -0.5830  -0.3695  -0.3694  -0.3093  -0.3091   0.0885   0.0888
     0.1193   0.1196   0.2601   0.2604   0.3354   0.3355   0.7724   0.7728
     0.8326   0.8330   0.9525   0.9532   1.1817   1.1818   1.2688   1.2689
     2.0269   2.0275   2.1982   2.1986   2.3837   2.3850   2.4686   2.4699
     4.6922   4.6922   4.7404   4.7404   5.6127   5.6128   5.8301   5.8302
     6.2250   6.2250   6.3227   6.3228   7.2348   7.2351   7.2583   7.2585
     7.6344   7.6352   8.0611   8.0616   8.3960   8.3960   8.5842   8.5842
     8.8257   8.8260   9.4927   9.4928   9.5518   9.5519

          k = 0.0000-0.2419 0.3095 ( 85862 PWs)   bands (ev):

   -23.0821 -23.0821 -23.0757 -23.0757 -21.0461 -21.0460 -21.0367 -21.0365
   -19.7940 -19.7937 -19.5386 -19.5385 -19.3445 -19.3445 -19.2999 -19.2999
   -16.2287 -16.2285 -16.2094 -16.2092 -15.9332 -15.9329 -15.8969 -15.8966
   -14.9248 -14.9245 -14.9044 -14.9040 -14.1389 -14.1386 -14.1186 -14.1182
   -13.4080 -13.4069 -13.2139 -13.2122 -12.9753 -12.9722 -12.9513 -12.9485
    -9.7764  -9.7763  -9.7584  -9.7584  -9.2371  -9.2368  -9.2118  -9.2115
    -7.7564  -7.7563  -7.5966  -7.5965  -7.2433  -7.2432  -7.1855  -7.1854
    -6.5172  -6.5169  -6.3086  -6.3085  -6.1552  -6.1551  -6.1285  -6.1282
    -5.9169  -5.9167  -5.7336  -5.7335  -5.6640  -5.6639  -5.4513  -5.4512
    -5.3228  -5.3226  -5.2591  -5.2589  -5.0330  -5.0326  -4.9447  -4.9446
    -4.7012  -4.7011  -4.5057  -4.5055  -4.1564  -4.1560  -3.7697  -3.7696
    -3.6653  -3.6652  -3.4910  -3.4909  -3.4029  -3.4026  -3.2330  -3.2327
    -3.1967  -3.1963  -3.0254  -3.0252  -2.8394  -2.8391  -2.7309  -2.7308
    -2.7064  -2.7060  -2.6266  -2.6261  -2.5482  -2.5476  -2.4906  -2.4905
    -1.6420  -1.6419  -1.6048  -1.6047  -1.2205  -1.2202  -1.0894  -1.0891
    -0.4954  -0.4952  -0.3947  -0.3943  -0.3001  -0.2999   0.0078   0.0080
     0.1116   0.1118   0.2859   0.2859   0.3450   0.3452   0.7591   0.7595
     0.8381   0.8387   0.9671   0.9678   1.2333   1.2334   1.2817   1.2818
     2.0302   2.0309   2.1176   2.1183   2.4084   2.4097   2.4678   2.4693
     4.7119   4.7120   4.7469   4.7470   5.6066   5.6068   5.7278   5.7281
     6.2599   6.2600   6.3258   6.3258   7.2347   7.2349   7.3337   7.3341
     7.5221   7.5236   8.1372   8.1383   8.5228   8.5238   8.7403   8.7409
     8.9511   8.9516   9.2398   9.2409   9.3297   9.3303

          k = 0.3333 0.0000 0.0955 ( 85984 PWs)   bands (ev):

   -23.0826 -23.0805 -23.0766 -23.0746 -21.0453 -21.0422 -21.0369 -21.0340
   -19.8103 -19.8100 -19.5272 -19.5266 -19.3402 -19.3393 -19.3037 -19.3034
   -16.3071 -16.3002 -16.2285 -16.2177 -15.9422 -15.9198 -15.9062 -15.8778
   -14.8597 -14.8551 -14.8487 -14.8422 -14.1315 -14.1298 -14.0986 -14.0965
   -13.3814 -13.3793 -13.1775 -13.1726 -13.0180 -13.0100 -13.0059 -12.9944
    -9.7723  -9.7571  -9.7343  -9.7170  -9.3658  -9.3649  -9.3498  -9.3467
    -7.7582  -7.7561  -7.6628  -7.6592  -7.1960  -7.1819  -7.1615  -7.1494
    -6.3623  -6.3486  -6.2118  -6.1702  -6.1466  -6.1152  -5.9303  -5.9111
    -5.8736  -5.8022  -5.7779  -5.6857  -5.6087  -5.5785  -5.5714  -5.5117
    -5.4518  -5.3920  -5.3860  -5.3657  -5.2205  -5.1913  -5.1056  -5.0534
    -4.8723  -4.8639  -4.4004  -4.3675  -4.2032  -4.1895  -3.9518  -3.9229
    -3.6249  -3.5861  -3.4948  -3.4792  -3.2568  -3.1942  -3.1926  -3.1784
    -3.1335  -3.1193  -2.8965  -2.8514  -2.8495  -2.7859  -2.7280  -2.7165
    -2.6742  -2.6720  -2.6505  -2.6291  -2.5692  -2.5585  -2.5147  -2.4711
    -1.6911  -1.6761  -1.6682  -1.6678  -1.3673  -1.3558  -0.9578  -0.9188
    -0.5992  -0.5101  -0.4982  -0.4138  -0.3337  -0.3203   0.0925   0.1060
     0.1811   0.2041   0.3081   0.3164   0.3418   0.3507   0.7830   0.7966
     0.8238   0.8485   0.9199   0.9207   1.1825   1.2359   1.2378   1.2932
     2.0229   2.0653   2.0872   2.1545   2.3167   2.3515   2.4634   2.4658
     4.6988   4.7133   4.7220   4.7490   5.6300   5.7158   5.7720   5.8707
     6.1844   6.2057   6.2069   6.2121   7.2089   7.2733   7.3171   7.3376
     7.6902   8.0704   8.0926   8.1636   8.3101   8.4087   8.4930   8.5008
     8.8920   8.8992   8.9510   9.0897   9.4174   9.4280

          k = 0.3333 0.0000 0.4050 ( 85971 PWs)   bands (ev):

   -23.0819 -23.0799 -23.0769 -23.0749 -21.0453 -21.0424 -21.0383 -21.0351
   -19.7979 -19.7975 -19.5392 -19.5387 -19.3468 -19.3449 -19.3023 -19.3007
   -16.2790 -16.2593 -16.2105 -16.1898 -15.9681 -15.9486 -15.9249 -15.9051
   -14.8545 -14.8478 -14.8415 -14.8352 -14.1365 -14.1296 -14.1199 -14.1128
   -13.3951 -13.3920 -13.1984 -13.1899 -13.0104 -12.9992 -12.9823 -12.9742
    -9.7849  -9.7690  -9.7556  -9.7375  -9.3314  -9.3294  -9.3077  -9.3052
    -7.7545  -7.7414  -7.6326  -7.6234  -7.2369  -7.2295  -7.1729  -7.1690
    -6.5003  -6.4382  -6.3308  -6.2191  -6.1179  -6.0675  -6.0592  -6.0124
    -5.8552  -5.7652  -5.7427  -5.7328  -5.6829  -5.5753  -5.5409  -5.4402
    -5.3622  -5.3284  -5.2974  -5.2807  -5.1724  -5.1427  -5.1337  -5.0602
    -4.7747  -4.7380  -4.3923  -4.3750  -4.1312  -4.1169  -3.8239  -3.8136
    -3.5965  -3.5616  -3.5279  -3.5220  -3.4664  -3.4418  -3.2937  -3.2721
    -3.1861  -3.1793  -2.9565  -2.9008  -2.8350  -2.8267  -2.6885  -2.6733
    -2.6664  -2.6578  -2.6165  -2.5745  -2.5668  -2.5161  -2.4491  -2.4076
    -1.6771  -1.6655  -1.6650  -1.6424  -1.4119  -1.3307  -0.9884  -0.9631
    -0.5895  -0.5275  -0.4715  -0.4220  -0.2865  -0.2368  -0.0312   0.0654
     0.1101   0.1885   0.2981   0.3163   0.3396   0.3931   0.7594   0.7657
     0.8051   0.8565   0.9649   0.9673   1.2060   1.2409   1.3047   1.3519
     1.8956   1.9876   2.1573   2.1790   2.3316   2.4146   2.4419   2.4930
     4.7211   4.7326   4.7600   4.7712   5.5865   5.6496   5.6660   5.7350
     6.1982   6.2025   6.2285   6.2330   7.2567   7.3192   7.3209   7.3801
     7.7710   7.8348   8.2105   8.2478   8.2832   8.4404   8.5974   8.6670
     8.7952   8.8026   9.0039   9.0813   9.3391   9.4025

          k = 0.3333 0.0000-0.2140 ( 85947 PWs)   bands (ev):

   -23.0849 -23.0829 -23.0740 -23.0720 -21.0492 -21.0462 -21.0338 -21.0307
   -19.7988 -19.7983 -19.5379 -19.5378 -19.3473 -19.3444 -19.3029 -19.3009
   -16.2773 -16.2460 -16.2202 -16.1864 -15.9934 -15.9471 -15.9417 -15.8923
   -14.8450 -14.8430 -14.8415 -14.8408 -14.1407 -14.1335 -14.1217 -14.1151
   -13.3662 -13.3615 -13.2103 -13.1987 -13.0062 -13.0010 -12.9705 -12.9631
    -9.8239  -9.8043  -9.7937  -9.7710  -9.3137  -9.3126  -9.2948  -9.2905
    -7.7085  -7.7012  -7.6611  -7.6573  -7.2579  -7.2317  -7.2285  -7.2197
    -6.5080  -6.4683  -6.3425  -6.1977  -6.0923  -6.0762  -6.0566  -5.9713
    -5.8109  -5.8091  -5.7091  -5.7011  -5.6449  -5.5311  -5.5192  -5.4673
    -5.3037  -5.3016  -5.2515  -5.2306  -5.1672  -5.1337  -5.1054  -5.0908
    -4.8470  -4.8121  -4.4603  -4.4016  -4.1215  -4.0836  -3.8647  -3.8389
    -3.6262  -3.5792  -3.4972  -3.4791  -3.3813  -3.3520  -3.2818  -3.2590
    -3.1650  -3.0920  -2.9392  -2.8777  -2.8320  -2.7618  -2.7340  -2.6866
    -2.6852  -2.6491  -2.6359  -2.5789  -2.5643  -2.5400  -2.4540  -2.4411
    -1.7559  -1.7540  -1.7496  -1.7336  -1.4092  -1.3388  -0.9541  -0.8917
    -0.6429  -0.5443  -0.5261  -0.3777  -0.2918  -0.2112  -0.0758   0.0313
     0.1058   0.1880   0.3055   0.3195   0.3498   0.4068   0.7517   0.7631
     0.8201   0.8525   0.9761   0.9846   1.1750   1.2131   1.3337   1.3732
     1.8828   1.9532   2.1803   2.2273   2.3772   2.4149   2.4370   2.4827
     4.7254   4.7366   4.7516   4.7739   5.5234   5.6046   5.6717   5.7394
     6.1803   6.1938   6.2548   6.2613   7.2021   7.3295   7.3541   7.3789
     7.6291   7.9365   8.1119   8.2180   8.2439   8.5194   8.6329   8.6593
     8.8640   8.9774   9.0496   9.0927   9.3959   9.3991

          k = 0.3333-0.2419 0.0955 ( 85978 PWs)   bands (ev):

   -23.0817 -23.0817 -23.0754 -23.0754 -21.0440 -21.0440 -21.0352 -21.0351
   -19.8103 -19.8100 -19.5269 -19.5269 -19.3398 -19.3397 -19.3036 -19.3035
   -16.3040 -16.3036 -16.2232 -16.2229 -15.9348 -15.9343 -15.8886 -15.8881
   -14.8581 -14.8578 -14.8450 -14.8447 -14.1308 -14.1305 -14.0977 -14.0973
   -13.3809 -13.3798 -13.1757 -13.1743 -13.0172 -13.0143 -12.9999 -12.9971
    -9.7663  -9.7663  -9.7241  -9.7240  -9.3655  -9.3653  -9.3484  -9.3481
    -7.7572  -7.7572  -7.6610  -7.6609  -7.1904  -7.1903  -7.1542  -7.1541
    -6.3559  -6.3558  -6.1945  -6.1944  -6.1279  -6.1276  -5.9187  -5.9182
    -5.8542  -5.8539  -5.7161  -5.7161  -5.6020  -5.6019  -5.5363  -5.5361
    -5.4248  -5.4246  -5.3723  -5.3721  -5.2070  -5.2069  -5.0777  -5.0776
    -4.8686  -4.8680  -4.3847  -4.3843  -4.1951  -4.1947  -3.9390  -3.9386
    -3.6032  -3.6032  -3.4893  -3.4892  -3.2261  -3.2259  -3.1840  -3.1836
    -3.1257  -3.1251  -2.8724  -2.8721  -2.8225  -2.8224  -2.7252  -2.7248
    -2.6726  -2.6721  -2.6465  -2.6461  -2.5506  -2.5500  -2.4965  -2.4963
    -1.6843  -1.6841  -1.6677  -1.6674  -1.3595  -1.3591  -0.9443  -0.9442
    -0.5669  -0.5664  -0.4348  -0.4345  -0.3322  -0.3319   0.1000   0.1001
     0.1915   0.1917   0.3124   0.3125   0.3462   0.3463   0.7884   0.7890
     0.8368   0.8372   0.9198   0.9205   1.2083   1.2084   1.2665   1.2667
     2.0425   2.0431   2.1100   2.1106   2.3555   2.3568   2.4541   2.4555
     4.7034   4.7034   4.7380   4.7381   5.6606   5.6608   5.8331   5.8332
     6.1953   6.1954   6.2094   6.2095   7.2410   7.2412   7.3238   7.3241
     7.8387   7.8399   8.1658   8.1668   8.3677   8.3682   8.4638   8.4651
     8.8875   8.8879   9.0657   9.0662   9.4659   9.4668

          k = 0.3333-0.2419 0.4050 ( 85902 PWs)   bands (ev):

   -23.0811 -23.0811 -23.0757 -23.0757 -21.0442 -21.0441 -21.0365 -21.0364
   -19.7978 -19.7975 -19.5390 -19.5389 -19.3459 -19.3459 -19.3015 -19.3014
   -16.2707 -16.2703 -16.1990 -16.1988 -15.9604 -15.9598 -15.9134 -15.9129
   -14.8520 -14.8517 -14.8378 -14.8375 -14.1339 -14.1336 -14.1158 -14.1155
   -13.3941 -13.3930 -13.1950 -13.1933 -13.0062 -13.0050 -12.9779 -12.9770
    -9.7792  -9.7791  -9.7444  -9.7443  -9.3305  -9.3303  -9.3066  -9.3064
    -7.7482  -7.7482  -7.6277  -7.6277  -7.2334  -7.2333  -7.1709  -7.1708
    -6.4766  -6.4764  -6.2687  -6.2685  -6.1114  -6.1112  -6.0175  -6.0173
    -5.8091  -5.8088  -5.7156  -5.7155  -5.6830  -5.6829  -5.4500  -5.4497
    -5.3438  -5.3435  -5.3057  -5.3053  -5.1633  -5.1632  -5.0853  -5.0850
    -4.7574  -4.7573  -4.3837  -4.3835  -4.1238  -4.1236  -3.8193  -3.8192
    -3.5737  -3.5736  -3.5335  -3.5335  -3.4522  -3.4520  -3.2802  -3.2797
    -3.1876  -3.1873  -2.9249  -2.9244  -2.8241  -2.8238  -2.6871  -2.6870
    -2.6518  -2.6515  -2.6277  -2.6273  -2.5194  -2.5190  -2.4309  -2.4307
    -1.6751  -1.6749  -1.6493  -1.6492  -1.3754  -1.3749  -0.9739  -0.9738
    -0.5545  -0.5539  -0.4535  -0.4529  -0.2596  -0.2594   0.0053   0.0054
     0.1621   0.1621   0.3040   0.3040   0.3707   0.3708   0.7616   0.7621
     0.8304   0.8310   0.9660   0.9667   1.2207   1.2208   1.3310   1.3311
     1.9332   1.9340   2.1711   2.1717   2.3760   2.3771   2.4681   2.4692
     4.7262   4.7263   4.7660   4.7661   5.6066   5.6068   5.7118   5.7120
     6.2004   6.2004   6.2306   6.2306   7.2800   7.2801   7.3577   7.3580
     7.8177   7.8194   8.2016   8.2022   8.3763   8.3770   8.6190   8.6198
     8.8027   8.8032   8.9920   8.9926   9.4559   9.4566

          k = 0.3333-0.2419-0.2140 ( 85964 PWs)   bands (ev):

   -23.0840 -23.0840 -23.0729 -23.0729 -21.0478 -21.0478 -21.0321 -21.0321
   -19.7987 -19.7984 -19.5379 -19.5378 -19.3459 -19.3459 -19.3019 -19.3019
   -16.2660 -16.2657 -16.1992 -16.1990 -15.9797 -15.9793 -15.9079 -15.9076
   -14.8443 -14.8437 -14.8414 -14.8408 -14.1379 -14.1376 -14.1180 -14.1176
   -13.3645 -13.3633 -13.2052 -13.2037 -13.0042 -13.0036 -12.9668 -12.9662
    -9.8173  -9.8172  -9.7792  -9.7792  -9.3132  -9.3130  -9.2928  -9.2926
    -7.7051  -7.7050  -7.6591  -7.6590  -7.2478  -7.2476  -7.2213  -7.2211
    -6.4926  -6.4924  -6.2790  -6.2788  -6.0710  -6.0708  -6.0192  -6.0189
    -5.7867  -5.7864  -5.7280  -5.7279  -5.6035  -5.6034  -5.4738  -5.4736
    -5.3037  -5.3035  -5.2408  -5.2407  -5.1480  -5.1479  -5.0993  -5.0991
    -4.8316  -4.8314  -4.4314  -4.4312  -4.1009  -4.1005  -3.8531  -3.8530
    -3.6053  -3.6052  -3.4832  -3.4831  -3.3674  -3.3672  -3.2728  -3.2721
    -3.1321  -3.1316  -2.9038  -2.9033  -2.7968  -2.7966  -2.7107  -2.7105
    -2.6584  -2.6581  -2.6257  -2.6257  -2.5506  -2.5503  -2.4401  -2.4400
    -1.7550  -1.7549  -1.7410  -1.7409  -1.3785  -1.3780  -0.9200  -0.9198
    -0.6130  -0.6126  -0.4409  -0.4405  -0.2425  -0.2422  -0.0321  -0.0320
     0.1559   0.1560   0.3067   0.3068   0.3837   0.3840   0.7591   0.7597
     0.8344   0.8351   0.9809   0.9816   1.1903   1.1903   1.3564   1.3565
     1.9110   1.9118   2.2160   2.2165   2.3813   2.3826   2.4677   2.4685
     4.7291   4.7292   4.7644   4.7646   5.5553   5.5554   5.7139   5.7141
     6.1873   6.1873   6.2579   6.2580   7.2526   7.2528   7.3782   7.3783
     7.7607   7.7621   8.1581   8.1593   8.3989   8.3997   8.6297   8.6310
     8.9705   8.9715   9.0533   9.0543   9.3560   9.3562

     highest occupied, lowest unoccupied level (ev):     2.4930    4.6865

!    total energy              =   -1665.73627555 Ry
     Harris-Foulkes estimate   =   -1665.73627556 Ry
     estimated scf accuracy    <          3.8E-09 Ry

     total all-electron energy =     -6282.683300 Ry

     The total energy is the sum of the following terms:

     one-electron contribution =    -759.17226482 Ry
     hartree contribution      =     509.46437498 Ry
     xc contribution           =    -331.05794052 Ry
     ewald contribution        =    -627.06847488 Ry
     Dispersion Correction     =      -0.40297969 Ry
     one-center paw contrib.   =    -457.49899061 Ry

     convergence has been achieved in  16 iterations

     Forces acting on atoms (cartesian axes, Ry/au):

     atom    1 type  4   force =     0.00406190    0.00212720    0.00364153
     atom    2 type  4   force =    -0.00405782    0.00211083   -0.00365172
     atom    3 type  4   force =    -0.00406190   -0.00212720   -0.00364153
     atom    4 type  4   force =     0.00405782   -0.00211083    0.00365172
     atom    5 type  4   force =     0.00125623   -0.00277958   -0.00032577
     atom    6 type  4   force =    -0.00124496   -0.00276629    0.00031611
     atom    7 type  4   force =    -0.00125623    0.00277958    0.00032577
     atom    8 type  4   force =     0.00124496    0.00276629   -0.00031611
     atom    9 type  4   force =    -0.00219524   -0.00165649   -0.00107514
     atom   10 type  4   force =     0.00215078   -0.00168309    0.00096991
     atom   11 type  4   force =     0.00219524    0.00165649    0.00107514
     atom   12 type  4   force =    -0.00215078    0.00168309   -0.00096991
     atom   13 type  4   force =     0.00075963   -0.00237680    0.00203674
     atom   14 type  4   force =    -0.00078088   -0.00240171   -0.00202338
     atom   15 type  4   force =    -0.00075963    0.00237680   -0.00203674
     atom   16 type  4   force =     0.00078088    0.00240171    0.00202338
     atom   17 type  2   force =    -0.00538608    0.00151753    0.00162996
     atom   18 type  2   force =     0.00543810    0.00153880   -0.00166390
     atom   19 type  2   force =     0.00538608   -0.00151753   -0.00162996
     atom   20 type  2   force =    -0.00543810   -0.00153880    0.00166390
     atom   21 type  2   force =    -0.00691162    0.00103884   -0.00381394
     atom   22 type  2   force =     0.00683618    0.00103051    0.00378421
     atom   23 type  2   force =     0.00691162   -0.00103884    0.00381394
     atom   24 type  2   force =    -0.00683618   -0.00103051   -0.00378421
     atom   25 type  2   force =     0.00280628    0.00068330   -0.00081285
     atom   26 type  2   force =    -0.00285502    0.00097571    0.00166061
     atom   27 type  2   force =    -0.00280628   -0.00068330    0.00081285
     atom   28 type  2   force =     0.00285502   -0.00097571   -0.00166061
     atom   29 type  2   force =     0.00602909   -0.00010744    0.00059906
     atom   30 type  2   force =    -0.00627729    0.00011289    0.00016379
     atom   31 type  2   force =    -0.00602909    0.00010744   -0.00059906
     atom   32 type  2   force =     0.00627729   -0.00011289   -0.00016379
     atom   33 type  2   force =     0.00452296   -0.00138890    0.00130200
     atom   34 type  2   force =    -0.00431807   -0.00128135   -0.00122073
     atom   35 type  2   force =    -0.00452296    0.00138890   -0.00130200
     atom   36 type  2   force =     0.00431807    0.00128135    0.00122073
     atom   37 type  2   force =     0.00183025   -0.00004698    0.00048631
     atom   38 type  2   force =    -0.00161538    0.00003922   -0.00034422
     atom   39 type  2   force =    -0.00183025    0.00004698   -0.00048631
     atom   40 type  2   force =     0.00161538   -0.00003922    0.00034422
     atom   41 type  1   force =     0.00530206   -0.00023451    0.00585540
     atom   42 type  1   force =    -0.00542023   -0.00021425   -0.00583980
     atom   43 type  1   force =    -0.00530206    0.00023451   -0.00585540
     atom   44 type  1   force =     0.00542023    0.00021425    0.00583980
     atom   45 type  1   force =     0.00313149   -0.00421104   -0.00156559
     atom   46 type  1   force =    -0.00299338   -0.00411424    0.00165285
     atom   47 type  1   force =    -0.00313149    0.00421104    0.00156559
     atom   48 type  1   force =     0.00299338    0.00411424   -0.00165285
     atom   49 type  1   force =    -0.00550512    0.00039306   -0.00243734
     atom   50 type  1   force =     0.00600057   -0.00006345    0.00144794
     atom   51 type  1   force =     0.00550512   -0.00039306    0.00243734
     atom   52 type  1   force =    -0.00600057    0.00006345   -0.00144794
     atom   53 type  1   force =    -0.00561775    0.00437336   -0.00193851
     atom   54 type  1   force =     0.00535207    0.00421458    0.00174415
     atom   55 type  1   force =     0.00561775   -0.00437336    0.00193851
     atom   56 type  1   force =    -0.00535207   -0.00421458   -0.00174415
     atom   57 type  3   force =    -0.00442318    0.00090811   -0.00180629
     atom   58 type  3   force =     0.00430226    0.00086011    0.00167153
     atom   59 type  3   force =     0.00442318   -0.00090811    0.00180629
     atom   60 type  3   force =    -0.00430226   -0.00086011   -0.00167153
     atom   61 type  3   force =    -0.00063796    0.00044994    0.00103341
     atom   62 type  3   force =     0.00058449    0.00044347   -0.00101197
     atom   63 type  3   force =     0.00063796   -0.00044994   -0.00103341
     atom   64 type  3   force =    -0.00058449   -0.00044347    0.00101197
     atom   65 type  3   force =    -0.00054026   -0.00052672    0.00075805
     atom   66 type  3   force =     0.00058988   -0.00050756   -0.00116582
     atom   67 type  3   force =     0.00054026    0.00052672   -0.00075805
     atom   68 type  3   force =    -0.00058988    0.00050756    0.00116582
     atom   69 type  3   force =     0.00018074    0.00056639    0.00089621
     atom   70 type  3   force =    -0.00028118    0.00050190   -0.00092881
     atom   71 type  3   force =    -0.00018074   -0.00056639   -0.00089621
     atom   72 type  3   force =     0.00028118   -0.00050190    0.00092881
     atom   73 type  3   force =     0.00050561    0.00040856   -0.00173180
     atom   74 type  3   force =    -0.00054533    0.00042108    0.00173633
     atom   75 type  3   force =    -0.00050561   -0.00040856    0.00173180
     atom   76 type  3   force =     0.00054533   -0.00042108   -0.00173633
     atom   77 type  3   force =     0.00017669   -0.00072477    0.00062207
     atom   78 type  3   force =    -0.00018308   -0.00071639   -0.00061867
     atom   79 type  3   force =    -0.00017669    0.00072477   -0.00062207
     atom   80 type  3   force =     0.00018308    0.00071639    0.00061867

     Total force =     0.042303     Total SCF correction =     0.000142


     Computing stress (Cartesian axis) and pressure

          total   stress  (Ry/bohr**3)                   (kbar)     P=   -2.86
   0.00000488  -0.00000010  -0.00000584          0.72     -0.01     -0.86
  -0.00000010  -0.00001705  -0.00000023         -0.01     -2.51     -0.03
  -0.00000584  -0.00000023  -0.00004612         -0.86     -0.03     -6.78


     Writing output data file scf.save
 
     init_run     :     43.85s CPU     45.25s WALL (       1 calls)
     electrons    :   1530.26s CPU   1585.60s WALL (       1 calls)
     forces       :     21.61s CPU     21.76s WALL (       1 calls)
     stress       :     92.62s CPU     92.86s WALL (       1 calls)

     Called by init_run:
     wfcinit      :     35.50s CPU     36.80s WALL (       1 calls)
     potinit      :      3.00s CPU      3.02s WALL (       1 calls)

     Called by electrons:
     c_bands      :   1374.93s CPU   1422.91s WALL (      16 calls)
     sum_band     :    144.03s CPU    150.63s WALL (      16 calls)
     v_of_rho     :      1.72s CPU      1.88s WALL (      17 calls)
     newd         :      3.80s CPU      4.37s WALL (      17 calls)
     PAW_pot      :      5.31s CPU      5.31s WALL (      17 calls)
     mix_rho      :      0.40s CPU      0.43s WALL (      16 calls)

     Called by c_bands:
     init_us_2    :      7.59s CPU      7.63s WALL (     350 calls)
     cegterg      :   1344.22s CPU   1392.08s WALL (     160 calls)

     Called by sum_band:
     sum_band:bec :      0.10s CPU      0.11s WALL (     160 calls)
     addusdens    :      3.90s CPU      4.42s WALL (      16 calls)

     Called by *egterg:
     h_psi        :    730.86s CPU    767.01s WALL (     845 calls)
     s_psi        :    153.11s CPU    153.16s WALL (     845 calls)
     g_psi        :      3.46s CPU      3.46s WALL (     675 calls)
     cdiaghg      :     97.70s CPU     97.69s WALL (     835 calls)

     Called by h_psi:
     h_psi:pot    :    725.50s CPU    761.58s WALL (     845 calls)
     h_psi:calbec :    153.96s CPU    154.30s WALL (     845 calls)
     vloc_psi     :    417.62s CPU    453.31s WALL (     845 calls)
     add_vuspsi   :    153.92s CPU    153.96s WALL (     845 calls)

     General routines
     calbec       :    232.96s CPU    233.48s WALL (    1055 calls)
     fft          :      2.08s CPU      2.33s WALL (     245 calls)
     fftw         :    452.65s CPU    491.12s WALL (  188688 calls)
 
     Parallel routines
     fft_scatter  :     99.07s CPU    127.66s WALL (  188933 calls)
 
     PWSCF        : 28m19.35s CPU    30m22.34s WALL

 
   This run was terminated on:   0:40:27  19Dec2017            

=------------------------------------------------------------------------------=
   JOB DONE.
=------------------------------------------------------------------------------=
