
     Program PWSCF v.6.1 (svn rev. 13369) starts on  4Nov2017 at 23:19:13 

     This program is part of the open-source Quantum ESPRESSO suite
     for quantum simulation of materials; please cite
         "P. Giannozzi et al., J. Phys.:Condens. Matter 21 395502 (2009);
          URL http://www.quantum-espresso.org", 
     in publications or presentations arising from this work. More details at
     http://www.quantum-espresso.org/quote

     Parallel version (MPI), running on     8 processors
     R & G space division:  proc/nbgrp/npool/nimage =       8
     Waiting for input...
     Reading input from standard input

     Current dimensions of program PWSCF are:
     Max number of different atomic species (ntypx) = 10
     Max number of k-points (npk) =  40000
     Max angular momentum in pseudopotentials (lmaxx) =  3
               file C.pbe-n-kjpaw_psl.0.1.UPF: wavefunction(s)  2P renormalized
               file N.pbe-n-kjpaw_psl.0.1.UPF: wavefunction(s)  2P renormalized
               file H.pbe-kjpaw_psl.0.1.UPF: wavefunction(s)  1S renormalized
               file O.pbe-n-kjpaw_psl.0.1.UPF: wavefunction(s)  2P renormalized

     -------------------------------------
     Parameters for Dispersion Correction:
     -------------------------------------
       atom      VdW radius       C_6     

        C          2.744         60.710
        N          2.640         42.670
        H          1.892          4.857
        O          2.536         24.284

     Subspace diagonalization in iterative solution of the eigenvalue problem:
     a serial algorithm will be used

 
     Parallelization info
     --------------------
     sticks:   dense  smooth     PW     G-vecs:    dense   smooth      PW
     Min         488     488    129               201378   201378   27235
     Max         489     489    130               201401   201401   27262
     Sum        3909    3909   1033              1611111  1611111  217965
 


     bravais-lattice index     =            0
     lattice parameter (alat)  =      11.0761  a.u.
     unit-cell volume          =   11926.0322 (a.u.)^3
     number of atoms/cell      =          176
     number of atomic types    =            4
     number of electrons       =       624.00
     number of Kohn-Sham states=          374
     kinetic-energy cutoff     =     100.0000  Ry
     charge density cutoff     =     400.0000  Ry
     convergence threshold     =      1.0E-08
     mixing beta               =       0.5000
     number of iterations used =            8  plain     mixing
     Exchange-correlation      =  SLA  PW   PBX  PBC ( 1  4  3  4 0 0)

     celldm(1)=  11.076063  celldm(2)=   0.000000  celldm(3)=   0.000000
     celldm(4)=   0.000000  celldm(5)=   0.000000  celldm(6)=   0.000000

     crystal axes: (cart. coord. in units of alat)
               a(1) = (   1.000000   0.000000   0.000000 )  
               a(2) = (   0.000000   1.000000   0.000000 )  
               a(3) = (   0.000000   0.000000   8.776872 )  

     reciprocal axes: (cart. coord. in units 2 pi/alat)
               b(1) = (  1.000000  0.000000  0.000000 )  
               b(2) = (  0.000000  1.000000  0.000000 )  
               b(3) = (  0.000000  0.000000  0.113936 )  


     PseudoPot. # 1 for  C read from file:
     /scratch/ahofstet/pseudo/C.pbe-n-kjpaw_psl.0.1.UPF
     MD5 check sum: 430fe95172b1e11ef3f8ed03bac87931
     Pseudo is Projector augmented-wave + core cor, Zval =  4.0
     Generated using "atomic" code by A. Dal Corso  v.5.0.99 svn rev. 10869
     Shape of augmentation charge: BESSEL
     Using radial grid of 1073 points,  4 beta functions with: 
                l(1) =   0
                l(2) =   0
                l(3) =   1
                l(4) =   1
     Q(r) pseudized with 0 coefficients 


     PseudoPot. # 2 for  N read from file:
     /scratch/ahofstet/pseudo/N.pbe-n-kjpaw_psl.0.1.UPF
     MD5 check sum: f73187c8b701007e77325f868c9291d7
     Pseudo is Projector augmented-wave + core cor, Zval =  5.0
     Generated using "atomic" code by A. Dal Corso  v.5.0.99 svn rev. 10869
     Shape of augmentation charge: PSQ
     Using radial grid of 1085 points,  4 beta functions with: 
                l(1) =   0
                l(2) =   0
                l(3) =   1
                l(4) =   1
     Q(r) pseudized with 0 coefficients 


     PseudoPot. # 3 for  H read from file:
     /scratch/ahofstet/pseudo/H.pbe-kjpaw_psl.0.1.UPF
     MD5 check sum: 94e484f906d9e9773b2f6e52662335b2
     Pseudo is Projector augmented-wave, Zval =  1.0
     Generated using "atomic" code by A. Dal Corso  v.5.0.99 svn rev. 10869
     Shape of augmentation charge: PSQ
     Using radial grid of  929 points,  2 beta functions with: 
                l(1) =   0
                l(2) =   0
     Q(r) pseudized with 0 coefficients 


     PseudoPot. # 4 for  O read from file:
     /scratch/ahofstet/pseudo/O.pbe-n-kjpaw_psl.0.1.UPF
     MD5 check sum: 3f94a2996a3169367d6eb21d9b593f20
     Pseudo is Projector augmented-wave + core cor, Zval =  6.0
     Generated using "atomic" code by A. Dal Corso  v.5.0.99 svn rev. 10869
     Shape of augmentation charge: BESSEL
     Using radial grid of 1095 points,  4 beta functions with: 
                l(1) =   0
                l(2) =   0
                l(3) =   1
                l(4) =   1
     Q(r) pseudized with 0 coefficients 


     atomic species   valence    mass     pseudopotential
        C              4.00    12.01070      C( 1.00)
        N              5.00    14.00670      N( 1.00)
        H              1.00     1.00794      H( 1.00)
        O              6.00    15.99940      O( 1.00)

      2 Sym. Ops. (no inversion) found
          (note:  6 additional sym.ops. were found but ignored
           their fractional translations are incommensurate with FFT grid)


   Cartesian axes

     site n.     atom                  positions (alat units)
         1           O   tau(   1) = (   0.4353325   0.7788767   0.8005359  )
         2           O   tau(   2) = (   0.7211233   0.9353325   7.3831896  )
         3           O   tau(   3) = (   0.9353325   0.7211233   1.3936821  )
         4           O   tau(   4) = (   0.5646675   0.2211233   5.1889717  )
         5           O   tau(   5) = (   0.7788767   0.4353325   7.9763358  )
         6           O   tau(   6) = (   0.2788767   0.0646675   2.9947538  )
         7           O   tau(   7) = (   0.0646675   0.2788767   5.7821179  )
         8           O   tau(   8) = (   0.2211233   0.5646675   3.5879000  )
         9           O   tau(   9) = (   0.2568226   0.0104648   0.2942416  )
        10           O   tau(  10) = (   0.4895352   0.7568226   6.8768953  )
        11           O   tau(  11) = (   0.7568226   0.4895352   1.8999763  )
        12           O   tau(  12) = (   0.7431774   0.9895352   4.6826774  )
        13           O   tau(  13) = (   0.0104648   0.2568226   8.4826300  )
        14           O   tau(  14) = (   0.5104648   0.2431774   2.4884595  )
        15           O   tau(  15) = (   0.2431774   0.5104648   6.2884121  )
        16           O   tau(  16) = (   0.9895352   0.7431774   4.0941942  )
        17           N   tau(  17) = (   0.7124797   0.6429604   0.4002282  )
        18           N   tau(  18) = (   0.8570396   0.2124797   6.9828820  )
        19           N   tau(  19) = (   0.2124797   0.8570396   1.7939897  )
        20           N   tau(  20) = (   0.2875203   0.3570396   4.7886641  )
        21           N   tau(  21) = (   0.6429604   0.7124797   8.3766434  )
        22           N   tau(  22) = (   0.1429604   0.7875203   2.5944462  )
        23           N   tau(  23) = (   0.7875203   0.1429604   6.1824255  )
        24           N   tau(  24) = (   0.3570396   0.2875203   3.9882076  )
        25           N   tau(  25) = (   0.7666312   0.5064041   0.2276360  )
        26           N   tau(  26) = (   0.9935959   0.2666312   6.8102898  )
        27           N   tau(  27) = (   0.2666312   0.9935959   1.9665819  )
        28           N   tau(  28) = (   0.2333688   0.4935959   4.6160719  )
        29           N   tau(  29) = (   0.5064041   0.7666312   8.5492356  )
        30           N   tau(  30) = (   0.0064041   0.7333688   2.4218539  )
        31           N   tau(  31) = (   0.7333688   0.0064041   6.3550177  )
        32           N   tau(  32) = (   0.4935959   0.2333688   4.1607998  )
        33           N   tau(  33) = (   0.6414778   0.3208031   0.1957491  )
        34           N   tau(  34) = (   0.1791969   0.1414778   6.7784029  )
        35           N   tau(  35) = (   0.1414778   0.1791969   1.9984688  )
        36           N   tau(  36) = (   0.3585222   0.6791969   4.5841849  )
        37           N   tau(  37) = (   0.3208031   0.6414778   8.5811225  )
        38           N   tau(  38) = (   0.8208031   0.8585222   2.3899670  )
        39           N   tau(  39) = (   0.8585222   0.8208031   6.3869046  )
        40           N   tau(  40) = (   0.6791969   0.3585222   4.1926867  )
        41           N   tau(  41) = (   0.9622174   0.5372107   0.1066490  )
        42           N   tau(  42) = (   0.9627893   0.4622174   6.6893027  )
        43           N   tau(  43) = (   0.4622174   0.9627893   2.0875689  )
        44           N   tau(  44) = (   0.0377826   0.4627893   4.4950848  )
        45           N   tau(  45) = (   0.5372107   0.9622174   8.6702226  )
        46           N   tau(  46) = (   0.0372107   0.5377826   2.3008669  )
        47           N   tau(  47) = (   0.5377826   0.0372107   6.4760047  )
        48           N   tau(  48) = (   0.4627893   0.0377826   4.2817868  )
        49           C   tau(  49) = (   0.3905205   0.6086653   0.6849274  )
        50           C   tau(  50) = (   0.8913347   0.8905205   7.2675811  )
        51           C   tau(  51) = (   0.8905205   0.8913347   1.5092905  )
        52           C   tau(  52) = (   0.6094795   0.3913347   5.0733632  )
        53           C   tau(  53) = (   0.6086653   0.3905205   8.0919442  )
        54           C   tau(  54) = (   0.1086653   0.1094795   2.8791453  )
        55           C   tau(  55) = (   0.1094795   0.1086653   5.8977263  )
        56           C   tau(  56) = (   0.3913347   0.6094795   3.7035084  )
        57           C   tau(  57) = (   0.5279393   0.5363259   0.4897071  )
        58           C   tau(  58) = (   0.9636741   0.0279393   7.0723608  )
        59           C   tau(  59) = (   0.0279393   0.9636741   1.7045108  )
        60           C   tau(  60) = (   0.4720607   0.4636741   4.8781429  )
        61           C   tau(  61) = (   0.5363259   0.5279393   8.2871646  )
        62           C   tau(  62) = (   0.0363259   0.9720607   2.6839250  )
        63           C   tau(  63) = (   0.9720607   0.0363259   6.0929466  )
        64           C   tau(  64) = (   0.4636741   0.4720607   3.8987287  )
        65           C   tau(  65) = (   0.4859202   0.3364974   0.3666161  )
        66           C   tau(  66) = (   0.1635026   0.9859202   6.9492698  )
        67           C   tau(  67) = (   0.9859202   0.1635026   1.8276018  )
        68           C   tau(  68) = (   0.5140798   0.6635026   4.7550519  )
        69           C   tau(  69) = (   0.3364974   0.4859202   8.4102555  )
        70           C   tau(  70) = (   0.8364974   0.0140798   2.5608340  )
        71           C   tau(  71) = (   0.0140798   0.8364974   6.2160376  )
        72           C   tau(  72) = (   0.6635026   0.5140798   4.0218197  )
        73           C   tau(  73) = (   0.2970104   0.1816018   0.4123815  )
        74           C   tau(  74) = (   0.3183982   0.7970104   6.9950353  )
        75           C   tau(  75) = (   0.7970104   0.3183982   1.7818364  )
        76           C   tau(  76) = (   0.7029896   0.8183982   4.8008174  )
        77           C   tau(  77) = (   0.1816018   0.2970104   8.3644901  )
        78           C   tau(  78) = (   0.6816018   0.2029896   2.6065994  )
        79           C   tau(  79) = (   0.2029896   0.6816018   6.1702722  )
        80           C   tau(  80) = (   0.8183982   0.7029896   3.9760543  )
        81           C   tau(  81) = (   0.1485402   0.2530627   0.6073781  )
        82           C   tau(  82) = (   0.2469373   0.6485402   7.1900318  )
        83           C   tau(  83) = (   0.6485402   0.2469373   1.5868398  )
        84           C   tau(  84) = (   0.8514598   0.7469373   4.9958139  )
        85           C   tau(  85) = (   0.2530627   0.1485402   8.1694935  )
        86           C   tau(  86) = (   0.7530627   0.3514598   2.8015960  )
        87           C   tau(  87) = (   0.3514598   0.7530627   5.9752756  )
        88           C   tau(  88) = (   0.7469373   0.8514598   3.7810577  )
        89           C   tau(  89) = (   0.9573570   0.1198104   0.6614216  )
        90           C   tau(  90) = (   0.3801896   0.4573570   7.2440753  )
        91           C   tau(  91) = (   0.4573570   0.3801896   1.5327963  )
        92           C   tau(  92) = (   0.0426430   0.8801896   5.0498574  )
        93           C   tau(  93) = (   0.1198104   0.9573570   8.1154500  )
        94           C   tau(  94) = (   0.6198104   0.5426430   2.8556395  )
        95           C   tau(  95) = (   0.5426430   0.6198104   5.9212321  )
        96           C   tau(  96) = (   0.8801896   0.0426430   3.7270142  )
        97           C   tau(  97) = (   0.8131725   0.1829541   0.8409571  )
        98           C   tau(  98) = (   0.3170459   0.3131725   7.4236108  )
        99           C   tau(  99) = (   0.3131725   0.3170459   1.3532608  )
       100           C   tau( 100) = (   0.1868275   0.8170459   5.2293929  )
       101           C   tau( 101) = (   0.1829541   0.8131725   7.9359145  )
       102           C   tau( 102) = (   0.6829541   0.6868275   3.0351750  )
       103           C   tau( 103) = (   0.6868275   0.6829541   5.7416966  )
       104           C   tau( 104) = (   0.8170459   0.1868275   3.5474787  )
       105           C   tau( 105) = (   0.8547544   0.3826825   0.9638579  )
       106           C   tau( 106) = (   0.1173175   0.3547544   7.5465116  )
       107           C   tau( 107) = (   0.3547544   0.1173175   1.2303600  )
       108           C   tau( 108) = (   0.1452456   0.6173175   5.3522937  )
       109           C   tau( 109) = (   0.3826825   0.8547544   7.8130138  )
       110           C   tau( 110) = (   0.8826825   0.6452456   3.1580758  )
       111           C   tau( 111) = (   0.6452456   0.8826825   5.6187959  )
       112           C   tau( 112) = (   0.6173175   0.1452456   3.4245780  )
       113           C   tau( 113) = (   0.0409030   0.5204978   0.9080074  )
       114           C   tau( 114) = (   0.9795022   0.5409030   7.4906611  )
       115           C   tau( 115) = (   0.5409030   0.9795022   1.2862105  )
       116           C   tau( 116) = (   0.9590970   0.4795022   5.2964432  )
       117           C   tau( 117) = (   0.5204978   0.0409030   7.8688642  )
       118           C   tau( 118) = (   0.0204978   0.4590970   3.1022253  )
       119           C   tau( 119) = (   0.4590970   0.0204978   5.6746463  )
       120           C   tau( 120) = (   0.4795022   0.9590970   3.4804284  )
       121           C   tau( 121) = (   0.1915406   0.4567024   0.7335410  )
       122           C   tau( 122) = (   0.0432976   0.6915406   7.3161947  )
       123           C   tau( 123) = (   0.6915406   0.0432976   1.4606769  )
       124           C   tau( 124) = (   0.8084594   0.5432976   5.1219768  )
       125           C   tau( 125) = (   0.4567024   0.1915406   8.0433306  )
       126           C   tau( 126) = (   0.9567024   0.3084594   2.9277589  )
       127           C   tau( 127) = (   0.3084594   0.9567024   5.8491127  )
       128           C   tau( 128) = (   0.5432976   0.8084594   3.6548948  )
       129           H   tau( 129) = (   0.9217898   0.9663430   0.5626012  )
       130           H   tau( 130) = (   0.5336570   0.4217898   7.1452549  )
       131           H   tau( 131) = (   0.4217898   0.5336570   1.6316167  )
       132           H   tau( 132) = (   0.0782102   0.0336570   4.9510370  )
       133           H   tau( 133) = (   0.9663430   0.9217898   8.2142704  )
       134           H   tau( 134) = (   0.4663430   0.5782102   2.7568191  )
       135           H   tau( 135) = (   0.5782102   0.4663430   6.0200525  )
       136           H   tau( 136) = (   0.0336570   0.0782102   3.8258346  )
       137           H   tau( 137) = (   0.6691879   0.0736832   0.8817234  )
       138           H   tau( 138) = (   0.4263168   0.1691879   7.4643771  )
       139           H   tau( 139) = (   0.1691879   0.4263168   1.3124945  )
       140           H   tau( 140) = (   0.3308121   0.9263168   5.2701592  )
       141           H   tau( 141) = (   0.0736832   0.6691879   7.8951483  )
       142           H   tau( 142) = (   0.5736832   0.8308121   3.0759413  )
       143           H   tau( 143) = (   0.8308121   0.5736832   5.7009303  )
       144           H   tau( 144) = (   0.9263168   0.3308121   3.5067124  )
       145           H   tau( 145) = (   0.7438989   0.4321799   1.1048947  )
       146           H   tau( 146) = (   0.0678201   0.2438989   7.6875484  )
       147           H   tau( 147) = (   0.2438989   0.0678201   1.0893232  )
       148           H   tau( 148) = (   0.2561011   0.5678201   5.4933305  )
       149           H   tau( 149) = (   0.4321799   0.7438989   7.6719770  )
       150           H   tau( 150) = (   0.9321799   0.7561011   3.2991126  )
       151           H   tau( 151) = (   0.7561011   0.9321799   5.4777590  )
       152           H   tau( 152) = (   0.5678201   0.2561011   3.2835411  )
       153           H   tau( 153) = (   0.0767774   0.6751461   1.0042940  )
       154           H   tau( 154) = (   0.8248539   0.5767774   7.5869477  )
       155           H   tau( 155) = (   0.5767774   0.8248539   1.1899239  )
       156           H   tau( 156) = (   0.9232226   0.3248539   5.3927298  )
       157           H   tau( 157) = (   0.6751461   0.0767774   7.7725777  )
       158           H   tau( 158) = (   0.1751461   0.4232226   3.1985119  )
       159           H   tau( 159) = (   0.4232226   0.1751461   5.5783597  )
       160           H   tau( 160) = (   0.3248539   0.9232226   3.3841418  )
       161           H   tau( 161) = (   0.0148941   0.7028737   0.1093413  )
       162           H   tau( 162) = (   0.7971263   0.5148941   6.6919950  )
       163           H   tau( 163) = (   0.5148941   0.7971263   2.0848766  )
       164           H   tau( 164) = (   0.9851059   0.2971263   4.4977771  )
       165           H   tau( 165) = (   0.7028737   0.0148941   8.6675304  )
       166           H   tau( 166) = (   0.2028737   0.4851059   2.3035592  )
       167           H   tau( 167) = (   0.4851059   0.2028737   6.4733125  )
       168           H   tau( 168) = (   0.2971263   0.9851059   4.2790946  )
       169           H   tau( 169) = (   0.9587357   0.4571741  -0.0504654  )
       170           H   tau( 170) = (   0.0428259   0.4587357   6.5321883  )
       171           H   tau( 171) = (   0.4587357   0.0428259   2.2446833  )
       172           H   tau( 172) = (   0.0412643   0.5428259   4.3379704  )
       173           H   tau( 173) = (   0.4571741   0.9587357   8.8273371  )
       174           H   tau( 174) = (   0.9571741   0.5412643   2.1437525  )
       175           H   tau( 175) = (   0.5412643   0.9571741   6.6331192  )
       176           H   tau( 176) = (   0.5428259   0.0412643   4.4389012  )

     number of k points=     4
                       cart. coord. in units 2pi/alat
        k(    1) = (   0.0000000   0.0000000   0.0000000), wk =   0.2222222
        k(    2) = (   0.0000000   0.3333333   0.0000000), wk =   0.8888889
        k(    3) = (   0.3333333   0.3333333   0.0000000), wk =   0.4444444
        k(    4) = (  -0.3333333   0.3333333   0.0000000), wk =   0.4444444

     Dense  grid:  1611111 G-vectors     FFT dimensions: (  72,  72, 625)

     Estimated max dynamical RAM per process >    2490.53MB

     Estimated total allocated dynamical RAM >   19924.28MB

     Check: negative/imaginary core charge=   -0.000002    0.000000

     Initial potential from superposition of free atoms

     starting charge  623.99596, renormalised to  624.00000
     Starting wfc are  560 randomized atomic wfcs
     Checking if some PAW data can be deallocated... 

     total cpu time spent up to now is      102.1 secs

     per-process dynamical memory:  1369.9 Mb

     Self-consistent Calculation

     iteration #  1     ecut=   100.00 Ry     beta=0.50
     Davidson diagonalization with overlap
     ethr =  1.00E-02,  avg # of iterations =  4.8

     total cpu time spent up to now is      427.4 secs

     total energy              =   -3097.30159996 Ry
     Harris-Foulkes estimate   =   -3106.76840586 Ry
     estimated scf accuracy    <      17.95442283 Ry

     iteration #  2     ecut=   100.00 Ry     beta=0.50
     Davidson diagonalization with overlap
     ethr =  2.88E-03,  avg # of iterations =  2.0

     total cpu time spent up to now is      594.0 secs

     total energy              =   -3098.15847944 Ry
     Harris-Foulkes estimate   =   -3100.00765718 Ry
     estimated scf accuracy    <       3.63953913 Ry

     iteration #  3     ecut=   100.00 Ry     beta=0.50
     Davidson diagonalization with overlap
     ethr =  5.83E-04,  avg # of iterations =  8.0

     total cpu time spent up to now is      966.9 secs

     total energy              =   -3099.99058329 Ry
     Harris-Foulkes estimate   =   -3101.06993122 Ry
     estimated scf accuracy    <       2.72052249 Ry

     iteration #  4     ecut=   100.00 Ry     beta=0.50
     Davidson diagonalization with overlap
     ethr =  4.36E-04,  avg # of iterations =  4.2

     total cpu time spent up to now is     1137.8 secs

     total energy              =   -3100.16897507 Ry
     Harris-Foulkes estimate   =   -3100.39364701 Ry
     estimated scf accuracy    <       0.49294475 Ry

     iteration #  5     ecut=   100.00 Ry     beta=0.50
     Davidson diagonalization with overlap
     ethr =  7.90E-05,  avg # of iterations =  8.5

     total cpu time spent up to now is     1478.7 secs

     total energy              =   -3100.41955066 Ry
     Harris-Foulkes estimate   =   -3100.48462640 Ry
     estimated scf accuracy    <       0.21850674 Ry

     iteration #  6     ecut=   100.00 Ry     beta=0.50
     Davidson diagonalization with overlap
     ethr =  3.50E-05,  avg # of iterations =  3.0

     total cpu time spent up to now is     1646.1 secs

     total energy              =   -3100.42286194 Ry
     Harris-Foulkes estimate   =   -3100.44843293 Ry
     estimated scf accuracy    <       0.05946446 Ry

     iteration #  7     ecut=   100.00 Ry     beta=0.50
     Davidson diagonalization with overlap
     ethr =  9.53E-06,  avg # of iterations = 12.0

     total cpu time spent up to now is     1935.1 secs

     total energy              =   -3100.43816980 Ry
     Harris-Foulkes estimate   =   -3100.43935991 Ry
     estimated scf accuracy    <       0.00419145 Ry

     iteration #  8     ecut=   100.00 Ry     beta=0.50
     Davidson diagonalization with overlap
     ethr =  6.72E-07,  avg # of iterations =  6.0

     total cpu time spent up to now is     2232.8 secs

     total energy              =   -3100.43957637 Ry
     Harris-Foulkes estimate   =   -3100.44004452 Ry
     estimated scf accuracy    <       0.00162595 Ry

     iteration #  9     ecut=   100.00 Ry     beta=0.50
     Davidson diagonalization with overlap
     ethr =  2.61E-07,  avg # of iterations =  1.0

     total cpu time spent up to now is     2386.7 secs

     total energy              =   -3100.43948333 Ry
     Harris-Foulkes estimate   =   -3100.43970832 Ry
     estimated scf accuracy    <       0.00052657 Ry

     iteration # 10     ecut=   100.00 Ry     beta=0.50
     Davidson diagonalization with overlap
     ethr =  8.44E-08,  avg # of iterations =  4.0

     total cpu time spent up to now is     2652.0 secs

     total energy              =   -3100.43971468 Ry
     Harris-Foulkes estimate   =   -3100.43974580 Ry
     estimated scf accuracy    <       0.00008585 Ry

     iteration # 11     ecut=   100.00 Ry     beta=0.50
     Davidson diagonalization with overlap
     ethr =  1.38E-08,  avg # of iterations =  2.0

     total cpu time spent up to now is     2811.5 secs

     total energy              =   -3100.43971573 Ry
     Harris-Foulkes estimate   =   -3100.43972577 Ry
     estimated scf accuracy    <       0.00002721 Ry

     iteration # 12     ecut=   100.00 Ry     beta=0.50
     Davidson diagonalization with overlap
     ethr =  4.36E-09,  avg # of iterations =  4.0

     total cpu time spent up to now is     3063.9 secs

     total energy              =   -3100.43972656 Ry
     Harris-Foulkes estimate   =   -3100.43972837 Ry
     estimated scf accuracy    <       0.00000535 Ry

     iteration # 13     ecut=   100.00 Ry     beta=0.50
     Davidson diagonalization with overlap
     ethr =  8.57E-10,  avg # of iterations =  3.0

     total cpu time spent up to now is     3237.6 secs

     total energy              =   -3100.43972733 Ry
     Harris-Foulkes estimate   =   -3100.43972762 Ry
     estimated scf accuracy    <       0.00000079 Ry

     iteration # 14     ecut=   100.00 Ry     beta=0.50
     Davidson diagonalization with overlap
     ethr =  1.26E-10,  avg # of iterations =  4.0

     total cpu time spent up to now is     3549.4 secs

     total energy              =   -3100.43972780 Ry
     Harris-Foulkes estimate   =   -3100.43972787 Ry
     estimated scf accuracy    <       0.00000029 Ry

     iteration # 15     ecut=   100.00 Ry     beta=0.50
     Davidson diagonalization with overlap
     ethr =  4.60E-11,  avg # of iterations =  1.0

     total cpu time spent up to now is     3703.2 secs

     total energy              =   -3100.43972779 Ry
     Harris-Foulkes estimate   =   -3100.43972782 Ry
     estimated scf accuracy    <       0.00000009 Ry

     iteration # 16     ecut=   100.00 Ry     beta=0.50
     Davidson diagonalization with overlap
     ethr =  1.43E-11,  avg # of iterations =  4.0

     total cpu time spent up to now is     3979.3 secs

     total energy              =   -3100.43972783 Ry
     Harris-Foulkes estimate   =   -3100.43972783 Ry
     estimated scf accuracy    <       0.00000002 Ry

     iteration # 17     ecut=   100.00 Ry     beta=0.50
     Davidson diagonalization with overlap
     ethr =  2.72E-12,  avg # of iterations =  2.5

     total cpu time spent up to now is     4142.7 secs

     End of self-consistent calculation

          k = 0.0000 0.0000 0.0000 (201505 PWs)   bands (ev):

   -21.8431 -21.8430 -21.8430 -21.8429 -21.7980 -21.7979 -21.7979 -21.7979
   -19.0284 -19.0281 -19.0281 -19.0279 -19.0180 -19.0178 -19.0177 -19.0175
   -18.8551 -18.8538 -18.8538 -18.8515 -18.8497 -18.8473 -18.8473 -18.8461
   -16.8462 -16.8461 -16.8461 -16.8460 -16.8459 -16.8457 -16.8457 -16.8457
   -15.7281 -15.7280 -15.7280 -15.7279 -15.7222 -15.7221 -15.7221 -15.7220
   -14.4505 -14.4463 -14.4463 -14.4411 -14.3913 -14.3854 -14.3854 -14.3804
   -13.0399 -13.0331 -13.0331 -13.0248 -12.9774 -12.9714 -12.9714 -12.9667
   -11.6963 -11.6745 -11.6745 -11.6419 -11.6384 -11.6384 -11.6380 -11.6274
   -11.6089 -11.5656 -11.5656 -11.5515 -11.5477 -11.5477 -11.5454 -11.5430
   -10.2303 -10.2228 -10.2228 -10.2087 -10.2012 -10.1882 -10.1881 -10.1817
    -9.6192  -9.6093  -9.6092  -9.5975  -9.4584  -9.4439  -9.4439  -9.4310
    -8.7380  -8.7298  -8.7297  -8.7188  -8.6457  -8.6295  -8.6295  -8.6161
    -7.6208  -7.6156  -7.6156  -7.6080  -7.5567  -7.5412  -7.5412  -7.5281
    -6.9800  -6.9782  -6.9782  -6.9744  -6.9382  -6.9152  -6.9151  -6.8902
    -6.8881  -6.8605  -6.8605  -6.8275  -6.7181  -6.7134  -6.7134  -6.6770
    -6.6769  -6.6023  -6.6023  -6.5850  -6.5680  -6.5478  -6.5478  -6.5104
    -5.8526  -5.8456  -5.8455  -5.8349  -5.6087  -5.5836  -5.5836  -5.5677
    -5.3993  -5.3768  -5.3768  -5.3587  -5.3542  -5.3098  -5.3098  -5.2059
    -5.1865  -5.1468  -5.1467  -5.1401  -5.1101  -5.1054  -5.1053  -5.1007
    -4.8966  -4.7794  -4.7794  -4.5923  -4.5646  -4.4202  -4.4201  -4.3838
    -4.3031  -4.3031  -4.2950  -4.2870  -4.0203  -4.0176  -4.0176  -4.0156
    -3.7980  -3.7571  -3.7571  -3.6921  -3.6588  -3.6163  -3.6162  -3.6014
    -3.4813  -3.4677  -3.4677  -3.4624  -3.4211  -3.4144  -3.4144  -3.3721
    -3.3717  -3.3407  -3.3407  -3.3282  -3.3258  -3.3250  -3.3250  -3.3162
    -3.3022  -3.2647  -3.2647  -3.2492  -3.2295  -3.2294  -3.2294  -3.2212
    -3.0410  -3.0395  -3.0351  -3.0351  -3.0313  -3.0285  -3.0285  -3.0178
    -2.9151  -2.9094  -2.9094  -2.8948  -2.8888  -2.8791  -2.8791  -2.8775
    -2.0091  -1.9828  -1.9828  -1.9465  -1.8460  -1.8173  -1.8173  -1.7986
    -1.4686  -1.4645  -1.4645  -1.4592  -1.4304  -1.4245  -1.4245  -1.4195
    -1.3707  -1.3679  -1.3679  -1.3653  -1.2609  -1.2539  -1.2539  -1.2345
    -1.2239  -1.1816  -1.1816  -1.1442  -1.1271  -1.1227  -1.1227  -1.1212
    -0.9904  -0.9745  -0.9745  -0.9659  -0.9238  -0.9224  -0.9224  -0.9185
    -0.4300  -0.4257  -0.4257  -0.4214  -0.3515  -0.3449  -0.3449  -0.3375
    -0.2406  -0.2375  -0.2374  -0.2348  -0.1981  -0.1953  -0.1953  -0.1928
     0.2725   0.2946   0.2946   0.3218   0.5236   0.5493   0.5493   0.5700
     0.6663   0.6768   0.6768   0.6867   0.6950   0.7080   0.7080   0.7211
     0.8309   0.8326   0.8326   0.8399   0.8440   0.8483   0.8486   0.8486
     1.1354   1.1376   1.1376   1.1401   1.1573   1.1595   1.1595   1.1615
     1.5967   1.6190   1.6190   1.6587   1.6736   1.7064   1.7064   1.7215
     3.5974   3.5983   3.5983   3.5994   3.6171   3.6196   3.6197   3.6220
     4.8156   4.8305   4.8305   4.8525   4.9424   4.9732   4.9732   4.9973
     5.8857   5.9087   5.9087   5.9366   6.1060   6.1203   6.1206   6.1206
     6.1704   6.1846   6.1846   6.2145   6.3306   6.3466   6.3466   6.3567
     7.1570   7.1722   7.1722   7.1844   7.3111   7.3132   7.3132   7.3249
     7.4216   7.4337   7.4337   7.4439   7.9826   8.0968   8.0968   8.2121
     8.4091   8.4091   8.4463   8.5078   8.5599   8.6669   8.7004   8.7004
     8.8960   9.0152   9.0152   9.1490   9.1667   9.2198

          k = 0.0000 0.3333 0.0000 (201459 PWs)   bands (ev):

   -21.8367 -21.8366 -21.8366 -21.8366 -21.8013 -21.8011 -21.8011 -21.8011
   -19.0289 -19.0288 -19.0287 -19.0286 -19.0162 -19.0161 -19.0161 -19.0160
   -18.8598 -18.8597 -18.8546 -18.8544 -18.8503 -18.8501 -18.8477 -18.8476
   -16.8552 -16.8551 -16.8551 -16.8550 -16.8384 -16.8383 -16.8383 -16.8382
   -15.7291 -15.7290 -15.7290 -15.7290 -15.7199 -15.7198 -15.7198 -15.7198
   -14.4609 -14.4608 -14.4194 -14.4191 -14.3903 -14.3884 -14.3857 -14.3841
   -13.0527 -13.0524 -13.0292 -13.0265 -13.0251 -13.0228 -12.9881 -12.9880
   -11.6614 -11.6602 -11.6362 -11.6294 -11.6290 -11.6241 -11.6167 -11.6050
   -11.5799 -11.5723 -11.5648 -11.5573 -11.5510 -11.5414 -11.5255 -11.5215
   -10.2539 -10.2513 -10.2475 -10.2416 -10.2383 -10.2350 -10.1907 -10.1906
    -9.5584  -9.5526  -9.5525  -9.5456  -9.4784  -9.4749  -9.4686  -9.4662
    -8.7584  -8.7569  -8.7161  -8.7076  -8.6950  -8.6845  -8.6650  -8.6616
    -7.6211  -7.6117  -7.6108  -7.5914  -7.5768  -7.5621  -7.5276  -7.5231
    -6.9579  -6.9493  -6.9414  -6.9319  -6.8936  -6.8914  -6.8751  -6.8521
    -6.8484  -6.8197  -6.8091  -6.8017  -6.7232  -6.7222  -6.6997  -6.6974
    -6.6933  -6.6900  -6.6654  -6.6500  -6.6133  -6.6080  -6.5697  -6.5696
    -5.8740  -5.8698  -5.8639  -5.8593  -5.6224  -5.6139  -5.6042  -5.5961
    -5.3673  -5.3593  -5.3510  -5.3359  -5.2984  -5.2958  -5.2833  -5.2793
    -5.2247  -5.2223  -5.1985  -5.1919  -5.1387  -5.1302  -5.1271  -5.1220
    -4.6070  -4.6042  -4.5827  -4.5821  -4.3385  -4.3377  -4.3125  -4.3094
    -4.1237  -4.1189  -4.1005  -4.0920  -4.0856  -4.0847  -4.0707  -4.0624
    -3.7827  -3.7777  -3.7596  -3.7512  -3.7106  -3.7056  -3.6977  -3.6947
    -3.6524  -3.6450  -3.6332  -3.6314  -3.4901  -3.4759  -3.4637  -3.4479
    -3.4055  -3.3976  -3.3667  -3.3586  -3.3585  -3.3525  -3.3248  -3.3161
    -3.2552  -3.2548  -3.2465  -3.2414  -3.2053  -3.1922  -3.1821  -3.1817
    -3.1666  -3.1539  -3.1092  -3.1060  -3.0800  -3.0795  -3.0023  -3.0016
    -2.9365  -2.9353  -2.9067  -2.9061  -2.6355  -2.6355  -2.6220  -2.6219
    -2.0362  -2.0355  -1.9158  -1.9146  -1.7843  -1.7839  -1.6720  -1.6713
    -1.5309  -1.5284  -1.5189  -1.5096  -1.5092  -1.5043  -1.4823  -1.4812
    -1.4671  -1.4658  -1.4279  -1.4278  -1.3878  -1.3806  -1.3798  -1.3745
    -1.0755  -1.0681  -1.0625  -1.0509  -1.0221  -1.0075  -0.9920  -0.9645
    -0.9469  -0.9465  -0.9173  -0.9172  -0.8965  -0.8780  -0.8549  -0.8461
    -0.3676  -0.3655  -0.3634  -0.3610  -0.3015  -0.3005  -0.2947  -0.2943
    -0.2536  -0.2533  -0.2493  -0.2491  -0.2044  -0.2034  -0.2031  -0.2021
     0.3768   0.3771   0.4525   0.4566   0.4835   0.4896   0.5881   0.5934
     0.6663   0.6705   0.7208   0.7230   0.7603   0.7650   0.7867   0.7950
     0.8080   0.8091   0.8106   0.8160   0.8167   0.8185   0.8644   0.8644
     1.1444   1.1445   1.1506   1.1513   1.1615   1.1634   1.1743   1.1754
     1.3649   1.3656   1.3800   1.3805   1.6258   1.6262   1.7016   1.7020
     3.3781   3.3783   3.4023   3.4024   3.5878   3.5878   3.6020   3.6021
     4.7284   4.7423   4.7595   4.7825   4.8418   4.8521   5.0057   5.0066
     5.7232   5.7254   5.8762   5.8814   5.9445   5.9488   5.9708   5.9791
     6.1764   6.1775   6.1843   6.1946   6.2017   6.2123   6.3362   6.3368
     7.2919   7.2922   7.3445   7.3447   7.4190   7.4195   7.4767   7.4768
     7.7340   7.7379   7.7628   7.7666   8.4064   8.4130   8.4881   8.4887
     8.5998   8.6212   8.7136   8.7341   8.7431   8.7803   8.9292   8.9332
     8.9538   8.9565   8.9993   9.0480   9.1985   9.2745

          k = 0.3333 0.3333 0.0000 (201305 PWs)   bands (ev):

   -21.8314 -21.8314 -21.8303 -21.8301 -21.8050 -21.8048 -21.8039 -21.8039
   -19.0260 -19.0260 -19.0243 -19.0241 -19.0149 -19.0147 -19.0095 -19.0095
   -18.8583 -18.8578 -18.8575 -18.8565 -18.8556 -18.8545 -18.8542 -18.8537
   -16.8697 -16.8697 -16.8633 -16.8632 -16.8416 -16.8416 -16.8404 -16.8402
   -15.7329 -15.7329 -15.7315 -15.7313 -15.7202 -15.7202 -15.7191 -15.7190
   -14.4221 -14.4197 -14.4187 -14.4157 -14.3831 -14.3809 -14.3766 -14.3749
   -13.0577 -13.0540 -13.0519 -13.0433 -13.0406 -13.0329 -13.0294 -13.0267
   -11.6697 -11.6574 -11.6528 -11.6410 -11.6403 -11.6354 -11.6195 -11.6144
   -11.5923 -11.5728 -11.5584 -11.5508 -11.5501 -11.5468 -11.5315 -11.5303
   -10.2443 -10.2402 -10.2398 -10.2340 -10.2147 -10.2116 -10.1982 -10.1969
    -9.5767  -9.5767  -9.5327  -9.5324  -9.4758  -9.4751  -9.4386  -9.4382
    -8.7437  -8.7317  -8.7305  -8.7076  -8.6854  -8.6709  -8.6172  -8.6137
    -7.5894  -7.5855  -7.5840  -7.5797  -7.5420  -7.5419  -7.5390  -7.5383
    -6.9864  -6.9666  -6.9605  -6.9245  -6.9086  -6.8986  -6.8750  -6.8744
    -6.8550  -6.8321  -6.8134  -6.8022  -6.7169  -6.7083  -6.7069  -6.6953
    -6.6864  -6.6622  -6.6507  -6.6166  -6.6102  -6.5996  -6.4989  -6.4980
    -5.9096  -5.9044  -5.8970  -5.8908  -5.6597  -5.6464  -5.6411  -5.6286
    -5.4138  -5.4079  -5.3628  -5.3525  -5.3292  -5.3242  -5.2686  -5.2473
    -5.2139  -5.2067  -5.1994  -5.1930  -5.1828  -5.1783  -5.1199  -5.1152
    -4.7263  -4.7178  -4.5282  -4.5090  -4.4567  -4.4539  -4.4126  -4.4013
    -4.2950  -4.2794  -4.1008  -4.0864  -4.0831  -4.0792  -4.0202  -4.0156
    -3.7758  -3.7544  -3.7527  -3.7387  -3.7073  -3.7051  -3.6737  -3.6596
    -3.6429  -3.6156  -3.6138  -3.6021  -3.5842  -3.5768  -3.5382  -3.5330
    -3.4214  -3.4062  -3.4025  -3.3861  -3.3709  -3.3697  -3.3378  -3.3323
    -3.3312  -3.3309  -3.2992  -3.2931  -3.2442  -3.2226  -3.2217  -3.2033
    -3.0786  -3.0651  -3.0646  -3.0522  -2.9821  -2.9813  -2.9614  -2.9613
    -2.6976  -2.6955  -2.6927  -2.6904  -2.6522  -2.6520  -2.6380  -2.6375
    -1.7997  -1.7966  -1.7908  -1.7873  -1.6654  -1.6616  -1.6614  -1.6572
    -1.5041  -1.5023  -1.4917  -1.4851  -1.4808  -1.4715  -1.4583  -1.4486
    -1.4238  -1.4126  -1.3995  -1.3940  -1.2332  -1.2315  -1.2216  -1.2202
    -1.1994  -1.1877  -1.1778  -1.1678  -1.0328  -1.0320  -1.0136  -1.0123
    -0.9949  -0.9908  -0.9391  -0.9319  -0.9184  -0.9089  -0.9024  -0.8985
    -0.3645  -0.3631  -0.3613  -0.3600  -0.2912  -0.2902  -0.2873  -0.2868
    -0.2786  -0.2777  -0.2763  -0.2742  -0.2333  -0.2317  -0.2228  -0.2217
     0.4695   0.4766   0.4800   0.4909   0.5362   0.5505   0.5518   0.5621
     0.7456   0.7531   0.7556   0.7655   0.7994   0.8054   0.8085   0.8130
     0.8647   0.8651   0.8673   0.8678   0.8780   0.8790   0.8797   0.8838
     1.1463   1.1484   1.1513   1.1544   1.1603   1.1614   1.1640   1.1641
     1.3455   1.3518   1.3591   1.3711   1.3960   1.4036   1.4394   1.4415
     3.4101   3.4113   3.4392   3.4465   3.4535   3.4607   3.5013   3.5025
     4.5329   4.5388   4.6144   4.6291   4.7763   4.8163   4.8210   4.8527
     5.7960   5.8072   5.8550   5.8671   5.9367   5.9390   6.0006   6.0049
     6.1674   6.1699   6.1940   6.1981   6.1999   6.2097   6.2356   6.2448
     7.3396   7.3430   7.3610   7.3676   7.3870   7.3891   7.3980   7.3995
     8.0868   8.0955   8.1090   8.1180   8.5183   8.5347   8.6242   8.6660
     8.6849   8.7057   8.7357   8.7421   8.8041   8.8383   8.8490   8.8821
     8.9586   8.9784   9.0587   9.0680   9.0999   9.1420

          k =-0.3333 0.3333 0.0000 (201305 PWs)   bands (ev):

   -21.8315 -21.8314 -21.8302 -21.8302 -21.8049 -21.8049 -21.8040 -21.8039
   -19.0261 -19.0259 -19.0242 -19.0242 -19.0147 -19.0147 -19.0097 -19.0095
   -18.8583 -18.8578 -18.8575 -18.8565 -18.8556 -18.8545 -18.8542 -18.8537
   -16.8699 -16.8697 -16.8632 -16.8632 -16.8418 -16.8416 -16.8403 -16.8403
   -15.7331 -15.7329 -15.7313 -15.7313 -15.7203 -15.7202 -15.7190 -15.7190
   -14.4221 -14.4197 -14.4187 -14.4157 -14.3831 -14.3809 -14.3766 -14.3749
   -13.0577 -13.0540 -13.0519 -13.0433 -13.0406 -13.0329 -13.0294 -13.0267
   -11.6697 -11.6574 -11.6528 -11.6410 -11.6403 -11.6354 -11.6195 -11.6144
   -11.5923 -11.5728 -11.5584 -11.5508 -11.5501 -11.5467 -11.5315 -11.5303
   -10.2443 -10.2402 -10.2398 -10.2340 -10.2147 -10.2116 -10.1982 -10.1969
    -9.5768  -9.5767  -9.5326  -9.5324  -9.4758  -9.4751  -9.4387  -9.4382
    -8.7437  -8.7318  -8.7304  -8.7076  -8.6853  -8.6709  -8.6172  -8.6137
    -7.5894  -7.5855  -7.5840  -7.5797  -7.5420  -7.5419  -7.5390  -7.5383
    -6.9864  -6.9666  -6.9605  -6.9245  -6.9087  -6.8986  -6.8751  -6.8744
    -6.8550  -6.8321  -6.8134  -6.8022  -6.7169  -6.7083  -6.7069  -6.6952
    -6.6863  -6.6622  -6.6507  -6.6166  -6.6102  -6.5996  -6.4990  -6.4980
    -5.9095  -5.9044  -5.8970  -5.8908  -5.6597  -5.6465  -5.6411  -5.6286
    -5.4139  -5.4079  -5.3628  -5.3525  -5.3292  -5.3242  -5.2686  -5.2473
    -5.2139  -5.2067  -5.1994  -5.1930  -5.1828  -5.1783  -5.1200  -5.1152
    -4.7263  -4.7178  -4.5282  -4.5090  -4.4567  -4.4539  -4.4126  -4.4013
    -4.2950  -4.2794  -4.1008  -4.0863  -4.0831  -4.0792  -4.0203  -4.0156
    -3.7758  -3.7544  -3.7527  -3.7387  -3.7073  -3.7051  -3.6737  -3.6596
    -3.6429  -3.6156  -3.6138  -3.6021  -3.5842  -3.5768  -3.5382  -3.5331
    -3.4214  -3.4062  -3.4024  -3.3861  -3.3709  -3.3697  -3.3378  -3.3323
    -3.3312  -3.3309  -3.2992  -3.2931  -3.2442  -3.2226  -3.2217  -3.2033
    -3.0786  -3.0651  -3.0646  -3.0522  -2.9821  -2.9813  -2.9614  -2.9613
    -2.6976  -2.6955  -2.6927  -2.6904  -2.6523  -2.6520  -2.6379  -2.6375
    -1.7997  -1.7966  -1.7908  -1.7873  -1.6654  -1.6616  -1.6614  -1.6572
    -1.5041  -1.5023  -1.4917  -1.4850  -1.4808  -1.4715  -1.4583  -1.4486
    -1.4238  -1.4126  -1.3995  -1.3940  -1.2332  -1.2315  -1.2217  -1.2202
    -1.1994  -1.1877  -1.1778  -1.1678  -1.0329  -1.0320  -1.0136  -1.0123
    -0.9948  -0.9908  -0.9391  -0.9319  -0.9184  -0.9089  -0.9025  -0.8985
    -0.3645  -0.3631  -0.3614  -0.3601  -0.2911  -0.2902  -0.2874  -0.2868
    -0.2786  -0.2776  -0.2763  -0.2742  -0.2333  -0.2316  -0.2228  -0.2217
     0.4695   0.4766   0.4800   0.4909   0.5362   0.5505   0.5518   0.5621
     0.7456   0.7531   0.7556   0.7655   0.7994   0.8055   0.8085   0.8130
     0.8647   0.8651   0.8673   0.8678   0.8780   0.8790   0.8797   0.8838
     1.1463   1.1484   1.1513   1.1544   1.1603   1.1614   1.1640   1.1641
     1.3455   1.3518   1.3591   1.3711   1.3960   1.4037   1.4394   1.4415
     3.4101   3.4114   3.4392   3.4465   3.4535   3.4607   3.5013   3.5025
     4.5329   4.5388   4.6144   4.6291   4.7763   4.8163   4.8210   4.8527
     5.7960   5.8072   5.8550   5.8671   5.9368   5.9390   6.0006   6.0049
     6.1674   6.1699   6.1940   6.1981   6.1999   6.2097   6.2356   6.2448
     7.3395   7.3430   7.3610   7.3676   7.3870   7.3891   7.3980   7.3995
     8.0868   8.0955   8.1091   8.1180   8.5183   8.5347   8.6242   8.6660
     8.6849   8.7057   8.7357   8.7421   8.8042   8.8383   8.8490   8.8821
     8.9586   8.9784   9.0587   9.0680   9.0999   9.1420

     highest occupied, lowest unoccupied level (ev):     1.7215    3.3781

!    total energy              =   -3100.43972783 Ry
     Harris-Foulkes estimate   =   -3100.43972784 Ry
     estimated scf accuracy    <          7.5E-09 Ry

     total all-electron energy =    -12064.679547 Ry

     The total energy is the sum of the following terms:

     one-electron contribution =   -1437.42599983 Ry
     hartree contribution      =     972.08362172 Ry
     xc contribution           =    -655.62910302 Ry
     ewald contribution        =   -1028.99834904 Ry
     Dispersion Correction     =      -0.90138058 Ry
     one-center paw contrib.   =    -949.56851709 Ry

     convergence has been achieved in  17 iterations

     Forces acting on atoms (cartesian axes, Ry/au):

     atom    1 type  4   force =    -0.00537384   -0.00519465   -0.00422150
     atom    2 type  4   force =     0.00519341   -0.00537534   -0.00422601
     atom    3 type  4   force =    -0.00537534    0.00519341    0.00422601
     atom    4 type  4   force =     0.00537483    0.00518958   -0.00422438
     atom    5 type  4   force =    -0.00519465   -0.00537384    0.00422150
     atom    6 type  4   force =    -0.00518972    0.00537386   -0.00422213
     atom    7 type  4   force =     0.00537386   -0.00518972    0.00422213
     atom    8 type  4   force =     0.00518958    0.00537483    0.00422438
     atom    9 type  4   force =     0.00396977   -0.00181454    0.00301692
     atom   10 type  4   force =     0.00180291    0.00397156    0.00301986
     atom   11 type  4   force =     0.00397156    0.00180291   -0.00301986
     atom   12 type  4   force =    -0.00397323    0.00179721    0.00302207
     atom   13 type  4   force =    -0.00181454    0.00396977   -0.00301692
     atom   14 type  4   force =    -0.00180442   -0.00397235    0.00302117
     atom   15 type  4   force =    -0.00397235   -0.00180442   -0.00302117
     atom   16 type  4   force =     0.00179721   -0.00397323   -0.00302207
     atom   17 type  2   force =    -0.00888967   -0.00077034    0.00036091
     atom   18 type  2   force =     0.00077712   -0.00888871    0.00035183
     atom   19 type  2   force =    -0.00888871    0.00077712   -0.00035183
     atom   20 type  2   force =     0.00888858    0.00077844    0.00034852
     atom   21 type  2   force =    -0.00077034   -0.00888967   -0.00036091
     atom   22 type  2   force =    -0.00077760    0.00888888    0.00035112
     atom   23 type  2   force =     0.00888888   -0.00077760   -0.00035112
     atom   24 type  2   force =     0.00077844    0.00888858   -0.00034852
     atom   25 type  2   force =     0.01186775   -0.00508819   -0.00134751
     atom   26 type  2   force =     0.00508981    0.01187086   -0.00135168
     atom   27 type  2   force =     0.01187086    0.00508981    0.00135168
     atom   28 type  2   force =    -0.01187180    0.00509087   -0.00135386
     atom   29 type  2   force =    -0.00508819    0.01186775    0.00134751
     atom   30 type  2   force =    -0.00509019   -0.01187068   -0.00135232
     atom   31 type  2   force =    -0.01187068   -0.00509019    0.00135232
     atom   32 type  2   force =     0.00509087   -0.01187180    0.00135386
     atom   33 type  2   force =    -0.00358493   -0.00263563    0.00965966
     atom   34 type  2   force =     0.00262570   -0.00358351    0.00966499
     atom   35 type  2   force =    -0.00358351    0.00262570   -0.00966499
     atom   36 type  2   force =     0.00358429    0.00262352    0.00966622
     atom   37 type  2   force =    -0.00263563   -0.00358493   -0.00965966
     atom   38 type  2   force =    -0.00262495    0.00358471    0.00966608
     atom   39 type  2   force =     0.00358471   -0.00262495   -0.00966608
     atom   40 type  2   force =     0.00262352    0.00358429   -0.00966622
     atom   41 type  2   force =    -0.00248069    0.00287869    0.00884910
     atom   42 type  2   force =    -0.00288049   -0.00249077    0.00884797
     atom   43 type  2   force =    -0.00249077   -0.00288049   -0.00884797
     atom   44 type  2   force =     0.00249344   -0.00288053    0.00884729
     atom   45 type  2   force =     0.00287869   -0.00248069   -0.00884910
     atom   46 type  2   force =     0.00288043    0.00249222    0.00884771
     atom   47 type  2   force =     0.00249222    0.00288043   -0.00884771
     atom   48 type  2   force =    -0.00288053    0.00249344   -0.00884729
     atom   49 type  1   force =     0.00148835    0.00289201    0.00215146
     atom   50 type  1   force =    -0.00288930    0.00148876    0.00215193
     atom   51 type  1   force =     0.00148876   -0.00288930   -0.00215193
     atom   52 type  1   force =    -0.00148876   -0.00288787    0.00216256
     atom   53 type  1   force =     0.00289201    0.00148835   -0.00215146
     atom   54 type  1   force =     0.00288887   -0.00148954    0.00215776
     atom   55 type  1   force =    -0.00148954    0.00288887   -0.00215776
     atom   56 type  1   force =    -0.00288787   -0.00148876   -0.00216256
     atom   57 type  1   force =     0.00355889    0.00087132    0.00326925
     atom   58 type  1   force =    -0.00087033    0.00355721    0.00326834
     atom   59 type  1   force =     0.00355721   -0.00087033   -0.00326834
     atom   60 type  1   force =    -0.00355630   -0.00086892    0.00327813
     atom   61 type  1   force =     0.00087132    0.00355889   -0.00326925
     atom   62 type  1   force =     0.00086918   -0.00355827    0.00327692
     atom   63 type  1   force =    -0.00355827    0.00086918   -0.00327692
     atom   64 type  1   force =    -0.00086892   -0.00355630   -0.00327813
     atom   65 type  1   force =     0.00069010    0.00406291   -0.01030769
     atom   66 type  1   force =    -0.00406122    0.00069037   -0.01032690
     atom   67 type  1   force =     0.00069037   -0.00406122    0.01032690
     atom   68 type  1   force =    -0.00069113   -0.00406099   -0.01032894
     atom   69 type  1   force =     0.00406291    0.00069010    0.01030769
     atom   70 type  1   force =     0.00406193   -0.00069289   -0.01031369
     atom   71 type  1   force =    -0.00069289    0.00406193    0.01031369
     atom   72 type  1   force =    -0.00406099   -0.00069113    0.01032894
     atom   73 type  1   force =    -0.01046917    0.00413194   -0.00163049
     atom   74 type  1   force =    -0.00412850   -0.01046902   -0.00163914
     atom   75 type  1   force =    -0.01046902   -0.00412850    0.00163914
     atom   76 type  1   force =     0.01046899   -0.00412772   -0.00165542
     atom   77 type  1   force =     0.00413194   -0.01046917    0.00163049
     atom   78 type  1   force =     0.00412849    0.01046836   -0.00165015
     atom   79 type  1   force =     0.01046836    0.00412849    0.00165015
     atom   80 type  1   force =    -0.00412772    0.01046899    0.00165542
     atom   81 type  1   force =    -0.00230069    0.00174147   -0.00238647
     atom   82 type  1   force =    -0.00174074   -0.00230223   -0.00239900
     atom   83 type  1   force =    -0.00230223   -0.00174074    0.00239900
     atom   84 type  1   force =     0.00230244   -0.00174089   -0.00241103
     atom   85 type  1   force =     0.00174147   -0.00230069    0.00238647
     atom   86 type  1   force =     0.00173937    0.00230176   -0.00240017
     atom   87 type  1   force =     0.00230176    0.00173937    0.00240017
     atom   88 type  1   force =    -0.00174089    0.00230244    0.00241103
     atom   89 type  1   force =     0.00660442    0.00480506    0.00312600
     atom   90 type  1   force =    -0.00480453    0.00660599    0.00310869
     atom   91 type  1   force =     0.00660599   -0.00480453   -0.00310869
     atom   92 type  1   force =    -0.00660604   -0.00480562    0.00311369
     atom   93 type  1   force =     0.00480506    0.00660442   -0.00312600
     atom   94 type  1   force =     0.00480478   -0.00660512    0.00312926
     atom   95 type  1   force =    -0.00660512    0.00480478   -0.00312926
     atom   96 type  1   force =    -0.00480562   -0.00660604   -0.00311369
     atom   97 type  1   force =     0.00546332    0.00091208   -0.00571144
     atom   98 type  1   force =    -0.00091095    0.00546387   -0.00571856
     atom   99 type  1   force =     0.00546387   -0.00091095    0.00571856
     atom  100 type  1   force =    -0.00546392   -0.00091140   -0.00570599
     atom  101 type  1   force =     0.00091208    0.00546332    0.00571144
     atom  102 type  1   force =     0.00091164   -0.00546414   -0.00570024
     atom  103 type  1   force =    -0.00546414    0.00091164    0.00570024
     atom  104 type  1   force =    -0.00091140   -0.00546392    0.00570599
     atom  105 type  1   force =     0.00141497    0.00180097   -0.00056336
     atom  106 type  1   force =    -0.00179994    0.00141504   -0.00055512
     atom  107 type  1   force =     0.00141504   -0.00179994    0.00055512
     atom  108 type  1   force =    -0.00141495   -0.00179945   -0.00055629
     atom  109 type  1   force =     0.00180097    0.00141497    0.00056336
     atom  110 type  1   force =     0.00180003   -0.00141485   -0.00056601
     atom  111 type  1   force =    -0.00141485    0.00180003    0.00056601
     atom  112 type  1   force =    -0.00179945   -0.00141495    0.00055629
     atom  113 type  1   force =     0.00697933   -0.00776284   -0.00485533
     atom  114 type  1   force =     0.00776293    0.00698074   -0.00484878
     atom  115 type  1   force =     0.00698074    0.00776293    0.00484878
     atom  116 type  1   force =    -0.00698024    0.00776429   -0.00484424
     atom  117 type  1   force =    -0.00776284    0.00697933    0.00485533
     atom  118 type  1   force =    -0.00776402   -0.00697765   -0.00485244
     atom  119 type  1   force =    -0.00697765   -0.00776402    0.00485244
     atom  120 type  1   force =     0.00776429   -0.00698024    0.00484424
     atom  121 type  1   force =    -0.00746467   -0.00181993   -0.00001459
     atom  122 type  1   force =     0.00182168   -0.00746585   -0.00003241
     atom  123 type  1   force =    -0.00746585    0.00182168    0.00003241
     atom  124 type  1   force =     0.00746674    0.00182336   -0.00004098
     atom  125 type  1   force =    -0.00181993   -0.00746467    0.00001459
     atom  126 type  1   force =    -0.00182231    0.00746468   -0.00002565
     atom  127 type  1   force =     0.00746468   -0.00182231    0.00002565
     atom  128 type  1   force =     0.00182336    0.00746674    0.00004098
     atom  129 type  3   force =     0.00088430   -0.00045487    0.00053038
     atom  130 type  3   force =     0.00045499    0.00088475    0.00052952
     atom  131 type  3   force =     0.00088475    0.00045499   -0.00052952
     atom  132 type  3   force =    -0.00088473    0.00045500    0.00052892
     atom  133 type  3   force =    -0.00045487    0.00088430   -0.00053038
     atom  134 type  3   force =    -0.00045445   -0.00088453    0.00052954
     atom  135 type  3   force =    -0.00088453   -0.00045445   -0.00052954
     atom  136 type  3   force =     0.00045500   -0.00088473   -0.00052892
     atom  137 type  3   force =    -0.00144498    0.00103709   -0.00139889
     atom  138 type  3   force =    -0.00103681   -0.00144478   -0.00139982
     atom  139 type  3   force =    -0.00144478   -0.00103681    0.00139982
     atom  140 type  3   force =     0.00144473   -0.00103702   -0.00140035
     atom  141 type  3   force =     0.00103709   -0.00144498    0.00139889
     atom  142 type  3   force =     0.00103702    0.00144496   -0.00139972
     atom  143 type  3   force =     0.00144496    0.00103702    0.00139972
     atom  144 type  3   force =    -0.00103702    0.00144473    0.00140035
     atom  145 type  3   force =    -0.00003971   -0.00041828   -0.00052246
     atom  146 type  3   force =     0.00041829   -0.00004017   -0.00052297
     atom  147 type  3   force =    -0.00004017    0.00041829    0.00052297
     atom  148 type  3   force =     0.00004044    0.00041849   -0.00052271
     atom  149 type  3   force =    -0.00041828   -0.00003971    0.00052246
     atom  150 type  3   force =    -0.00041860    0.00003980   -0.00052271
     atom  151 type  3   force =     0.00003980   -0.00041860    0.00052271
     atom  152 type  3   force =     0.00041849    0.00004044    0.00052271
     atom  153 type  3   force =    -0.00205500    0.00133378   -0.00089460
     atom  154 type  3   force =    -0.00133396   -0.00205474   -0.00089538
     atom  155 type  3   force =    -0.00205474   -0.00133396    0.00089538
     atom  156 type  3   force =     0.00205490   -0.00133395   -0.00089529
     atom  157 type  3   force =     0.00133378   -0.00205500    0.00089460
     atom  158 type  3   force =     0.00133392    0.00205513   -0.00089487
     atom  159 type  3   force =     0.00205513    0.00133392    0.00089487
     atom  160 type  3   force =    -0.00133395    0.00205490    0.00089529
     atom  161 type  3   force =     0.00088302    0.00036349    0.00008405
     atom  162 type  3   force =    -0.00036288    0.00088314    0.00008392
     atom  163 type  3   force =     0.00088314   -0.00036288   -0.00008392
     atom  164 type  3   force =    -0.00088304   -0.00036282    0.00008372
     atom  165 type  3   force =     0.00036349    0.00088302   -0.00008405
     atom  166 type  3   force =     0.00036325   -0.00088303    0.00008385
     atom  167 type  3   force =    -0.00088303    0.00036325   -0.00008385
     atom  168 type  3   force =    -0.00036282   -0.00088304   -0.00008372
     atom  169 type  3   force =     0.00134774   -0.00244536   -0.00085161
     atom  170 type  3   force =     0.00244559    0.00134787   -0.00085100
     atom  171 type  3   force =     0.00134787    0.00244559    0.00085100
     atom  172 type  3   force =    -0.00134780    0.00244573   -0.00085097
     atom  173 type  3   force =    -0.00244536    0.00134774    0.00085161
     atom  174 type  3   force =    -0.00244561   -0.00134770   -0.00085118
     atom  175 type  3   force =    -0.00134770   -0.00244561    0.00085118
     atom  176 type  3   force =     0.00244573   -0.00134780    0.00085097

     Total force =     0.098886     Total SCF correction =     0.000203


     Computing stress (Cartesian axis) and pressure

          total   stress  (Ry/bohr**3)                   (kbar)     P=   -6.39
  -0.00004989  -0.00000000   0.00000000         -7.34     -0.00      0.00
  -0.00000000  -0.00004989  -0.00000000         -0.00     -7.34     -0.00
   0.00000000  -0.00000000  -0.00003063          0.00     -0.00     -4.51


     Writing output data file scf.save
 
     init_run     :     97.63s CPU    101.40s WALL (       1 calls)
     electrons    :   3897.38s CPU   4040.96s WALL (       1 calls)
     forces       :     50.09s CPU     50.68s WALL (       1 calls)
     stress       :    454.77s CPU    455.47s WALL (       1 calls)

     Called by init_run:
     wfcinit      :     87.78s CPU     91.22s WALL (       1 calls)
     potinit      :      3.41s CPU      3.50s WALL (       1 calls)

     Called by electrons:
     c_bands      :   3544.85s CPU   3665.14s WALL (      17 calls)
     sum_band     :    321.58s CPU    341.02s WALL (      17 calls)
     v_of_rho     :      4.09s CPU      4.51s WALL (      18 calls)
     newd         :     12.12s CPU     15.52s WALL (      18 calls)
     PAW_pot      :     13.55s CPU     13.56s WALL (      18 calls)
     mix_rho      :      1.13s CPU      1.23s WALL (      17 calls)

     Called by c_bands:
     init_us_2    :     17.55s CPU     17.64s WALL (     148 calls)
     cegterg      :   3470.83s CPU   3591.07s WALL (      68 calls)

     Called by sum_band:
     sum_band:bec :      0.16s CPU      0.16s WALL (      68 calls)
     addusdens    :     12.10s CPU     15.29s WALL (      17 calls)

     Called by *egterg:
     h_psi        :   1695.05s CPU   1790.62s WALL (     368 calls)
     s_psi        :    466.45s CPU    466.49s WALL (     368 calls)
     g_psi        :      9.57s CPU      9.57s WALL (     296 calls)
     cdiaghg      :    284.45s CPU    284.49s WALL (     364 calls)

     Called by h_psi:
     h_psi:pot    :   1683.89s CPU   1779.28s WALL (     368 calls)
     h_psi:calbec :    448.94s CPU    449.53s WALL (     368 calls)
     vloc_psi     :    768.59s CPU    863.34s WALL (     368 calls)
     add_vuspsi   :    466.36s CPU    466.41s WALL (     368 calls)

     General routines
     calbec       :    651.01s CPU    651.86s WALL (     456 calls)
     fft          :      2.28s CPU      2.98s WALL (     258 calls)
     fftw         :    816.47s CPU    926.85s WALL (  170354 calls)
 
     Parallel routines
     fft_scatter  :    135.51s CPU    246.24s WALL (  170612 calls)
 
     PWSCF        :     1h15m CPU        1h18m WALL

 
   This run was terminated on:   0:37:38   5Nov2017            

=------------------------------------------------------------------------------=
   JOB DONE.
=------------------------------------------------------------------------------=
