
     Program PWSCF v.6.1 (svn rev. 13369) starts on  5Dec2017 at  5:27: 4 

     This program is part of the open-source Quantum ESPRESSO suite
     for quantum simulation of materials; please cite
         "P. Giannozzi et al., J. Phys.:Condens. Matter 21 395502 (2009);
          URL http://www.quantum-espresso.org", 
     in publications or presentations arising from this work. More details at
     http://www.quantum-espresso.org/quote

     Parallel version (MPI), running on     8 processors
     R & G space division:  proc/nbgrp/npool/nimage =       8
     Waiting for input...
     Reading input from standard input

     Current dimensions of program PWSCF are:
     Max number of different atomic species (ntypx) = 10
     Max number of k-points (npk) =  40000
     Max angular momentum in pseudopotentials (lmaxx) =  3
               file C.pbe-n-kjpaw_psl.0.1.UPF: wavefunction(s)  2P renormalized
               file N.pbe-n-kjpaw_psl.0.1.UPF: wavefunction(s)  2P renormalized
               file H.pbe-kjpaw_psl.0.1.UPF: wavefunction(s)  1S renormalized
               file O.pbe-n-kjpaw_psl.0.1.UPF: wavefunction(s)  2P renormalized

     -------------------------------------
     Parameters for Dispersion Correction:
     -------------------------------------
       atom      VdW radius       C_6     

        C          2.744         60.710
        N          2.640         42.670
        H          1.892          4.857
        O          2.536         24.284

     Subspace diagonalization in iterative solution of the eigenvalue problem:
     a serial algorithm will be used

 
     Parallelization info
     --------------------
     sticks:   dense  smooth     PW     G-vecs:    dense   smooth      PW
     Min         885     885    238                44837    44837    6244
     Max         886     886    239                44839    44839    6246
     Sum        7085    7085   1905               358703   358703   49955
 


     bravais-lattice index     =            0
     lattice parameter (alat)  =      22.4254  a.u.
     unit-cell volume          =    2654.5879 (a.u.)^3
     number of atoms/cell      =           40
     number of atomic types    =            4
     number of electrons       =       136.00
     number of Kohn-Sham states=           81
     kinetic-energy cutoff     =     100.0000  Ry
     charge density cutoff     =     400.0000  Ry
     convergence threshold     =      1.0E-08
     mixing beta               =       0.5000
     number of iterations used =            8  plain     mixing
     Exchange-correlation      =  SLA  PW   PBX  PBC ( 1  4  3  4 0 0)

     celldm(1)=  22.425380  celldm(2)=   0.000000  celldm(3)=   0.000000
     celldm(4)=   0.000000  celldm(5)=   0.000000  celldm(6)=   0.000000

     crystal axes: (cart. coord. in units of alat)
               a(1) = (   1.000000   0.000000   0.000000 )  
               a(2) = (   0.000000   0.442151   0.000000 )  
               a(3) = (  -0.252670   0.000000   0.532363 )  

     reciprocal axes: (cart. coord. in units 2 pi/alat)
               b(1) = (  1.000000  0.000000  0.474621 )  
               b(2) = (  0.000000  2.261673  0.000000 )  
               b(3) = (  0.000000  0.000000  1.878419 )  


     PseudoPot. # 1 for  C read from file:
     /scratch/ahofstet/pseudo/C.pbe-n-kjpaw_psl.0.1.UPF
     MD5 check sum: 430fe95172b1e11ef3f8ed03bac87931
     Pseudo is Projector augmented-wave + core cor, Zval =  4.0
     Generated using "atomic" code by A. Dal Corso  v.5.0.99 svn rev. 10869
     Shape of augmentation charge: BESSEL
     Using radial grid of 1073 points,  4 beta functions with: 
                l(1) =   0
                l(2) =   0
                l(3) =   1
                l(4) =   1
     Q(r) pseudized with 0 coefficients 


     PseudoPot. # 2 for  N read from file:
     /scratch/ahofstet/pseudo/N.pbe-n-kjpaw_psl.0.1.UPF
     MD5 check sum: f73187c8b701007e77325f868c9291d7
     Pseudo is Projector augmented-wave + core cor, Zval =  5.0
     Generated using "atomic" code by A. Dal Corso  v.5.0.99 svn rev. 10869
     Shape of augmentation charge: PSQ
     Using radial grid of 1085 points,  4 beta functions with: 
                l(1) =   0
                l(2) =   0
                l(3) =   1
                l(4) =   1
     Q(r) pseudized with 0 coefficients 


     PseudoPot. # 3 for  H read from file:
     /scratch/ahofstet/pseudo/H.pbe-kjpaw_psl.0.1.UPF
     MD5 check sum: 94e484f906d9e9773b2f6e52662335b2
     Pseudo is Projector augmented-wave, Zval =  1.0
     Generated using "atomic" code by A. Dal Corso  v.5.0.99 svn rev. 10869
     Shape of augmentation charge: PSQ
     Using radial grid of  929 points,  2 beta functions with: 
                l(1) =   0
                l(2) =   0
     Q(r) pseudized with 0 coefficients 


     PseudoPot. # 4 for  O read from file:
     /scratch/ahofstet/pseudo/O.pbe-n-kjpaw_psl.0.1.UPF
     MD5 check sum: 3f94a2996a3169367d6eb21d9b593f20
     Pseudo is Projector augmented-wave + core cor, Zval =  6.0
     Generated using "atomic" code by A. Dal Corso  v.5.0.99 svn rev. 10869
     Shape of augmentation charge: BESSEL
     Using radial grid of 1095 points,  4 beta functions with: 
                l(1) =   0
                l(2) =   0
                l(3) =   1
                l(4) =   1
     Q(r) pseudized with 0 coefficients 


     atomic species   valence    mass     pseudopotential
        C              4.00    12.01070      C( 1.00)
        N              5.00    14.00670      N( 1.00)
        H              1.00     1.00794      H( 1.00)
        O              6.00    15.99940      O( 1.00)

      4 Sym. Ops., with inversion, found ( 2 have fractional translation)



   Cartesian axes

     site n.     atom                  positions (alat units)
         1           C   tau(   1) = (  -0.1009407   0.3748310   0.4609251  )
         2           C   tau(   2) = (   0.7219349   0.1537557   0.3376189  )
         3           C   tau(   3) = (   0.8482702   0.0673195   0.0714375  )
         4           C   tau(   4) = (   0.0253946   0.2883948   0.1947438  )
         5           C   tau(   5) = (  -0.0405607   0.0212041   0.5255732  )
         6           C   tau(   6) = (   0.6615549   0.2422794   0.2729707  )
         7           C   tau(   7) = (   0.7878902   0.4209464   0.0067894  )
         8           C   tau(   8) = (   0.0857746   0.1998711   0.2593919  )
         9           C   tau(   9) = (   0.0897434   0.0094648   0.5278253  )
        10           C   tau(  10) = (   0.5312508   0.2305400   0.2707186  )
        11           C   tau(  11) = (   0.6575861   0.4326857   0.0045373  )
        12           C   tau(  12) = (   0.2160787   0.2116105   0.2616440  )
        13           O   tau(  13) = (   0.1669950   0.0981268   0.0446121  )
        14           O   tau(  14) = (   0.7066697   0.3192021   0.2215692  )
        15           O   tau(  15) = (   0.5803345   0.3440237   0.4877505  )
        16           O   tau(  16) = (   0.0406598   0.1229484   0.3107934  )
        17           O   tau(  17) = (   0.3923164   0.0868285   0.0561174  )
        18           O   tau(  18) = (   0.4813484   0.3079038   0.2100639  )
        19           O   tau(  19) = (   0.3550131   0.3553220   0.4762452  )
        20           O   tau(  20) = (   0.2659811   0.1342467   0.3222987  )
        21           O   tau(  21) = (   0.1361318   0.3737536   0.4762996  )
        22           O   tau(  22) = (   0.4848624   0.1526784   0.3222443  )
        23           O   tau(  23) = (   0.6111977   0.0683969   0.0560630  )
        24           O   tau(  24) = (   0.2624671   0.2894721   0.2101183  )
        25           H   tau(  25) = (  -0.0815865   0.2906466   0.4976793  )
        26           H   tau(  26) = (   0.7025808   0.0695713   0.3008646  )
        27           H   tau(  27) = (   0.8289160   0.1515039   0.0346833  )
        28           H   tau(  28) = (   0.0447487   0.3725792   0.2314980  )
        29           H   tau(  29) = (  -0.0683274   0.3714642   0.3750131  )
        30           H   tau(  30) = (   0.6893217   0.1503889   0.4235308  )
        31           H   tau(  31) = (   0.8156569   0.0706863   0.1573495  )
        32           H   tau(  32) = (   0.0580078   0.2917616   0.1088318  )
        33           H   tau(  33) = (  -0.1918641   0.3901559   0.4609753  )
        34           H   tau(  34) = (   0.8128584   0.1690807   0.3375687  )
        35           H   tau(  35) = (   0.9391936   0.0519946   0.0713873  )
        36           H   tau(  36) = (  -0.0655289   0.2730698   0.1947940  )
        37           H   tau(  37) = (   0.4784993   0.0769698   0.0543341  )
        38           H   tau(  38) = (   0.3951655   0.2980451   0.2118472  )
        39           H   tau(  39) = (   0.2688302   0.3651807   0.4780285  )
        40           H   tau(  40) = (   0.3521640   0.1441054   0.3205154  )

     number of k points=    12
                       cart. coord. in units 2pi/alat
        k(    1) = (   0.0000000   0.0000000   0.0000000), wk =   0.0833333
        k(    2) = (   0.0000000   0.0000000   0.6261396), wk =   0.1666667
        k(    3) = (   0.0000000   0.5654183   0.0000000), wk =   0.1666667
        k(    4) = (   0.0000000   0.5654183   0.6261396), wk =   0.3333333
        k(    5) = (   0.0000000  -1.1308367   0.0000000), wk =   0.0833333
        k(    6) = (   0.0000000  -1.1308367   0.6261396), wk =   0.1666667
        k(    7) = (  -0.5000000   0.0000000  -0.2373105), wk =   0.0833333
        k(    8) = (  -0.5000000   0.0000000   0.3888291), wk =   0.1666667
        k(    9) = (  -0.5000000   0.5654183  -0.2373105), wk =   0.1666667
        k(   10) = (  -0.5000000   0.5654183   0.3888291), wk =   0.3333333
        k(   11) = (  -0.5000000  -1.1308367  -0.2373105), wk =   0.0833333
        k(   12) = (  -0.5000000  -1.1308367   0.3888291), wk =   0.1666667

     Dense  grid:   358703 G-vectors     FFT dimensions: ( 144,  64,  90)

     Estimated max dynamical RAM per process >     195.66MB

     Estimated total allocated dynamical RAM >    1565.32MB

     Check: negative/imaginary core charge=   -0.000003    0.000000

     Initial potential from superposition of free atoms

     starting charge  135.99933, renormalised to  136.00000
     Starting wfc are  112 randomized atomic wfcs
     Checking if some PAW data can be deallocated... 

     total cpu time spent up to now is       12.1 secs

     per-process dynamical memory:   197.0 Mb

     Self-consistent Calculation

     iteration #  1     ecut=   100.00 Ry     beta=0.50
     Davidson diagonalization with overlap
     ethr =  1.00E-02,  avg # of iterations =  4.6

     total cpu time spent up to now is       39.1 secs

     total energy              =    -739.28783599 Ry
     Harris-Foulkes estimate   =    -741.67994545 Ry
     estimated scf accuracy    <       4.32946886 Ry

     iteration #  2     ecut=   100.00 Ry     beta=0.50
     Davidson diagonalization with overlap
     ethr =  3.18E-03,  avg # of iterations =  3.1

     total cpu time spent up to now is       56.1 secs

     total energy              =    -740.04543271 Ry
     Harris-Foulkes estimate   =    -740.39854777 Ry
     estimated scf accuracy    <       0.73702065 Ry

     iteration #  3     ecut=   100.00 Ry     beta=0.50
     Davidson diagonalization with overlap
     ethr =  5.42E-04,  avg # of iterations =  4.1

     total cpu time spent up to now is       75.0 secs

     total energy              =    -740.26714282 Ry
     Harris-Foulkes estimate   =    -740.33669501 Ry
     estimated scf accuracy    <       0.18262520 Ry

     iteration #  4     ecut=   100.00 Ry     beta=0.50
     Davidson diagonalization with overlap
     ethr =  1.34E-04,  avg # of iterations =  2.2

     total cpu time spent up to now is       89.2 secs

     total energy              =    -740.27972908 Ry
     Harris-Foulkes estimate   =    -740.29176157 Ry
     estimated scf accuracy    <       0.03256535 Ry

     iteration #  5     ecut=   100.00 Ry     beta=0.50
     Davidson diagonalization with overlap
     ethr =  2.39E-05,  avg # of iterations =  6.2

     total cpu time spent up to now is      114.7 secs

     total energy              =    -740.29318436 Ry
     Harris-Foulkes estimate   =    -740.30005459 Ry
     estimated scf accuracy    <       0.01902195 Ry

     iteration #  6     ecut=   100.00 Ry     beta=0.50
     Davidson diagonalization with overlap
     ethr =  1.40E-05,  avg # of iterations =  1.3

     total cpu time spent up to now is      127.8 secs

     total energy              =    -740.29030883 Ry
     Harris-Foulkes estimate   =    -740.29416178 Ry
     estimated scf accuracy    <       0.00662327 Ry

     iteration #  7     ecut=   100.00 Ry     beta=0.50
     Davidson diagonalization with overlap
     ethr =  4.87E-06,  avg # of iterations =  5.8

     total cpu time spent up to now is      152.1 secs

     total energy              =    -740.29417395 Ry
     Harris-Foulkes estimate   =    -740.29525291 Ry
     estimated scf accuracy    <       0.00285127 Ry

     iteration #  8     ecut=   100.00 Ry     beta=0.50
     Davidson diagonalization with overlap
     ethr =  2.10E-06,  avg # of iterations =  1.2

     total cpu time spent up to now is      165.1 secs

     total energy              =    -740.29371796 Ry
     Harris-Foulkes estimate   =    -740.29428424 Ry
     estimated scf accuracy    <       0.00098973 Ry

     iteration #  9     ecut=   100.00 Ry     beta=0.50
     Davidson diagonalization with overlap
     ethr =  7.28E-07,  avg # of iterations =  5.0

     total cpu time spent up to now is      188.4 secs

     total energy              =    -740.29433135 Ry
     Harris-Foulkes estimate   =    -740.29448604 Ry
     estimated scf accuracy    <       0.00041741 Ry

     iteration # 10     ecut=   100.00 Ry     beta=0.50
     Davidson diagonalization with overlap
     ethr =  3.07E-07,  avg # of iterations =  2.0

     total cpu time spent up to now is      201.8 secs

     total energy              =    -740.29426217 Ry
     Harris-Foulkes estimate   =    -740.29434556 Ry
     estimated scf accuracy    <       0.00013928 Ry

     iteration # 11     ecut=   100.00 Ry     beta=0.50
     Davidson diagonalization with overlap
     ethr =  1.02E-07,  avg # of iterations =  4.0

     total cpu time spent up to now is      224.1 secs

     total energy              =    -740.29435620 Ry
     Harris-Foulkes estimate   =    -740.29438162 Ry
     estimated scf accuracy    <       0.00007546 Ry

     iteration # 12     ecut=   100.00 Ry     beta=0.50
     Davidson diagonalization with overlap
     ethr =  5.55E-08,  avg # of iterations =  1.0

     total cpu time spent up to now is      237.0 secs

     total energy              =    -740.29434203 Ry
     Harris-Foulkes estimate   =    -740.29435794 Ry
     estimated scf accuracy    <       0.00003147 Ry

     iteration # 13     ecut=   100.00 Ry     beta=0.50
     Davidson diagonalization with overlap
     ethr =  2.31E-08,  avg # of iterations =  3.8

     total cpu time spent up to now is      257.5 secs

     total energy              =    -740.29435730 Ry
     Harris-Foulkes estimate   =    -740.29435886 Ry
     estimated scf accuracy    <       0.00000419 Ry

     iteration # 14     ecut=   100.00 Ry     beta=0.50
     Davidson diagonalization with overlap
     ethr =  3.08E-09,  avg # of iterations =  1.4

     total cpu time spent up to now is      270.6 secs

     total energy              =    -740.29435680 Ry
     Harris-Foulkes estimate   =    -740.29435744 Ry
     estimated scf accuracy    <       0.00000152 Ry

     iteration # 15     ecut=   100.00 Ry     beta=0.50
     Davidson diagonalization with overlap
     ethr =  1.12E-09,  avg # of iterations =  3.6

     total cpu time spent up to now is      290.6 secs

     total energy              =    -740.29435757 Ry
     Harris-Foulkes estimate   =    -740.29435758 Ry
     estimated scf accuracy    <       0.00000008 Ry

     iteration # 16     ecut=   100.00 Ry     beta=0.50
     Davidson diagonalization with overlap
     ethr =  5.74E-11,  avg # of iterations =  2.0

     total cpu time spent up to now is      304.2 secs

     total energy              =    -740.29435755 Ry
     Harris-Foulkes estimate   =    -740.29435758 Ry
     estimated scf accuracy    <       0.00000007 Ry

     iteration # 17     ecut=   100.00 Ry     beta=0.50
     Davidson diagonalization with overlap
     ethr =  4.86E-11,  avg # of iterations =  3.0

     total cpu time spent up to now is      319.2 secs

     End of self-consistent calculation

          k = 0.0000 0.0000 0.0000 ( 44839 PWs)   bands (ev):

   -21.8985 -21.7869 -21.5304 -21.4993 -20.2758 -20.2316 -20.2297 -20.2034
   -19.6062 -19.5937 -19.2219 -19.2121 -12.7233 -12.5859 -12.5839 -12.5547
   -10.8562 -10.6946 -10.1622 -10.1087  -8.1416  -8.0637  -7.7871  -7.6127
    -6.3736  -6.3600  -6.1156  -6.0912  -6.0642  -5.9451  -5.8446  -5.6805
    -5.6499  -5.3488  -5.1382  -4.9819  -4.6330  -4.6271  -4.6223  -4.3934
    -4.3733  -4.2375  -4.2094  -4.1288  -3.8461  -3.8387  -3.5194  -3.4033
    -3.3829  -3.2665  -3.2223  -3.2211  -2.6592  -2.4841  -2.4747  -2.4633
    -2.1702  -1.6639  -1.6047  -1.5431  -1.4861  -1.4060  -1.2951  -1.2329
     0.0523   0.1351   0.2771   0.4288   2.9018   3.0054   3.4413   3.6440
     6.3736   6.4137   6.5407   6.5598   6.6416   7.1976   7.2839   8.1418
     8.4984

          k = 0.0000 0.0000 0.6261 ( 44828 PWs)   bands (ev):

   -21.8723 -21.8168 -21.5214 -21.5056 -20.2638 -20.2408 -20.2247 -20.2106
   -19.6031 -19.5968 -19.2196 -19.2147 -12.6950 -12.6355 -12.5553 -12.5500
   -10.8262 -10.7455 -10.1517 -10.1246  -8.1329  -8.0931  -7.7455  -7.6585
    -6.3867  -6.3384  -6.2252  -6.1856  -6.1157  -6.0738  -5.6314  -5.6206
    -5.3835  -5.2880  -5.1356  -5.0864  -4.5779  -4.5658  -4.5104  -4.3513
    -4.3371  -4.3062  -4.1442  -4.0836  -3.9575  -3.8886  -3.4792  -3.4653
    -3.3543  -3.2679  -3.2335  -3.0928  -2.8635  -2.7209  -2.5344  -2.5096
    -2.0518  -1.8162  -1.5788  -1.5399  -1.4780  -1.4241  -1.2697  -1.2365
     0.0573   0.0948   0.3293   0.4039   3.0446   3.1713   3.3200   3.4862
     6.4209   6.4972   6.6115   6.6488   6.8505   7.1253   7.6915   8.0495
     8.2842

          k = 0.0000 0.5654 0.0000 ( 44784 PWs)   bands (ev):

   -21.8797 -21.8006 -21.5229 -21.5009 -20.2707 -20.2456 -20.2151 -20.2027
   -19.6095 -19.6003 -19.2244 -19.2174 -12.7757 -12.7028 -12.5401 -12.4962
   -10.8294 -10.7155 -10.1493 -10.1112  -8.1362  -8.0881  -7.7312  -7.5923
    -6.3248  -6.3099  -6.2595  -6.1424  -6.0272  -5.9045  -5.7107  -5.6736
    -5.4278  -5.3300  -5.2863  -5.1690  -4.6958  -4.6314  -4.5875  -4.4550
    -4.3767  -4.2676  -4.2483  -4.2116  -4.0521  -3.9410  -3.5632  -3.4016
    -3.3739  -3.2622  -2.9798  -2.9009  -2.5750  -2.5506  -2.4484  -2.3589
    -2.0009  -1.6613  -1.5624  -1.5093  -1.4959  -1.4320  -1.2763  -1.2722
     0.0442   0.1204   0.3187   0.4249   2.8210   2.8960   3.3098   3.4718
     6.2617   6.3178   6.4800   6.5395   6.8029   7.5064   7.6440   8.2133
     8.4799

          k = 0.0000 0.5654 0.6261 ( 44842 PWs)   bands (ev):

   -21.8604 -21.8209 -21.5172 -21.5060 -20.2600 -20.2447 -20.2192 -20.2101
   -19.6074 -19.6028 -19.2228 -19.2192 -12.7243 -12.6618 -12.5902 -12.5399
   -10.8043 -10.7478 -10.1427 -10.1231  -8.1283  -8.1019  -7.7013  -7.6332
    -6.3422  -6.3092  -6.2193  -6.0992  -6.0140  -5.9611  -5.7175  -5.6025
    -5.4785  -5.2916  -5.2487  -5.1945  -4.7260  -4.6460  -4.5245  -4.4596
    -4.3310  -4.2652  -4.1863  -4.1423  -4.0536  -3.9932  -3.5460  -3.4624
    -3.4019  -3.2815  -2.8983  -2.8204  -2.6527  -2.5937  -2.5622  -2.5046
    -1.9223  -1.7590  -1.5514  -1.5295  -1.4634  -1.4264  -1.2782  -1.2700
     0.0648   0.1024   0.3418   0.3972   2.9325   3.0372   3.1937   3.3355
     6.2777   6.3084   6.5044   6.5289   7.2238   7.4701   7.9837   8.1040
     8.3848

          k = 0.0000-1.1308 0.0000 ( 44844 PWs)   bands (ev):

   -21.8375 -21.8375 -21.5090 -21.5090 -20.2590 -20.2590 -20.2049 -20.2049
   -19.6099 -19.6099 -19.2248 -19.2248 -12.7926 -12.7926 -12.4983 -12.4983
   -10.7691 -10.7691 -10.1253 -10.1253  -8.1197  -8.1197  -7.6241  -7.6241
    -6.2978  -6.2978  -6.1945  -6.1945  -6.0186  -6.0186  -5.5900  -5.5900
    -5.3709  -5.3709  -5.2494  -5.2494  -4.6419  -4.6419  -4.5884  -4.5884
    -4.4503  -4.4503  -4.1834  -4.1834  -4.1117  -4.1117  -3.5521  -3.5521
    -3.3313  -3.3313  -2.6597  -2.6597  -2.5402  -2.5402  -2.3434  -2.3434
    -1.7538  -1.7538  -1.4968  -1.4968  -1.4824  -1.4824  -1.2904  -1.2904
     0.0710   0.0710   0.3868   0.3868   2.7586   2.7586   3.2366   3.2366
     6.1588   6.1588   6.4408   6.4408   7.5389   7.5389   8.1006   8.1006
     8.5017

          k = 0.0000-1.1308 0.6261 ( 44890 PWs)   bands (ev):

   -21.8367 -21.8367 -21.5097 -21.5097 -20.2520 -20.2520 -20.2121 -20.2121
   -19.6103 -19.6103 -19.2249 -19.2249 -12.7272 -12.7272 -12.5708 -12.5708
   -10.7661 -10.7661 -10.1279 -10.1279  -8.1171  -8.1171  -7.6326  -7.6326
    -6.2912  -6.2912  -6.0309  -6.0309  -5.9288  -5.9288  -5.7126  -5.7126
    -5.4952  -5.4952  -5.2997  -5.2997  -4.7496  -4.7496  -4.5928  -4.5928
    -4.3063  -4.3063  -4.1541  -4.1541  -4.0872  -4.0872  -3.5394  -3.5394
    -3.3282  -3.3282  -2.6241  -2.6241  -2.5450  -2.5450  -2.4563  -2.4563
    -1.7552  -1.7552  -1.5432  -1.5432  -1.4228  -1.4228  -1.3037  -1.3037
     0.0886   0.0886   0.3711   0.3711   2.8526   2.8526   3.1332   3.1332
     6.1558   6.1558   6.4244   6.4244   7.8197   7.8197   8.2226   8.2226
     8.4221

          k =-0.5000 0.0000-0.2373 ( 44764 PWs)   bands (ev):

   -21.8983 -21.7869 -21.5308 -21.4993 -20.2700 -20.2373 -20.2284 -20.2047
   -19.6064 -19.5936 -19.2217 -19.2121 -12.6763 -12.6612 -12.6171 -12.4977
   -10.7501 -10.7446 -10.2192 -10.1232  -8.1870  -8.0935  -7.6561  -7.5823
    -6.4184  -6.4025  -6.1306  -6.0738  -6.0148  -5.9934  -5.8740  -5.7075
    -5.6518  -5.3308  -5.0984  -5.0031  -4.6334  -4.5053  -4.4855  -4.4712
    -4.3961  -4.1870  -4.1835  -4.1478  -3.9146  -3.8022  -3.7508  -3.5799
    -3.4433  -3.2969  -3.0786  -3.0002  -2.5853  -2.5632  -2.5253  -2.4507
    -2.1577  -1.6599  -1.6139  -1.5444  -1.4830  -1.4116  -1.2385  -1.2138
     0.0903   0.1685   0.2716   0.3016   2.8958   3.0128   3.4728   3.6149
     6.3798   6.4603   6.4991   6.6450   6.6475   6.6831   8.0773   8.1183
     8.4815

          k =-0.5000 0.0000 0.3888 ( 44817 PWs)   bands (ev):

   -21.8722 -21.8168 -21.5216 -21.5056 -20.2596 -20.2388 -20.2288 -20.2125
   -19.6032 -19.5969 -19.2194 -19.2146 -12.6725 -12.6644 -12.5815 -12.5219
   -10.7549 -10.7532 -10.2013 -10.1529  -8.1823  -8.1367  -7.6338  -7.5946
    -6.4084  -6.3826  -6.2356  -6.1666  -6.0990  -6.0964  -5.6545  -5.6439
    -5.3926  -5.2530  -5.1476  -5.0585  -4.5058  -4.4918  -4.4905  -4.4347
    -4.3291  -4.2694  -4.1707  -4.0654  -3.9258  -3.8907  -3.7605  -3.7054
    -3.2650  -3.1746  -3.0880  -3.0145  -2.8559  -2.7248  -2.5573  -2.5441
    -2.0600  -1.8181  -1.5721  -1.5400  -1.4667  -1.4150  -1.2328  -1.2188
     0.0950   0.1386   0.2856   0.3044   3.0501   3.1641   3.3354   3.4690
     6.4503   6.4941   6.5626   6.6602   6.8199   7.4379   7.8691   7.8704
     7.9944

          k =-0.5000 0.5654-0.2373 ( 44812 PWs)   bands (ev):

   -21.8795 -21.8006 -21.5233 -21.5010 -20.2661 -20.2468 -20.2170 -20.2041
   -19.6097 -19.6003 -19.2243 -19.2174 -12.7714 -12.7055 -12.5665 -12.4768
   -10.7409 -10.7371 -10.2044 -10.1373  -8.1902  -8.1159  -7.6027  -7.5539
    -6.3839  -6.3478  -6.2117  -6.1614  -5.9900  -5.9453  -5.7179  -5.7176
    -5.4517  -5.3420  -5.2042  -5.1503  -4.6678  -4.5465  -4.5207  -4.4932
    -4.3984  -4.3905  -4.2751  -4.1094  -3.9769  -3.9728  -3.7910  -3.6414
    -3.2145  -3.1050  -2.9599  -2.8481  -2.5967  -2.5962  -2.4409  -2.3720
    -1.9911  -1.6589  -1.5626  -1.5040  -1.4985  -1.4360  -1.2547  -1.2321
     0.0973   0.1382   0.2868   0.3252   2.8090   2.9105   3.3376   3.4424
     6.2667   6.3422   6.4756   6.5016   6.9743   7.0482   8.2042   8.2772
     8.5433

          k =-0.5000 0.5654 0.3888 ( 44832 PWs)   bands (ev):

   -21.8603 -21.8209 -21.5174 -21.5061 -20.2563 -20.2431 -20.2222 -20.2121
   -19.6076 -19.6029 -19.2226 -19.2192 -12.7217 -12.6677 -12.5986 -12.5328
   -10.7448 -10.7435 -10.1884 -10.1550  -8.1734  -8.1381  -7.5995  -7.5696
    -6.3982  -6.3324  -6.1854  -6.1318  -6.0033  -5.9771  -5.7642  -5.6282
    -5.4164  -5.2971  -5.2509  -5.1643  -4.5900  -4.5800  -4.5426  -4.4944
    -4.4042  -4.2769  -4.1869  -4.0885  -4.0605  -3.9618  -3.8095  -3.6774
    -3.2078  -3.1511  -2.8868  -2.7925  -2.6705  -2.5857  -2.5725  -2.5388
    -1.9256  -1.7606  -1.5473  -1.5213  -1.4601  -1.4211  -1.2464  -1.2358
     0.1026   0.1348   0.2930   0.3128   2.9390   3.0351   3.2118   3.3092
     6.3019   6.3377   6.4695   6.5086   7.1920   7.6863   8.0796   8.1540
     8.2259

          k =-0.5000-1.1308-0.2373 ( 44788 PWs)   bands (ev):

   -21.8374 -21.8374 -21.5092 -21.5092 -20.2572 -20.2572 -20.2066 -20.2066
   -19.6099 -19.6099 -19.2247 -19.2247 -12.7932 -12.7932 -12.5007 -12.5007
   -10.7305 -10.7305 -10.1703 -10.1703  -8.1644  -8.1644  -7.5395  -7.5395
    -6.2916  -6.2916  -6.2003  -6.2003  -6.0430  -6.0430  -5.6351  -5.6351
    -5.3382  -5.3382  -5.2257  -5.2257  -4.6785  -4.6785  -4.5854  -4.5854
    -4.4165  -4.4165  -4.1986  -4.1986  -4.0327  -4.0327  -3.8022  -3.8022
    -3.1415  -3.1415  -2.6689  -2.6689  -2.5635  -2.5635  -2.3441  -2.3441
    -1.7525  -1.7525  -1.4979  -1.4979  -1.4740  -1.4740  -1.2643  -1.2643
     0.1084   0.1084   0.3185   0.3185   2.7611   2.7611   3.2336   3.2336
     6.1811   6.1811   6.4198   6.4198   7.6991   7.6991   7.9621   7.9621
     8.6006

          k =-0.5000-1.1308 0.3888 ( 44832 PWs)   bands (ev):

   -21.8366 -21.8366 -21.5099 -21.5099 -20.2495 -20.2495 -20.2145 -20.2145
   -19.6104 -19.6104 -19.2248 -19.2248 -12.7290 -12.7290 -12.5712 -12.5712
   -10.7341 -10.7341 -10.1666 -10.1666  -8.1519  -8.1519  -7.5549  -7.5549
    -6.3322  -6.3322  -6.0392  -6.0392  -5.9332  -5.9332  -5.7614  -5.7614
    -5.4485  -5.4485  -5.2723  -5.2723  -4.6589  -4.6589  -4.6119  -4.6119
    -4.3407  -4.3407  -4.1732  -4.1732  -4.0565  -4.0565  -3.7423  -3.7423
    -3.1790  -3.1790  -2.6220  -2.6220  -2.5678  -2.5678  -2.4569  -2.4569
    -1.7535  -1.7535  -1.5396  -1.5396  -1.4218  -1.4218  -1.2641  -1.2641
     0.1213   0.1213   0.3066   0.3066   2.8630   2.8630   3.1209   3.1209
     6.1869   6.1869   6.3913   6.3913   7.8411   7.8411   8.2335   8.2335
     8.5472

     highest occupied, lowest unoccupied level (ev):     0.4288    2.7586

!    total energy              =    -740.29435755 Ry
     Harris-Foulkes estimate   =    -740.29435756 Ry
     estimated scf accuracy    <          7.4E-09 Ry

     total all-electron energy =     -2739.626214 Ry

     The total energy is the sum of the following terms:

     one-electron contribution =    -395.54724221 Ry
     hartree contribution      =     251.34454643 Ry
     xc contribution           =    -149.65184530 Ry
     ewald contribution        =    -252.24015515 Ry
     Dispersion Correction     =      -0.16669646 Ry
     one-center paw contrib.   =    -194.03296486 Ry

     convergence has been achieved in  17 iterations

     Forces acting on atoms (cartesian axes, Ry/au):

     atom    1 type  1   force =    -0.00281316   -0.01656072    0.00702213
     atom    2 type  1   force =     0.00281316   -0.01656072   -0.00702213
     atom    3 type  1   force =     0.00281316    0.01656072   -0.00702213
     atom    4 type  1   force =    -0.00281316    0.01656072    0.00702213
     atom    5 type  1   force =     0.00251493    0.00561039    0.01150420
     atom    6 type  1   force =    -0.00251493    0.00561039   -0.01150420
     atom    7 type  1   force =    -0.00251493   -0.00561039   -0.01150420
     atom    8 type  1   force =     0.00251493   -0.00561039    0.01150420
     atom    9 type  1   force =     0.00006097    0.00030085   -0.00170964
     atom   10 type  1   force =    -0.00006097    0.00030085    0.00170964
     atom   11 type  1   force =    -0.00006097   -0.00030085    0.00170964
     atom   12 type  1   force =     0.00006097   -0.00030085   -0.00170964
     atom   13 type  4   force =    -0.00189365   -0.00704709   -0.00664855
     atom   14 type  4   force =     0.00189365   -0.00704709    0.00664855
     atom   15 type  4   force =     0.00189365    0.00704709    0.00664855
     atom   16 type  4   force =    -0.00189365    0.00704709   -0.00664855
     atom   17 type  4   force =     0.00121954   -0.00195930   -0.00153347
     atom   18 type  4   force =    -0.00121954   -0.00195930    0.00153347
     atom   19 type  4   force =    -0.00121954    0.00195930    0.00153347
     atom   20 type  4   force =     0.00121954    0.00195930   -0.00153347
     atom   21 type  4   force =     0.00179638    0.00198909    0.00352375
     atom   22 type  4   force =    -0.00179638    0.00198909   -0.00352375
     atom   23 type  4   force =    -0.00179638   -0.00198909   -0.00352375
     atom   24 type  4   force =     0.00179638   -0.00198909    0.00352375
     atom   25 type  3   force =    -0.00148100    0.01255482   -0.00345813
     atom   26 type  3   force =     0.00148100    0.01255482    0.00345813
     atom   27 type  3   force =     0.00148100   -0.01255482    0.00345813
     atom   28 type  3   force =    -0.00148100   -0.01255482   -0.00345813
     atom   29 type  3   force =     0.00121987    0.00216535   -0.00776117
     atom   30 type  3   force =    -0.00121987    0.00216535    0.00776117
     atom   31 type  3   force =    -0.00121987   -0.00216535    0.00776117
     atom   32 type  3   force =     0.00121987   -0.00216535   -0.00776117
     atom   33 type  3   force =    -0.00153712   -0.00063646    0.00028348
     atom   34 type  3   force =     0.00153712   -0.00063646   -0.00028348
     atom   35 type  3   force =     0.00153712    0.00063646   -0.00028348
     atom   36 type  3   force =    -0.00153712    0.00063646    0.00028348
     atom   37 type  3   force =    -0.00009028    0.00005438    0.00028598
     atom   38 type  3   force =     0.00009028    0.00005438   -0.00028598
     atom   39 type  3   force =     0.00009028   -0.00005438   -0.00028598
     atom   40 type  3   force =    -0.00009028   -0.00005438    0.00028598

     Total force =     0.059009     Total SCF correction =     0.000114


     Computing stress (Cartesian axis) and pressure

          total   stress  (Ry/bohr**3)                   (kbar)     P=   -6.36
  -0.00001989   0.00000000  -0.00000182         -2.93      0.00     -0.27
   0.00000000  -0.00008791   0.00000000          0.00    -12.93      0.00
  -0.00000182   0.00000000  -0.00002193         -0.27      0.00     -3.23


     Writing output data file scf.save
 
     init_run     :     11.11s CPU     11.44s WALL (       1 calls)
     electrons    :    295.68s CPU    307.22s WALL (       1 calls)
     forces       :      5.67s CPU      5.71s WALL (       1 calls)
     stress       :     15.16s CPU     15.17s WALL (       1 calls)

     Called by init_run:
     wfcinit      :      6.75s CPU      7.02s WALL (       1 calls)
     potinit      :      1.54s CPU      1.55s WALL (       1 calls)

     Called by electrons:
     c_bands      :    256.97s CPU    267.56s WALL (      17 calls)
     sum_band     :     32.95s CPU     33.76s WALL (      17 calls)
     v_of_rho     :      0.94s CPU      1.04s WALL (      18 calls)
     newd         :      1.72s CPU      1.75s WALL (      18 calls)
     PAW_pot      :      2.80s CPU      2.80s WALL (      18 calls)
     mix_rho      :      0.21s CPU      0.23s WALL (      17 calls)

     Called by c_bands:
     init_us_2    :      2.57s CPU      2.58s WALL (     444 calls)
     cegterg      :    247.94s CPU    258.44s WALL (     204 calls)

     Called by sum_band:
     sum_band:bec :      0.03s CPU      0.03s WALL (     204 calls)
     addusdens    :      1.74s CPU      1.78s WALL (      17 calls)

     Called by *egterg:
     h_psi        :    155.06s CPU    163.19s WALL (     867 calls)
     s_psi        :     22.57s CPU     22.57s WALL (     867 calls)
     g_psi        :      1.04s CPU      1.04s WALL (     651 calls)
     cdiaghg      :     14.36s CPU     14.35s WALL (     855 calls)

     Called by h_psi:
     h_psi:pot    :    153.74s CPU    161.84s WALL (     867 calls)
     h_psi:calbec :     22.35s CPU     22.42s WALL (     867 calls)
     vloc_psi     :    108.84s CPU    116.87s WALL (     867 calls)
     add_vuspsi   :     22.55s CPU     22.54s WALL (     867 calls)

     General routines
     calbec       :     32.57s CPU     32.67s WALL (    1131 calls)
     fft          :      0.64s CPU      0.80s WALL (     258 calls)
     fftw         :    116.06s CPU    124.56s WALL (  107454 calls)
 
     Parallel routines
     fft_scatter  :     33.28s CPU     37.86s WALL (  107712 calls)
 
     PWSCF        :  5m31.42s CPU     5m44.29s WALL

 
   This run was terminated on:   5:32:49   5Dec2017            

=------------------------------------------------------------------------------=
   JOB DONE.
=------------------------------------------------------------------------------=
