
     Program PWSCF v.6.1 (svn rev. 13369) starts on  4Nov2017 at 23: 7: 0 

     This program is part of the open-source Quantum ESPRESSO suite
     for quantum simulation of materials; please cite
         "P. Giannozzi et al., J. Phys.:Condens. Matter 21 395502 (2009);
          URL http://www.quantum-espresso.org", 
     in publications or presentations arising from this work. More details at
     http://www.quantum-espresso.org/quote

     Parallel version (MPI), running on     8 processors
     R & G space division:  proc/nbgrp/npool/nimage =       8
     Waiting for input...
     Reading input from standard input

     Current dimensions of program PWSCF are:
     Max number of different atomic species (ntypx) = 10
     Max number of k-points (npk) =  40000
     Max angular momentum in pseudopotentials (lmaxx) =  3
               file C.pbe-n-kjpaw_psl.0.1.UPF: wavefunction(s)  2P renormalized
               file N.pbe-n-kjpaw_psl.0.1.UPF: wavefunction(s)  2P renormalized
               file H.pbe-kjpaw_psl.0.1.UPF: wavefunction(s)  1S renormalized
               file O.pbe-n-kjpaw_psl.0.1.UPF: wavefunction(s)  2P renormalized

     -------------------------------------
     Parameters for Dispersion Correction:
     -------------------------------------
       atom      VdW radius       C_6     

        C          2.744         60.710
        N          2.640         42.670
        H          1.892          4.857
        O          2.536         24.284

     Subspace diagonalization in iterative solution of the eigenvalue problem:
     a serial algorithm will be used

 
     Parallelization info
     --------------------
     sticks:   dense  smooth     PW     G-vecs:    dense   smooth      PW
     Min        1380    1380    362               145780   145780   19704
     Max        1381    1381    363               145785   145785   19708
     Sum       11047   11047   2903              1166269  1166269  157659
 


     bravais-lattice index     =            0
     lattice parameter (alat)  =      23.7709  a.u.
     unit-cell volume          =    8631.7713 (a.u.)^3
     number of atoms/cell      =          144
     number of atomic types    =            4
     number of electrons       =       648.00
     number of Kohn-Sham states=          388
     kinetic-energy cutoff     =     100.0000  Ry
     charge density cutoff     =     400.0000  Ry
     convergence threshold     =      1.0E-08
     mixing beta               =       0.5000
     number of iterations used =            8  plain     mixing
     Exchange-correlation      =  SLA  PW   PBX  PBC ( 1  4  3  4 0 0)

     celldm(1)=  23.770865  celldm(2)=   0.000000  celldm(3)=   0.000000
     celldm(4)=   0.000000  celldm(5)=   0.000000  celldm(6)=   0.000000

     crystal axes: (cart. coord. in units of alat)
               a(1) = (   1.000000   0.000000   0.000000 )  
               a(2) = (   0.000000   0.613872   0.000000 )  
               a(3) = (  -0.406427   0.000000   1.046856 )  

     reciprocal axes: (cart. coord. in units 2 pi/alat)
               b(1) = (  1.000000  0.000000  0.388236 )  
               b(2) = (  0.000000  1.629003  0.000000 )  
               b(3) = (  0.000000  0.000000  0.955241 )  


     PseudoPot. # 1 for  C read from file:
     /scratch/ahofstet/pseudo/C.pbe-n-kjpaw_psl.0.1.UPF
     MD5 check sum: 430fe95172b1e11ef3f8ed03bac87931
     Pseudo is Projector augmented-wave + core cor, Zval =  4.0
     Generated using "atomic" code by A. Dal Corso  v.5.0.99 svn rev. 10869
     Shape of augmentation charge: BESSEL
     Using radial grid of 1073 points,  4 beta functions with: 
                l(1) =   0
                l(2) =   0
                l(3) =   1
                l(4) =   1
     Q(r) pseudized with 0 coefficients 


     PseudoPot. # 2 for  N read from file:
     /scratch/ahofstet/pseudo/N.pbe-n-kjpaw_psl.0.1.UPF
     MD5 check sum: f73187c8b701007e77325f868c9291d7
     Pseudo is Projector augmented-wave + core cor, Zval =  5.0
     Generated using "atomic" code by A. Dal Corso  v.5.0.99 svn rev. 10869
     Shape of augmentation charge: PSQ
     Using radial grid of 1085 points,  4 beta functions with: 
                l(1) =   0
                l(2) =   0
                l(3) =   1
                l(4) =   1
     Q(r) pseudized with 0 coefficients 


     PseudoPot. # 3 for  H read from file:
     /scratch/ahofstet/pseudo/H.pbe-kjpaw_psl.0.1.UPF
     MD5 check sum: 94e484f906d9e9773b2f6e52662335b2
     Pseudo is Projector augmented-wave, Zval =  1.0
     Generated using "atomic" code by A. Dal Corso  v.5.0.99 svn rev. 10869
     Shape of augmentation charge: PSQ
     Using radial grid of  929 points,  2 beta functions with: 
                l(1) =   0
                l(2) =   0
     Q(r) pseudized with 0 coefficients 


     PseudoPot. # 4 for  O read from file:
     /scratch/ahofstet/pseudo/O.pbe-n-kjpaw_psl.0.1.UPF
     MD5 check sum: 3f94a2996a3169367d6eb21d9b593f20
     Pseudo is Projector augmented-wave + core cor, Zval =  6.0
     Generated using "atomic" code by A. Dal Corso  v.5.0.99 svn rev. 10869
     Shape of augmentation charge: BESSEL
     Using radial grid of 1095 points,  4 beta functions with: 
                l(1) =   0
                l(2) =   0
                l(3) =   1
                l(4) =   1
     Q(r) pseudized with 0 coefficients 


     atomic species   valence    mass     pseudopotential
        C              4.00    12.01070      C( 1.00)
        N              5.00    14.00670      N( 1.00)
        H              1.00     1.00794      H( 1.00)
        O              6.00    15.99940      O( 1.00)

      2 Sym. Ops., with inversion, found



   Cartesian axes

     site n.     atom                  positions (alat units)
         1           C   tau(   1) = (   0.4924052   0.0673436   0.3738226  )
         2           C   tau(   2) = (   0.8043887   0.3742801   0.1495846  )
         3           C   tau(   3) = (   0.1011677   0.5465287   0.6730333  )
         4           C   tau(   4) = (  -0.2108157   0.2395922   0.8972714  )
         5           H   tau(   5) = (   0.5509379   0.0442857   0.4335651  )
         6           H   tau(   6) = (   0.7458583   0.3512212   0.0898424  )
         7           H   tau(   7) = (   0.0426350   0.5695867   0.6132908  )
         8           H   tau(   8) = (  -0.1522854   0.2626511   0.9570135  )
         9           N   tau(   9) = (   0.3990128  -0.0002089   0.3767121  )
        10           N   tau(  10) = (   0.8977812   0.3067285   0.1467042  )
        11           N   tau(  11) = (   0.1945601   0.6140813   0.6701438  )
        12           N   tau(  12) = (  -0.3042082   0.3071438   0.9001517  )
        13           N   tau(  13) = (   0.3821491   0.5536848   0.4687808  )
        14           N   tau(  14) = (   0.9146331   0.2467460   0.0546361  )
        15           N   tau(  15) = (   0.2114238   0.0601876   0.5780752  )
        16           N   tau(  16) = (  -0.3210602   0.3671263   0.9922198  )
        17           O   tau(  17) = (   0.2938554   0.5127283   0.4771586  )
        18           O   tau(  18) = (   0.0029415   0.2057853   0.0462641  )
        19           O   tau(  19) = (   0.2997176   0.1011440   0.5696973  )
        20           O   tau(  20) = (   0.5906314   0.4080870   1.0005918  )
        21           O   tau(  21) = (   0.4559944   0.5452261   0.5310650  )
        22           O   tau(  22) = (   0.4343756   0.2382830   1.0392160  )
        23           O   tau(  23) = (   0.1375785   0.0686462   0.5157909  )
        24           O   tau(  24) = (   0.1591973   0.3755893   0.0076399  )
        25           C   tau(  25) = (   0.3091971   0.0608218   0.3321484  )
        26           C   tau(  26) = (  -0.0124044   0.3677576   0.1912674  )
        27           C   tau(  27) = (   0.2843759   0.5530506   0.7147076  )
        28           C   tau(  28) = (   0.6059773   0.2461147   0.8555885  )
        29           H   tau(  29) = (   0.2351487   0.0448624   0.3745173  )
        30           H   tau(  30) = (   0.0616448   0.3517972   0.1489019  )
        31           H   tau(  31) = (   0.3584243   0.5690099   0.6723386  )
        32           H   tau(  32) = (   0.5319281   0.2620751   0.8979540  )
        33           N   tau(  33) = (   0.2966789   0.0367801   0.2215921  )
        34           N   tau(  34) = (   0.0001081   0.3437179   0.3018290  )
        35           N   tau(  35) = (   0.2968940   0.5770922   0.8252638  )
        36           N   tau(  36) = (   0.5934648   0.2701545   0.7450270  )
        37           N   tau(  37) = (   0.2355137   0.5595867   0.1975749  )
        38           N   tau(  38) = (   0.0612910   0.2526568   0.3258226  )
        39           N   tau(  39) = (   0.3580592   0.0542856   0.8492810  )
        40           N   tau(  40) = (   0.5322820   0.3612155   0.7210333  )
        41           O   tau(  41) = (   0.2612831   0.5110678   0.1178016  )
        42           O   tau(  42) = (   0.0355003   0.2041259   0.4056295  )
        43           O   tau(  43) = (   0.3322899   0.1028045   0.9290543  )
        44           O   tau(  44) = (   0.5580727   0.4097465   0.6412264  )
        45           O   tau(  45) = (   0.1615791   0.5402831   0.2579949  )
        46           O   tau(  46) = (   0.1352004   0.2333512   0.2654348  )
        47           O   tau(  47) = (   0.4319938   0.0735892   0.7888610  )
        48           O   tau(  48) = (   0.4583725   0.3805212   0.7814211  )
        49           C   tau(  49) = (   0.3874890   0.0542597   0.1549883  )
        50           C   tau(  50) = (  -0.0907049   0.3611976   0.3684231  )
        51           C   tau(  51) = (   0.2060840   0.5596126   0.8918676  )
        52           C   tau(  52) = (   0.6842778   0.2526747   0.6784328  )
        53           H   tau(  53) = (   0.3681442   0.0339783   0.0733065  )
        54           H   tau(  54) = (  -0.0713640   0.3409160   0.4501089  )
        55           H   tau(  55) = (   0.2254288   0.5798940   0.9735494  )
        56           H   tau(  56) = (   0.6649369   0.2729563   0.5967470  )
        57           N   tau(  57) = (   0.4807965   0.6069635   0.1902953  )
        58           N   tau(  58) = (   0.8159904   0.3000278   0.3331156  )
        59           N   tau(  59) = (   0.1127765   0.0069089   0.8565606  )
        60           N   tau(  60) = (  -0.2224175   0.3138445   0.7137403  )
        61           N   tau(  61) = (   0.5344890   0.5457347   0.1151987  )
        62           N   tau(  62) = (   0.7622817   0.2388021   0.4082034  )
        63           N   tau(  63) = (   0.0590840   0.0681377   0.9316572  )
        64           N   tau(  64) = (  -0.1687087   0.3750702   0.6386526  )
        65           O   tau(  65) = (   0.4843987   0.5172428   0.0369000  )
        66           O   tau(  66) = (  -0.1876209   0.2103096   0.4865202  )
        67           O   tau(  67) = (   0.1091742   0.0966295   1.0099559  )
        68           O   tau(  68) = (   0.7811938   0.4035627   0.5603358  )
        69           O   tau(  69) = (   0.6268206   0.5214935   0.1365753  )
        70           O   tau(  70) = (   0.6699671   0.2145613   0.3868291  )
        71           O   tau(  71) = (  -0.0332477   0.0923788   0.9102806  )
        72           O   tau(  72) = (  -0.0763941   0.3993110   0.6600268  )
        73           C   tau(  73) = (   0.5438458   0.0625707   0.2586332  )
        74           C   tau(  74) = (   0.7529426   0.3695079   0.2647712  )
        75           C   tau(  75) = (   0.0497272   0.5513016   0.7882227  )
        76           C   tau(  76) = (  -0.1593697   0.2443644   0.7820847  )
        77           H   tau(  77) = (   0.6268420   0.0381529   0.2626243  )
        78           H   tau(  78) = (   0.6699472   0.3450910   0.2607787  )
        79           H   tau(  79) = (  -0.0332690   0.5757194   0.7842316  )
        80           H   tau(  80) = (  -0.0763742   0.2687813   0.7860772  )
        81           N   tau(  81) = (   0.5341028   0.1651148   0.2057627  )
        82           N   tau(  82) = (   0.7626852   0.4720531   0.3176444  )
        83           N   tau(  83) = (   0.0594702   0.4487575   0.8410932  )
        84           N   tau(  84) = (  -0.1691123   0.1418193   0.7292116  )
        85           N   tau(  85) = (   0.6192131   0.1962134   0.1392387  )
        86           N   tau(  86) = (   0.6775701   0.5031382   0.3841702  )
        87           N   tau(  87) = (  -0.0256401   0.4176589   0.9076172  )
        88           N   tau(  88) = (  -0.0839972   0.1107341   0.6626857  )
        89           O   tau(  89) = (   0.7062476   0.1557081   0.1583714  )
        90           O   tau(  90) = (   0.5905445   0.4626398   0.3650435  )
        91           O   tau(  91) = (  -0.1126747   0.4581642   0.8884845  )
        92           O   tau(  92) = (   0.0030285   0.1512325   0.6818124  )
        93           O   tau(  93) = (   0.6003768   0.2664174   0.0744590  )
        94           O   tau(  94) = (   0.6964141   0.5733460   0.4489612  )
        95           O   tau(  95) = (  -0.0068039   0.3474549   0.9723969  )
        96           O   tau(  96) = (  -0.1028411   0.0405263   0.5978947  )
        97           C   tau(  97) = (   0.4242214   0.1730500   0.1652216  )
        98           C   tau(  98) = (  -0.1274346   0.4799855   0.3581884  )
        99           C   tau(  99) = (   0.1693516   0.4408223   0.8816343  )
       100           C   tau( 100) = (   0.7210076   0.1338869   0.6886675  )
       101           H   tau( 101) = (   0.4238852   0.2134225   0.0884699  )
       102           H   tau( 102) = (  -0.1271017   0.5203597   0.4349409  )
       103           H   tau( 103) = (   0.1696878   0.4004499   0.9583860  )
       104           H   tau( 104) = (   0.7206747   0.0935126   0.6119151  )
       105           N   tau( 105) = (   0.3553458   0.2266910   0.2392843  )
       106           N   tau( 106) = (  -0.0585571   0.5336280   0.2841305  )
       107           N   tau( 107) = (   0.2382272   0.3871814   0.8075716  )
       108           N   tau( 108) = (   0.6521301   0.0802444   0.7627254  )
       109           N   tau( 109) = (   0.3695195   0.3382811   0.2426935  )
       110           N   tau( 110) = (  -0.0727216   0.0313454   0.2807088  )
       111           N   tau( 111) = (   0.2240535   0.2755913   0.8041624  )
       112           N   tau( 112) = (   0.6662946   0.5825269   0.7661471  )
       113           O   tau( 113) = (   0.3185471   0.3863399   0.3098433  )
       114           O   tau( 114) = (  -0.0217591   0.0794016   0.2135784  )
       115           O   tau( 115) = (   0.2750258   0.2275324   0.7370126  )
       116           O   tau( 116) = (   0.6153321   0.5344707   0.8332775  )
       117           O   tau( 117) = (   0.4301105   0.3753815   0.1765358  )
       118           O   tau( 118) = (   0.8666702   0.0684484   0.3468814  )
       119           O   tau( 119) = (   0.1634624   0.2384908   0.8703201  )
       120           O   tau( 120) = (  -0.2730973   0.5454239   0.6999745  )
       121           C   tau( 121) = (   0.3452672   0.1794238   0.3438586  )
       122           C   tau( 122) = (  -0.0484747   0.4863604   0.1795540  )
       123           C   tau( 123) = (   0.2483058   0.4344485   0.7029973  )
       124           C   tau( 124) = (   0.6420477   0.1275119   0.8673019  )
       125           H   tau( 125) = (   0.2905330   0.2260175   0.3925119  )
       126           H   tau( 126) = (   0.0062623   0.5329542   0.1309029  )
       127           H   tau( 127) = (   0.3030400   0.3878548   0.6543440  )
       128           H   tau( 128) = (   0.5873106   0.0809182   0.9159530  )
       129           N   tau( 129) = (   0.4502685   0.1728755   0.3939716  )
       130           N   tau( 130) = (   0.8465274   0.4798129   0.1294404  )
       131           N   tau( 131) = (   0.1433044   0.4409968   0.6528843  )
       132           N   tau( 132) = (  -0.2529545   0.1340594   0.9174155  )
       133           N   tau( 133) = (   0.4609571   0.2147865   0.4977889  )
       134           N   tau( 134) = (   0.8358234   0.5217106   0.0256190  )
       135           N   tau( 135) = (   0.1326159   0.3990858   0.5490670  )
       136           N   tau( 136) = (  -0.2422504   0.0921617   1.0212369  )
       137           O   tau( 137) = (   0.4119271   0.2966686   0.5153436  )
       138           O   tau( 138) = (   0.8848665   0.6036196   0.0080723  )
       139           O   tau( 139) = (   0.1816458   0.3172038   0.5315123  )
       140           O   tau( 140) = (  -0.2912936   0.0102527   1.0387837  )
       141           O   tau( 141) = (   0.5213027   0.1674944   0.5578459  )
       142           O   tau( 142) = (   0.3690754   0.4744354   1.0124266  )
       143           O   tau( 143) = (   0.0722702   0.4463779   0.4890101  )
       144           O   tau( 144) = (   0.2244976   0.1394369   0.0344293  )

     number of k points=     8
                       cart. coord. in units 2pi/alat
        k(    1) = (   0.0000000   0.0000000   0.0000000), wk =   0.1666667
        k(    2) = (   0.0000000   0.0000000  -0.4776206), wk =   0.1666667
        k(    3) = (   0.0000000   0.5430011   0.0000000), wk =   0.3333333
        k(    4) = (   0.0000000   0.5430011  -0.4776206), wk =   0.3333333
        k(    5) = (  -0.5000000   0.0000000  -0.1941180), wk =   0.1666667
        k(    6) = (  -0.5000000   0.0000000  -0.6717386), wk =   0.1666667
        k(    7) = (  -0.5000000   0.5430011  -0.1941180), wk =   0.3333333
        k(    8) = (  -0.5000000   0.5430011  -0.6717386), wk =   0.3333333

     Dense  grid:  1166269 G-vectors     FFT dimensions: ( 160,  96, 180)

     Estimated max dynamical RAM per process >    2282.83MB

     Estimated total allocated dynamical RAM >   18262.62MB

     Check: negative/imaginary core charge=   -0.000003    0.000000

     Initial potential from superposition of free atoms

     starting charge  647.99835, renormalised to  648.00000
     Starting wfc are  504 randomized atomic wfcs
     Checking if some PAW data can be deallocated... 

     total cpu time spent up to now is      135.9 secs

     per-process dynamical memory:  1450.8 Mb

     Self-consistent Calculation

     iteration #  1     ecut=   100.00 Ry     beta=0.50
     Davidson diagonalization with overlap
     ethr =  1.00E-02,  avg # of iterations =  3.0

     total cpu time spent up to now is      553.4 secs

     total energy              =   -3814.69639027 Ry
     Harris-Foulkes estimate   =   -3823.39138389 Ry
     estimated scf accuracy    <      15.36850338 Ry

     iteration #  2     ecut=   100.00 Ry     beta=0.50
     Davidson diagonalization with overlap
     ethr =  2.37E-03,  avg # of iterations =  3.0

     total cpu time spent up to now is      909.0 secs

     total energy              =   -3817.86647165 Ry
     Harris-Foulkes estimate   =   -3820.87955767 Ry
     estimated scf accuracy    <       6.88129524 Ry

     iteration #  3     ecut=   100.00 Ry     beta=0.50
     Davidson diagonalization with overlap
     ethr =  1.06E-03,  avg # of iterations =  2.6

     total cpu time spent up to now is     1168.3 secs

     total energy              =   -3818.97687993 Ry
     Harris-Foulkes estimate   =   -3819.21954431 Ry
     estimated scf accuracy    <       0.57143081 Ry

     iteration #  4     ecut=   100.00 Ry     beta=0.50
     Davidson diagonalization with overlap
     ethr =  8.82E-05,  avg # of iterations =  7.9

     total cpu time spent up to now is     1721.9 secs

     total energy              =   -3819.17849827 Ry
     Harris-Foulkes estimate   =   -3819.35351449 Ry
     estimated scf accuracy    <       0.51901037 Ry

     iteration #  5     ecut=   100.00 Ry     beta=0.50
     Davidson diagonalization with overlap
     ethr =  8.01E-05,  avg # of iterations =  2.0

     total cpu time spent up to now is     1963.4 secs

     total energy              =   -3819.23403516 Ry
     Harris-Foulkes estimate   =   -3819.25206155 Ry
     estimated scf accuracy    <       0.04917234 Ry

     iteration #  6     ecut=   100.00 Ry     beta=0.50
     Davidson diagonalization with overlap
     ethr =  7.59E-06,  avg # of iterations =  6.6

     total cpu time spent up to now is     2455.1 secs

     total energy              =   -3819.24868190 Ry
     Harris-Foulkes estimate   =   -3819.25465525 Ry
     estimated scf accuracy    <       0.01828278 Ry

     iteration #  7     ecut=   100.00 Ry     beta=0.50
     Davidson diagonalization with overlap
     ethr =  2.82E-06,  avg # of iterations =  2.1

     total cpu time spent up to now is     2708.7 secs

     total energy              =   -3819.25086744 Ry
     Harris-Foulkes estimate   =   -3819.25211669 Ry
     estimated scf accuracy    <       0.00357877 Ry

     iteration #  8     ecut=   100.00 Ry     beta=0.50
     Davidson diagonalization with overlap
     ethr =  5.52E-07,  avg # of iterations =  3.0

     total cpu time spent up to now is     3016.1 secs

     total energy              =   -3819.25143314 Ry
     Harris-Foulkes estimate   =   -3819.25192157 Ry
     estimated scf accuracy    <       0.00137714 Ry

     iteration #  9     ecut=   100.00 Ry     beta=0.50
     Davidson diagonalization with overlap
     ethr =  2.13E-07,  avg # of iterations =  2.0

     total cpu time spent up to now is     3266.8 secs

     total energy              =   -3819.25162857 Ry
     Harris-Foulkes estimate   =   -3819.25166636 Ry
     estimated scf accuracy    <       0.00010439 Ry

     iteration # 10     ecut=   100.00 Ry     beta=0.50
     Davidson diagonalization with overlap
     ethr =  1.61E-08,  avg # of iterations =  3.0

     total cpu time spent up to now is     3676.7 secs

     total energy              =   -3819.25166811 Ry
     Harris-Foulkes estimate   =   -3819.25167853 Ry
     estimated scf accuracy    <       0.00003146 Ry

     iteration # 11     ecut=   100.00 Ry     beta=0.50
     Davidson diagonalization with overlap
     ethr =  4.85E-09,  avg # of iterations =  3.0

     total cpu time spent up to now is     3946.0 secs

     total energy              =   -3819.25167274 Ry
     Harris-Foulkes estimate   =   -3819.25167490 Ry
     estimated scf accuracy    <       0.00000643 Ry

     iteration # 12     ecut=   100.00 Ry     beta=0.50
     Davidson diagonalization with overlap
     ethr =  9.92E-10,  avg # of iterations =  3.0

     total cpu time spent up to now is     4241.6 secs

     total energy              =   -3819.25167402 Ry
     Harris-Foulkes estimate   =   -3819.25167438 Ry
     estimated scf accuracy    <       0.00000098 Ry

     iteration # 13     ecut=   100.00 Ry     beta=0.50
     Davidson diagonalization with overlap
     ethr =  1.52E-10,  avg # of iterations =  3.0

     total cpu time spent up to now is     4591.6 secs

     total energy              =   -3819.25167429 Ry
     Harris-Foulkes estimate   =   -3819.25167442 Ry
     estimated scf accuracy    <       0.00000041 Ry

     iteration # 14     ecut=   100.00 Ry     beta=0.50
     Davidson diagonalization with overlap
     ethr =  6.27E-11,  avg # of iterations =  2.0

     total cpu time spent up to now is     4849.7 secs

     total energy              =   -3819.25167434 Ry
     Harris-Foulkes estimate   =   -3819.25167438 Ry
     estimated scf accuracy    <       0.00000011 Ry

     iteration # 15     ecut=   100.00 Ry     beta=0.50
     Davidson diagonalization with overlap
     ethr =  1.63E-11,  avg # of iterations =  2.0

     total cpu time spent up to now is     5115.4 secs

     total energy              =   -3819.25167437 Ry
     Harris-Foulkes estimate   =   -3819.25167437 Ry
     estimated scf accuracy    <       0.00000002 Ry

     iteration # 16     ecut=   100.00 Ry     beta=0.50
     Davidson diagonalization with overlap
     ethr =  2.62E-12,  avg # of iterations =  3.0

     total cpu time spent up to now is     5459.1 secs

     End of self-consistent calculation

          k = 0.0000 0.0000 0.0000 (145771 PWs)   bands (ev):

   -22.6918 -22.6699 -22.6007 -22.5770 -22.5007 -22.4961 -22.4911 -22.4871
   -22.4553 -22.4515 -22.3683 -22.3598 -22.3510 -22.3430 -22.2853 -22.2740
   -22.2654 -22.2548 -22.2345 -22.2325 -22.1468 -22.1449 -22.1435 -22.1424
   -18.0268 -17.9943 -17.9891 -17.9829 -17.9745 -17.9237 -17.9039 -17.8845
   -17.8799 -17.8624 -17.8602 -17.8584 -17.7518 -17.7439 -17.7434 -17.7317
   -17.6942 -17.6937 -17.6780 -17.6756 -17.6482 -17.6466 -17.6466 -17.6354
   -17.5604 -17.5566 -17.5542 -17.5503 -16.6150 -16.6143 -16.5719 -16.5668
   -15.8888 -15.8862 -15.8707 -15.8587 -15.6977 -15.6769 -15.6445 -15.6266
   -14.6598 -14.6577 -14.6532 -14.6466 -14.2945 -14.2633 -14.2580 -14.2440
   -11.3731 -11.3612 -11.3424 -11.2936 -11.1922 -11.1659 -11.1635 -11.1276
   -10.9362 -10.9237 -10.9137 -10.8861  -9.5106  -9.4215  -9.3633  -9.3295
    -9.1628  -9.1516  -9.1489  -9.1431  -9.0246  -8.9872  -8.9652  -8.8998
    -8.0989  -8.0033  -7.9907  -7.9871  -7.4126  -7.4064  -7.2904  -7.2609
    -6.5264  -6.5136  -6.4843  -6.4315  -6.4314  -6.3819  -6.3373  -6.2479
    -6.1084  -6.1055  -6.0888  -6.0140  -5.9769  -5.8962  -5.8063  -5.7937
    -5.7069  -5.6552  -5.5749  -5.5702  -5.4404  -5.4351  -5.3984  -5.3077
    -5.2897  -5.2745  -5.2273  -5.1633  -5.1343  -5.0943  -5.0721  -5.0504
    -5.0038  -4.9606  -4.9505  -4.9386  -4.9113  -4.9019  -4.8494  -4.8064
    -4.7718  -4.7449  -4.6880  -4.6775  -4.6079  -4.5915  -4.5690  -4.5525
    -4.5294  -4.5126  -4.5015  -4.4889  -4.4741  -4.4691  -4.3876  -4.3800
    -4.3595  -4.3339  -4.3289  -4.2842  -4.2710  -4.2220  -4.1612  -4.1080
    -4.1069  -4.1036  -4.0806  -4.0559  -3.9893  -3.9767  -3.9624  -3.8921
    -3.8546  -3.8092  -3.8028  -3.6876  -3.6292  -3.5416  -3.5271  -3.5049
    -3.4992  -3.4816  -3.4815  -3.4120  -3.3677  -3.2592  -3.1920  -3.1199
    -3.0923  -3.0225  -3.0197  -2.9282  -2.8747  -2.8048  -2.7717  -2.7594
    -2.6507  -2.6156  -2.5837  -2.5476  -2.3347  -2.2831  -2.2612  -2.2121
    -2.1665  -2.1488  -2.1334  -2.1181  -2.0171  -1.9944  -1.9874  -1.9836
    -1.6412  -1.6027  -1.5749  -1.5693  -1.1348  -1.1197  -1.0909  -1.0159
    -0.7406  -0.7171  -0.6966  -0.6220   0.3885   0.4623   0.5740   0.5822
     0.5904   0.6277   0.6614   0.6971   0.6980   0.7069   0.7749   0.8092
     0.8149   0.8345   0.8378   0.8930   0.9657   0.9763   0.9872   0.9923
     1.0314   1.0528   1.0790   1.0793   1.0837   1.1310   1.1642   1.2100
     1.2666   1.2712   1.2838   1.3166   1.3502   1.3544   1.3688   1.3814
     1.4152   1.4267   1.4533   1.4598   1.4744   1.4747   1.5067   1.5226
     1.5340   1.5593   1.6006   1.6101   1.6252   1.6823   1.7110   1.7393
     1.7409   1.7427   1.7631   1.7798   1.7893   1.8153   1.8479   1.9162
     1.9253   1.9393   1.9620   1.9715   1.9904   2.0185   2.0371   2.0547
     2.1037   2.1229   2.1274   2.1770   2.1816   2.1992   2.2120   2.2517
     2.3564   2.3745   2.3917   2.4008   2.4095   2.4810   2.4819   2.4888
     2.5127   2.5205   2.5344   2.5683   2.6338   2.6571   2.6749   2.6864
     2.8923   2.8967   2.9912   3.0631   5.8170   5.9609   6.0963   6.2339
     6.2974   6.3373   6.3560   6.4381   6.4689   6.4738   6.5161   6.5178
     6.6581   6.6680   6.6726   6.6916   6.7274   6.7558   6.8415   6.9046
     6.9098   6.9677   6.9992   7.0229   8.5313   9.0763   9.0965   9.1174
     9.5560   9.5611   9.8213   9.8316   9.8668   9.9513   9.9680   9.9825
    10.1872  10.2606  10.2764  10.3623  10.4528  10.5891  10.6332  10.6684
    10.7341  10.7468  10.7854  10.8021  10.9698  10.9739  10.9810  10.9877
    11.0375  11.0503  11.1798  11.2041  11.2115  11.2686  11.3713  11.3760
    11.4420  11.4731  11.5137  11.5586

          k = 0.0000 0.0000-0.4776 (145714 PWs)   bands (ev):

   -22.6830 -22.6809 -22.5891 -22.5874 -22.4991 -22.4986 -22.4879 -22.4876
   -22.4539 -22.4534 -22.3645 -22.3632 -22.3485 -22.3471 -22.2795 -22.2793
   -22.2599 -22.2597 -22.2339 -22.2333 -22.1451 -22.1449 -22.1438 -22.1437
   -18.0150 -18.0139 -17.9851 -17.9849 -17.9495 -17.9489 -17.8935 -17.8930
   -17.8709 -17.8702 -17.8583 -17.8583 -17.7489 -17.7486 -17.7365 -17.7356
   -17.6944 -17.6942 -17.6769 -17.6768 -17.6479 -17.6474 -17.6416 -17.6411
   -17.5574 -17.5572 -17.5529 -17.5527 -16.5974 -16.5970 -16.5871 -16.5866
   -15.8876 -15.8874 -15.8646 -15.8643 -15.6874 -15.6873 -15.6356 -15.6356
   -14.6574 -14.6568 -14.6523 -14.6517 -14.2793 -14.2791 -14.2505 -14.2503
   -11.3764 -11.3757 -11.3007 -11.3000 -11.1895 -11.1888 -11.1360 -11.1354
   -10.9392 -10.9388 -10.9028 -10.9024  -9.4398  -9.4394  -9.3736  -9.3730
    -9.1622  -9.1616  -9.1385  -9.1380  -8.9943  -8.9936  -8.9476  -8.9469
    -8.0430  -8.0429  -7.9935  -7.9934  -7.4042  -7.4041  -7.2768  -7.2767
    -6.6085  -6.6084  -6.4272  -6.4271  -6.3311  -6.3304  -6.2939  -6.2935
    -6.1017  -6.1016  -6.0603  -6.0602  -5.9373  -5.9368  -5.7515  -5.7513
    -5.7166  -5.7164  -5.6093  -5.6089  -5.4286  -5.4277  -5.3927  -5.3926
    -5.3182  -5.3180  -5.2577  -5.2575  -5.0364  -5.0361  -5.0125  -5.0122
    -4.9998  -4.9996  -4.9288  -4.9281  -4.8484  -4.8482  -4.8036  -4.8033
    -4.7593  -4.7591  -4.7138  -4.7136  -4.6152  -4.6148  -4.5995  -4.5993
    -4.5295  -4.5290  -4.5086  -4.5082  -4.4631  -4.4625  -4.3868  -4.3859
    -4.3081  -4.3076  -4.2896  -4.2895  -4.2554  -4.2548  -4.1367  -4.1366
    -4.0937  -4.0933  -4.0750  -4.0744  -3.9822  -3.9817  -3.8813  -3.8811
    -3.8667  -3.8665  -3.7609  -3.7601  -3.6352  -3.6346  -3.5586  -3.5584
    -3.5064  -3.5064  -3.4246  -3.4245  -3.2394  -3.2393  -3.1891  -3.1890
    -3.0446  -3.0445  -2.9033  -2.9029  -2.8938  -2.8938  -2.7989  -2.7988
    -2.5960  -2.5957  -2.5811  -2.5808  -2.2983  -2.2982  -2.2149  -2.2146
    -2.1733  -2.1725  -2.1299  -2.1295  -2.0231  -2.0226  -1.9807  -1.9803
    -1.6100  -1.6097  -1.5829  -1.5826  -1.1373  -1.1372  -1.0459  -1.0459
    -0.7140  -0.7132  -0.6737  -0.6730   0.4853   0.4864   0.5737   0.5743
     0.6002   0.6008   0.6506   0.6511   0.7398   0.7401   0.7565   0.7571
     0.8121   0.8122   0.8316   0.8321   0.9894   0.9897   1.0048   1.0048
     1.0133   1.0134   1.1030   1.1034   1.1709   1.1710   1.1813   1.1814
     1.2138   1.2142   1.2748   1.2752   1.3144   1.3145   1.3906   1.3908
     1.4376   1.4377   1.4427   1.4432   1.4811   1.4815   1.5244   1.5246
     1.5869   1.5870   1.6132   1.6133   1.6277   1.6278   1.7232   1.7232
     1.7577   1.7585   1.7756   1.7758   1.7974   1.7977   1.9161   1.9163
     1.9356   1.9366   1.9426   1.9428   2.0011   2.0013   2.0458   2.0467
     2.0785   2.0786   2.1328   2.1333   2.1938   2.1938   2.2404   2.2411
     2.3797   2.3799   2.4048   2.4051   2.4114   2.4117   2.4939   2.4941
     2.5179   2.5186   2.5437   2.5442   2.6537   2.6547   2.6867   2.6874
     2.9240   2.9245   3.0077   3.0083   5.8876   5.8888   6.1540   6.1546
     6.3381   6.3383   6.3768   6.3777   6.4668   6.4670   6.5392   6.5399
     6.6501   6.6510   6.6989   6.6996   6.7398   6.7399   6.8584   6.8584
     6.9422   6.9423   7.0116   7.0117   8.7543   8.7548   9.1311   9.1314
     9.6822   9.6827   9.7320   9.7325   9.8329   9.8330   9.9799   9.9801
    10.2125  10.2127  10.3812  10.3814  10.5605  10.5607  10.5868  10.5868
    10.7523  10.7525  10.8165  10.8172  10.9440  10.9440  11.0222  11.0224
    11.0724  11.0725  11.1277  11.1282  11.2705  11.2710  11.3458  11.3463
    11.4462  11.4463  11.5974  11.5975

          k = 0.0000 0.5430 0.0000 (145802 PWs)   bands (ev):

   -22.6809 -22.6693 -22.5893 -22.5763 -22.5085 -22.5047 -22.4963 -22.4886
   -22.4461 -22.4437 -22.3584 -22.3580 -22.3531 -22.3497 -22.2878 -22.2765
   -22.2659 -22.2568 -22.2381 -22.2370 -22.1498 -22.1483 -22.1457 -22.1444
   -18.0179 -18.0026 -17.9870 -17.9816 -17.9591 -17.9321 -17.8959 -17.8827
   -17.8809 -17.8776 -17.8578 -17.8522 -17.7458 -17.7393 -17.7385 -17.7337
   -17.7041 -17.7009 -17.6870 -17.6866 -17.6432 -17.6426 -17.6353 -17.6320
   -17.5612 -17.5591 -17.5522 -17.5505 -16.6126 -16.6122 -16.5689 -16.5662
   -15.8842 -15.8805 -15.8758 -15.8662 -15.6797 -15.6531 -15.6515 -15.6259
   -14.6631 -14.6614 -14.6572 -14.6533 -14.2975 -14.2773 -14.2762 -14.2705
   -11.3609 -11.3561 -11.3245 -11.3037 -11.1909 -11.1775 -11.1406 -11.1207
   -10.9283 -10.9149 -10.9144 -10.8948  -9.4739  -9.4245  -9.3528  -9.3393
    -9.1825  -9.1769  -9.1637  -9.1488  -9.0142  -8.9924  -8.9762  -8.9403
    -8.0548  -8.0014  -7.9794  -7.9727  -7.4321  -7.3528  -7.3333  -7.3119
    -6.5086  -6.4950  -6.4781  -6.4557  -6.4166  -6.3951  -6.3159  -6.2579
    -6.1163  -6.1141  -6.0796  -6.0336  -5.9731  -5.8781  -5.8386  -5.7145
    -5.6648  -5.5816  -5.5719  -5.5098  -5.4663  -5.4154  -5.3652  -5.3533
    -5.2848  -5.2647  -5.2309  -5.2252  -5.1635  -5.1538  -5.1358  -5.0937
    -5.0437  -4.9742  -4.9593  -4.9333  -4.9173  -4.9112  -4.8665  -4.8486
    -4.8276  -4.7561  -4.7457  -4.7310  -4.6238  -4.6067  -4.5918  -4.5838
    -4.5804  -4.5226  -4.5078  -4.4684  -4.4360  -4.4236  -4.4144  -4.3804
    -4.3361  -4.3133  -4.2403  -4.2266  -4.1594  -4.1578  -4.1193  -4.0986
    -4.0908  -4.0538  -3.9933  -3.9510  -3.9375  -3.9196  -3.9000  -3.8417
    -3.8197  -3.7979  -3.6895  -3.6537  -3.6395  -3.6284  -3.6085  -3.5920
    -3.5530  -3.4730  -3.4327  -3.4093  -3.3593  -3.3196  -3.2459  -3.1817
    -3.1516  -3.1091  -3.0454  -3.0161  -2.8939  -2.8896  -2.7986  -2.7759
    -2.5784  -2.5709  -2.5137  -2.5134  -2.3097  -2.2732  -2.2490  -2.2022
    -2.1961  -2.1798  -2.1253  -2.1046  -2.0235  -2.0225  -1.9977  -1.9776
    -1.6601  -1.6439  -1.5769  -1.5732  -1.1378  -1.1350  -1.0536  -1.0280
    -0.7254  -0.7048  -0.6952  -0.6447   0.3779   0.4095   0.5688   0.5701
     0.5991   0.6130   0.6244   0.6705   0.7076   0.7266   0.7473   0.7575
     0.7774   0.8063   0.8745   0.9090   0.9573   0.9613   0.9855   1.0392
     1.0468   1.0519   1.1034   1.1317   1.1580   1.1944   1.2144   1.2232
     1.2514   1.2522   1.3143   1.3225   1.3333   1.3339   1.3669   1.3975
     1.4103   1.4284   1.4417   1.4625   1.4824   1.4830   1.5213   1.5373
     1.5645   1.5659   1.6234   1.6250   1.6439   1.6645   1.6882   1.6967
     1.7209   1.7693   1.7757   1.7995   1.8148   1.8332   1.8528   1.8540
     1.8891   1.9427   1.9584   1.9778   1.9885   2.0375   2.0428   2.0611
     2.0759   2.0917   2.1382   2.1425   2.1876   2.2193   2.2441   2.2780
     2.3244   2.3358   2.3810   2.4011   2.4417   2.4502   2.4675   2.4731
     2.4994   2.5354   2.5585   2.5629   2.6347   2.6644   2.7220   2.7478
     2.8618   2.8853   2.9645   3.0030   5.9018   5.9871   6.1679   6.2588
     6.3114   6.3222   6.3583   6.3909   6.4168   6.4258   6.4873   6.5182
     6.5461   6.5514   6.6203   6.6264   6.7809   6.8018   6.8428   6.9282
     6.9355   6.9803   7.0200   7.0227   8.7761   9.0281   9.1085   9.1609
     9.6707   9.6758   9.7925   9.8271   9.8554   9.8604   9.9045   9.9261
    10.1445  10.1838  10.2811  10.3249  10.4606  10.4895  10.6373  10.6619
    10.7793  10.8708  10.8864  10.9112  10.9421  10.9862  10.9866  11.0442
    11.0660  11.0767  11.1196  11.1829  11.1991  11.2417  11.2872  11.3681
    11.4295  11.4896  11.5182  11.5932

          k = 0.0000 0.5430-0.4776 (145752 PWs)   bands (ev):

   -22.6763 -22.6742 -22.5842 -22.5824 -22.5059 -22.5049 -22.4936 -22.4924
   -22.4453 -22.4447 -22.3568 -22.3564 -22.3531 -22.3529 -22.2829 -22.2827
   -22.2606 -22.2603 -22.2382 -22.2375 -22.1479 -22.1471 -22.1468 -22.1460
   -18.0122 -18.0106 -17.9803 -17.9792 -17.9502 -17.9500 -17.8964 -17.8957
   -17.8668 -17.8661 -17.8606 -17.8599 -17.7446 -17.7438 -17.7348 -17.7337
   -17.7024 -17.7021 -17.6877 -17.6873 -17.6425 -17.6420 -17.6347 -17.6344
   -17.5570 -17.5567 -17.5543 -17.5539 -16.5951 -16.5947 -16.5853 -16.5848
   -15.8826 -15.8823 -15.8708 -15.8704 -15.6658 -15.6657 -15.6396 -15.6395
   -14.6615 -14.6607 -14.6572 -14.6563 -14.2884 -14.2882 -14.2722 -14.2719
   -11.3632 -11.3624 -11.3021 -11.3013 -11.1806 -11.1799 -11.1362 -11.1356
   -10.9299 -10.9294 -10.9066 -10.9061  -9.4158  -9.4152  -9.3785  -9.3779
    -9.1742  -9.1736  -9.1603  -9.1597  -8.9961  -8.9954  -8.9700  -8.9693
    -8.0128  -8.0126  -7.9847  -7.9845  -7.3878  -7.3876  -7.3205  -7.3204
    -6.5829  -6.5827  -6.5143  -6.5141  -6.3012  -6.3001  -6.2587  -6.2581
    -6.0972  -6.0970  -6.0640  -6.0638  -5.9209  -5.9204  -5.7953  -5.7947
    -5.6373  -5.6369  -5.5560  -5.5552  -5.4351  -5.4339  -5.3468  -5.3466
    -5.3036  -5.3031  -5.2456  -5.2455  -5.1783  -5.1777  -5.1236  -5.1232
    -5.0094  -5.0092  -4.9413  -4.9409  -4.8760  -4.8757  -4.8109  -4.8106
    -4.7737  -4.7736  -4.7049  -4.7048  -4.6491  -4.6489  -4.5934  -4.5929
    -4.5547  -4.5546  -4.5082  -4.5078  -4.4561  -4.4559  -4.3603  -4.3602
    -4.3135  -4.3133  -4.2640  -4.2638  -4.1567  -4.1563  -4.1129  -4.1126
    -4.0323  -4.0321  -3.9633  -3.9631  -3.9461  -3.9456  -3.8877  -3.8875
    -3.8108  -3.8107  -3.7402  -3.7396  -3.6320  -3.6312  -3.5565  -3.5562
    -3.4842  -3.4840  -3.4593  -3.4591  -3.3036  -3.3034  -3.2628  -3.2627
    -3.0714  -3.0711  -3.0401  -3.0399  -2.8890  -2.8884  -2.8112  -2.8107
    -2.5598  -2.5595  -2.5457  -2.5454  -2.2821  -2.2820  -2.2289  -2.2288
    -2.1701  -2.1694  -2.1361  -2.1353  -2.0171  -2.0165  -1.9804  -1.9800
    -1.6217  -1.6210  -1.6030  -1.6023  -1.1304  -1.1303  -1.0551  -1.0550
    -0.7023  -0.7017  -0.6803  -0.6796   0.4573   0.4586   0.5347   0.5354
     0.6106   0.6109   0.6744   0.6747   0.6990   0.6995   0.7340   0.7345
     0.8075   0.8080   0.8682   0.8687   0.9333   0.9338   0.9875   0.9879
     1.0463   1.0464   1.1362   1.1365   1.1937   1.1941   1.2143   1.2147
     1.2755   1.2756   1.2983   1.2986   1.3479   1.3485   1.3779   1.3785
     1.4037   1.4043   1.4372   1.4376   1.5060   1.5064   1.5301   1.5305
     1.5579   1.5579   1.6255   1.6259   1.6693   1.6695   1.6879   1.6883
     1.7165   1.7171   1.7761   1.7762   1.8322   1.8323   1.8564   1.8567
     1.9445   1.9447   1.9599   1.9604   1.9916   1.9923   2.0716   2.0723
     2.1092   2.1096   2.1259   2.1261   2.2127   2.2130   2.2434   2.2441
     2.3284   2.3287   2.4068   2.4069   2.4455   2.4462   2.4760   2.4763
     2.5098   2.5106   2.5519   2.5533   2.6708   2.6713   2.6861   2.6868
     2.9128   2.9134   2.9627   2.9633   5.9557   5.9569   6.1878   6.1884
     6.3206   6.3210   6.3659   6.3666   6.4588   6.4596   6.4937   6.4946
     6.5486   6.5492   6.6191   6.6192   6.7881   6.7882   6.8796   6.8799
     6.9590   6.9593   7.0226   7.0228   8.9233   8.9238   9.1142   9.1146
     9.6755   9.6761   9.7396   9.7401   9.8901   9.8903   9.9451   9.9452
    10.1975  10.1977  10.3114  10.3115  10.5765  10.5765  10.6110  10.6112
    10.7195  10.7200  10.7825  10.7832  10.9494  10.9497  11.0243  11.0246
    11.1064  11.1070  11.1688  11.1694  11.2541  11.2543  11.3385  11.3387
    11.4370  11.4373  11.5577  11.5579

          k =-0.5000 0.0000-0.1941 (145824 PWs)   bands (ev):

   -22.6830 -22.6809 -22.5886 -22.5868 -22.5005 -22.4996 -22.4873 -22.4865
   -22.4553 -22.4548 -22.3632 -22.3619 -22.3479 -22.3465 -22.2796 -22.2794
   -22.2608 -22.2605 -22.2337 -22.2330 -22.1456 -22.1449 -22.1438 -22.1432
   -18.0172 -18.0163 -17.9792 -17.9788 -17.9520 -17.9518 -17.8930 -17.8924
   -17.8725 -17.8717 -17.8590 -17.8589 -17.7465 -17.7458 -17.7383 -17.7371
   -17.6920 -17.6919 -17.6797 -17.6797 -17.6494 -17.6488 -17.6405 -17.6400
   -17.5571 -17.5570 -17.5527 -17.5526 -16.6153 -16.6149 -16.5687 -16.5682
   -15.8804 -15.8792 -15.8732 -15.8720 -15.6628 -15.6623 -15.6612 -15.6607
   -14.6593 -14.6583 -14.6498 -14.6488 -14.2743 -14.2740 -14.2561 -14.2559
   -11.3896 -11.3892 -11.2854 -11.2850 -11.1780 -11.1776 -11.1544 -11.1540
   -10.9255 -10.9248 -10.9090 -10.9082  -9.4687  -9.4678  -9.3381  -9.3372
    -9.1629  -9.1624  -9.1471  -9.1467  -8.9940  -8.9934  -8.9441  -8.9434
    -8.0898  -8.0895  -7.9546  -7.9544  -7.3943  -7.3942  -7.2862  -7.2862
    -6.5452  -6.5449  -6.4436  -6.4431  -6.4072  -6.4069  -6.2783  -6.2777
    -6.1448  -6.1448  -6.0246  -6.0246  -5.9282  -5.9279  -5.7991  -5.7984
    -5.6540  -5.6533  -5.6029  -5.6027  -5.4615  -5.4609  -5.3582  -5.3577
    -5.2375  -5.2372  -5.2255  -5.2255  -5.1147  -5.1140  -5.0452  -5.0451
    -5.0371  -5.0371  -4.9369  -4.9363  -4.8526  -4.8526  -4.7649  -4.7648
    -4.7310  -4.7307  -4.7028  -4.7026  -4.6273  -4.6272  -4.6100  -4.6098
    -4.5730  -4.5728  -4.4967  -4.4966  -4.4527  -4.4520  -4.4086  -4.4085
    -4.3309  -4.3304  -4.2903  -4.2902  -4.2099  -4.2096  -4.1257  -4.1257
    -4.1189  -4.1186  -4.0382  -4.0379  -3.9694  -3.9686  -3.9296  -3.9295
    -3.8765  -3.8764  -3.7164  -3.7158  -3.5788  -3.5784  -3.5432  -3.5431
    -3.5189  -3.5187  -3.4772  -3.4767  -3.2744  -3.2744  -3.2030  -3.2027
    -3.0588  -3.0585  -2.9310  -2.9309  -2.8233  -2.8227  -2.8130  -2.8127
    -2.5878  -2.5875  -2.5692  -2.5688  -2.3565  -2.3563  -2.2009  -2.2009
    -2.1461  -2.1456  -2.1138  -2.1135  -2.0148  -2.0148  -1.9915  -1.9914
    -1.6328  -1.6322  -1.5667  -1.5661  -1.1294  -1.1293  -1.0426  -1.0426
    -0.7349  -0.7339  -0.6512  -0.6504   0.4215   0.4225   0.5686   0.5690
     0.6180   0.6187   0.6559   0.6567   0.7511   0.7512   0.7694   0.7695
     0.7875   0.7876   0.8981   0.8985   0.9227   0.9230   1.0267   1.0271
     1.0552   1.0553   1.0884   1.0887   1.1255   1.1255   1.1853   1.1857
     1.2435   1.2442   1.3242   1.3244   1.3510   1.3511   1.3636   1.3638
     1.3859   1.3865   1.4414   1.4418   1.4855   1.4856   1.5165   1.5170
     1.5583   1.5585   1.6309   1.6312   1.6538   1.6548   1.6652   1.6655
     1.7653   1.7654   1.8228   1.8230   1.8481   1.8485   1.8630   1.8633
     1.8883   1.8887   1.9556   1.9560   2.0161   2.0163   2.0370   2.0378
     2.0908   2.0910   2.1403   2.1406   2.2172   2.2177   2.2363   2.2368
     2.3483   2.3484   2.4113   2.4113   2.4238   2.4240   2.4516   2.4522
     2.5190   2.5192   2.5681   2.5687   2.6379   2.6384   2.7101   2.7106
     2.9521   2.9525   2.9768   2.9772   5.8721   5.8733   6.1787   6.1795
     6.3147   6.3147   6.3825   6.3833   6.4864   6.4864   6.5226   6.5234
     6.6363   6.6365   6.7024   6.7024   6.7418   6.7418   6.8752   6.8752
     6.9386   6.9388   7.0117   7.0117   8.7874   8.7880   9.0829   9.0835
     9.5686   9.5690   9.8213   9.8213   9.9035   9.9040   9.9764   9.9764
    10.2330  10.2330  10.4217  10.4220  10.5039  10.5042  10.5557  10.5560
    10.7824  10.7825  10.8242  10.8250  10.9847  10.9852  11.0113  11.0113
    11.0513  11.0514  11.1094  11.1096  11.2324  11.2326  11.3428  11.3433
    11.4888  11.4892  11.5659  11.5662

          k =-0.5000 0.0000-0.6717 (145722 PWs)   bands (ev):

   -22.6906 -22.6702 -22.6020 -22.5777 -22.5019 -22.4947 -22.4910 -22.4833
   -22.4650 -22.4455 -22.3652 -22.3627 -22.3480 -22.3442 -22.2837 -22.2760
   -22.2671 -22.2541 -22.2338 -22.2331 -22.1465 -22.1442 -22.1440 -22.1429
   -18.0293 -17.9870 -17.9828 -17.9772 -17.9769 -17.9387 -17.9040 -17.8850
   -17.8798 -17.8642 -17.8603 -17.8581 -17.7497 -17.7409 -17.7400 -17.7386
   -17.6938 -17.6892 -17.6820 -17.6771 -17.6518 -17.6459 -17.6450 -17.6344
   -17.5604 -17.5555 -17.5542 -17.5504 -16.6021 -16.5919 -16.5908 -16.5824
   -15.8814 -15.8758 -15.8755 -15.8716 -15.6729 -15.6696 -15.6524 -15.6514
   -14.6568 -14.6555 -14.6536 -14.6509 -14.2799 -14.2722 -14.2660 -14.2421
   -11.4084 -11.3443 -11.3264 -11.2547 -11.2165 -11.1778 -11.1548 -11.1115
   -10.9316 -10.9244 -10.9232 -10.9112  -9.4388  -9.4293  -9.3982  -9.3472
    -9.1686  -9.1578  -9.1507  -9.1382  -9.0312  -8.9814  -8.9514  -8.9115
    -8.0989  -8.0642  -7.9880  -7.9271  -7.3972  -7.3833  -7.2959  -7.2838
    -6.5661  -6.5342  -6.5301  -6.4633  -6.4106  -6.3380  -6.2515  -6.2253
    -6.1717  -6.1187  -6.0222  -6.0195  -5.9842  -5.8813  -5.7671  -5.7398
    -5.7118  -5.7113  -5.6524  -5.5508  -5.5234  -5.3943  -5.3896  -5.3500
    -5.3310  -5.2841  -5.2580  -5.2287  -5.1352  -5.0849  -5.0308  -5.0247
    -4.9847  -4.9449  -4.9133  -4.8391  -4.8338  -4.8329  -4.7946  -4.7700
    -4.7660  -4.7140  -4.7115  -4.6765  -4.6763  -4.6509  -4.6415  -4.6296
    -4.5693  -4.5484  -4.5430  -4.5317  -4.4505  -4.4277  -4.4130  -4.3273
    -4.3234  -4.3226  -4.2943  -4.2573  -4.2248  -4.2192  -4.1983  -4.1247
    -4.1169  -4.0644  -4.0640  -4.0548  -4.0098  -3.9813  -3.9090  -3.9047
    -3.8122  -3.8068  -3.7996  -3.7753  -3.6830  -3.5671  -3.5570  -3.5475
    -3.5222  -3.4788  -3.4653  -3.3923  -3.3745  -3.2907  -3.1634  -3.1030
    -3.0954  -3.0099  -2.9714  -2.9023  -2.8871  -2.8327  -2.7980  -2.7527
    -2.6962  -2.6021  -2.5398  -2.5300  -2.3396  -2.2943  -2.2634  -2.2299
    -2.1549  -2.1370  -2.1338  -2.0869  -2.0101  -2.0082  -2.0065  -1.9680
    -1.6458  -1.5990  -1.5853  -1.5660  -1.1831  -1.0728  -1.0499  -1.0440
    -0.7257  -0.7135  -0.7049  -0.6324   0.4816   0.5006   0.5582   0.5692
     0.5776   0.6024   0.6118   0.6967   0.7127   0.7384   0.7505   0.7973
     0.8060   0.8143   0.8640   0.8972   0.9181   0.9991   1.0121   1.0131
     1.0476   1.0506   1.0646   1.1038   1.1209   1.1572   1.1704   1.1738
     1.1883   1.2446   1.2498   1.2504   1.2989   1.3721   1.3832   1.3894
     1.3903   1.4189   1.4422   1.4704   1.4952   1.5086   1.5352   1.5449
     1.5485   1.5714   1.5814   1.5968   1.6328   1.6527   1.6942   1.7275
     1.7364   1.7944   1.8184   1.8217   1.8329   1.8351   1.8448   1.8643
     1.8703   1.9138   1.9587   1.9691   1.9830   2.0212   2.0617   2.0624
     2.0903   2.1008   2.1143   2.1488   2.2008   2.2209   2.2481   2.2958
     2.3701   2.3861   2.3971   2.4016   2.4084   2.4409   2.4722   2.4833
     2.4855   2.5159   2.5512   2.5620   2.5973   2.6574   2.6861   2.7166
     2.8743   2.9112   2.9985   3.0471   5.8318   5.9774   6.0791   6.1999
     6.3363   6.3372   6.3628   6.4077   6.4404   6.4791   6.5454   6.5493
     6.6328   6.6411   6.6673   6.7345   6.7368   6.7551   6.8394   6.8999
     6.9274   6.9417   6.9964   7.0179   8.7748   8.8390   8.9456   9.2170
     9.6039   9.6805   9.7180   9.7678   9.8280   9.8445   9.9807  10.0037
    10.1684  10.2998  10.3239  10.4773  10.5047  10.5387  10.6122  10.6588
    10.7246  10.7723  10.7728  10.8756  10.9218  10.9526  10.9740  10.9759
    11.0789  11.1068  11.1459  11.1868  11.2056  11.2686  11.3201  11.3767
    11.3782  11.4592  11.5614  11.6370

          k =-0.5000 0.5430-0.1941 (145758 PWs)   bands (ev):

   -22.6764 -22.6743 -22.5836 -22.5818 -22.5049 -22.5040 -22.4952 -22.4942
   -22.4455 -22.4449 -22.3573 -22.3568 -22.3526 -22.3521 -22.2826 -22.2824
   -22.2603 -22.2599 -22.2385 -22.2378 -22.1484 -22.1473 -22.1468 -22.1457
   -18.0110 -18.0096 -17.9853 -17.9845 -17.9445 -17.9441 -17.8968 -17.8961
   -17.8680 -17.8673 -17.8613 -17.8606 -17.7418 -17.7408 -17.7369 -17.7356
   -17.7009 -17.7006 -17.6886 -17.6882 -17.6443 -17.6438 -17.6342 -17.6338
   -17.5567 -17.5565 -17.5541 -17.5538 -16.6127 -16.6122 -16.5676 -16.5672
   -15.8812 -15.8801 -15.8753 -15.8742 -15.6529 -15.6522 -15.6505 -15.6498
   -14.6631 -14.6621 -14.6557 -14.6546 -14.2862 -14.2859 -14.2752 -14.2749
   -11.3655 -11.3649 -11.3042 -11.3036 -11.1650 -11.1646 -11.1536 -11.1531
   -10.9221 -10.9213 -10.9060 -10.9052  -9.4492  -9.4481  -9.3483  -9.3473
    -9.1763  -9.1757  -9.1532  -9.1526  -8.9962  -8.9956  -8.9680  -8.9673
    -8.0462  -8.0458  -7.9604  -7.9601  -7.3883  -7.3878  -7.3316  -7.3310
    -6.5023  -6.5021  -6.4705  -6.4698  -6.4116  -6.4113  -6.2876  -6.2869
    -6.1120  -6.1118  -6.0389  -6.0387  -5.9414  -5.9408  -5.7928  -5.7925
    -5.6146  -5.6143  -5.5269  -5.5265  -5.4510  -5.4500  -5.3414  -5.3412
    -5.2951  -5.2946  -5.2364  -5.2359  -5.1302  -5.1299  -5.0844  -5.0843
    -5.0286  -5.0284  -4.9498  -4.9497  -4.8937  -4.8932  -4.8786  -4.8785
    -4.8016  -4.8016  -4.7098  -4.7095  -4.6724  -4.6723  -4.5722  -4.5718
    -4.5278  -4.5274  -4.5136  -4.5133  -4.4339  -4.4335  -4.3718  -4.3715
    -4.3341  -4.3338  -4.2822  -4.2818  -4.1532  -4.1526  -4.0803  -4.0798
    -4.0426  -4.0424  -3.9945  -3.9944  -3.9373  -3.9366  -3.8436  -3.8434
    -3.7927  -3.7923  -3.6768  -3.6762  -3.6260  -3.6257  -3.5914  -3.5912
    -3.5548  -3.5543  -3.4335  -3.4330  -3.3165  -3.3162  -3.2381  -3.2380
    -3.1495  -3.1491  -3.0042  -3.0040  -2.8754  -2.8749  -2.8154  -2.8150
    -2.5468  -2.5464  -2.5382  -2.5378  -2.3166  -2.3166  -2.2203  -2.2199
    -2.1628  -2.1622  -2.1101  -2.1091  -2.0155  -2.0152  -1.9992  -1.9990
    -1.6512  -1.6503  -1.5734  -1.5726  -1.1309  -1.1308  -1.0453  -1.0452
    -0.7134  -0.7125  -0.6727  -0.6719   0.3950   0.3962   0.5656   0.5662
     0.6084   0.6089   0.6628   0.6628   0.7036   0.7041   0.7483   0.7488
     0.8190   0.8192   0.8873   0.8878   0.9305   0.9309   1.0160   1.0165
     1.0467   1.0469   1.0988   1.0991   1.2131   1.2134   1.2408   1.2411
     1.2547   1.2551   1.3027   1.3028   1.3344   1.3349   1.3611   1.3614
     1.4231   1.4233   1.4484   1.4490   1.4923   1.4925   1.5160   1.5161
     1.5794   1.5795   1.6209   1.6210   1.6436   1.6442   1.6731   1.6733
     1.7105   1.7111   1.7459   1.7464   1.8291   1.8293   1.8706   1.8710
     1.9588   1.9590   1.9688   1.9692   2.0221   2.0224   2.0577   2.0582
     2.1011   2.1013   2.1717   2.1721   2.1984   2.1987   2.2320   2.2325
     2.3396   2.3397   2.3971   2.3973   2.4363   2.4366   2.4736   2.4741
     2.5115   2.5119   2.5592   2.5604   2.6588   2.6595   2.7067   2.7075
     2.9221   2.9226   2.9458   2.9463   5.9368   5.9380   6.2152   6.2160
     6.3178   6.3179   6.3731   6.3739   6.4343   6.4348   6.5014   6.5019
     6.5201   6.5204   6.6394   6.6396   6.8060   6.8060   6.8696   6.8699
     6.9636   6.9640   7.0212   7.0214   8.9346   8.9353   9.0947   9.0953
     9.6797   9.6802   9.7871   9.7875   9.8693   9.8700   9.9068   9.9073
    10.1782  10.1784  10.2742  10.2745  10.5209  10.5211  10.6312  10.6315
    10.8077  10.8080  10.9089  10.9095  10.9684  10.9693  11.0113  11.0115
    11.0846  11.0849  11.1080  11.1082  11.2583  11.2584  11.2809  11.2813
    11.4834  11.4838  11.5539  11.5543

          k =-0.5000 0.5430-0.6717 (145774 PWs)   bands (ev):

   -22.6803 -22.6693 -22.5901 -22.5767 -22.5070 -22.5015 -22.4979 -22.4911
   -22.4510 -22.4396 -22.3573 -22.3558 -22.3543 -22.3506 -22.2893 -22.2755
   -22.2646 -22.2572 -22.2383 -22.2375 -22.1493 -22.1476 -22.1462 -22.1451
   -18.0190 -17.9982 -17.9841 -17.9802 -17.9574 -17.9419 -17.8960 -17.8832
   -17.8807 -17.8775 -17.8590 -17.8525 -17.7442 -17.7405 -17.7363 -17.7346
   -17.7017 -17.7003 -17.6899 -17.6862 -17.6450 -17.6439 -17.6345 -17.6315
   -17.5610 -17.5585 -17.5520 -17.5504 -16.5978 -16.5925 -16.5868 -16.5828
   -15.8823 -15.8780 -15.8761 -15.8740 -15.6657 -15.6655 -15.6373 -15.6363
   -14.6618 -14.6605 -14.6576 -14.6562 -14.2873 -14.2869 -14.2817 -14.2663
   -11.3802 -11.3381 -11.3254 -11.2814 -11.2037 -11.1860 -11.1331 -11.1112
   -10.9268 -10.9235 -10.9140 -10.9080  -9.4304  -9.4103  -9.3980  -9.3581
    -9.1746  -9.1655  -9.1604  -9.1542  -9.0191  -8.9882  -8.9680  -8.9495
    -8.0458  -8.0262  -7.9890  -7.9498  -7.3999  -7.3545  -7.3469  -7.3192
    -6.5912  -6.5699  -6.5269  -6.5180  -6.3273  -6.2890  -6.2633  -6.2466
    -6.1183  -6.0624  -6.0490  -6.0270  -5.9515  -5.8912  -5.8186  -5.7931
    -5.6567  -5.5924  -5.5784  -5.5444  -5.4987  -5.4146  -5.3450  -5.3171
    -5.3047  -5.2830  -5.2811  -5.2452  -5.2109  -5.1921  -5.1336  -5.0277
    -5.0221  -4.9736  -4.9428  -4.9343  -4.8852  -4.8415  -4.8200  -4.8168
    -4.7877  -4.7594  -4.7552  -4.6962  -4.6920  -4.6590  -4.6266  -4.6004
    -4.5733  -4.5725  -4.5127  -4.4855  -4.4507  -4.4036  -4.3782  -4.3359
    -4.3100  -4.2912  -4.2483  -4.2438  -4.1653  -4.1540  -4.1282  -4.0988
    -4.0739  -4.0543  -3.9990  -3.9831  -3.9098  -3.8960  -3.8790  -3.8708
    -3.7820  -3.7782  -3.7617  -3.7057  -3.6805  -3.5871  -3.5601  -3.5309
    -3.5103  -3.5030  -3.4689  -3.4497  -3.4109  -3.3703  -3.2673  -3.1862
    -3.1231  -3.0779  -3.0591  -2.9906  -2.8796  -2.8698  -2.7993  -2.7967
    -2.6024  -2.5969  -2.5232  -2.4938  -2.3006  -2.2760  -2.2552  -2.2294
    -2.1624  -2.1429  -2.1363  -2.1228  -2.0163  -2.0131  -1.9890  -1.9761
    -1.6426  -1.6065  -1.6037  -1.5908  -1.1675  -1.1155  -1.0390  -1.0287
    -0.7246  -0.7180  -0.6889  -0.6526   0.4598   0.4695   0.5210   0.5238
     0.6077   0.6109   0.6237   0.6707   0.7078   0.7440   0.7562   0.7823
     0.7923   0.8121   0.8487   0.8891   0.9019   0.9794   1.0069   1.0121
     1.0577   1.0586   1.0881   1.1416   1.1520   1.1820   1.1989   1.2101
     1.2448   1.2696   1.2770   1.3164   1.3212   1.3603   1.3698   1.3795
     1.4094   1.4212   1.4600   1.4647   1.4731   1.4988   1.5158   1.5186
     1.5739   1.5799   1.6173   1.6298   1.6439   1.6635   1.6743   1.6746
     1.6970   1.7566   1.7619   1.7912   1.8158   1.8206   1.8404   1.8833
     1.9393   1.9465   1.9722   1.9765   2.0218   2.0455   2.0465   2.0540
     2.0577   2.1198   2.1394   2.1929   2.2013   2.2040   2.2325   2.2543
     2.3255   2.3413   2.3864   2.4013   2.4172   2.4459   2.4627   2.4894
     2.5069   2.5243   2.5541   2.5623   2.6296   2.6722   2.7130   2.7581
     2.8605   2.8781   2.9703   2.9936   5.9213   6.0057   6.1417   6.2168
     6.3043   6.3358   6.3739   6.3777   6.4342   6.4677   6.4729   6.4776
     6.5415   6.5742   6.6280   6.6441   6.7960   6.7961   6.8456   6.9044
     6.9216   6.9837   7.0147   7.0274   8.9226   8.9477   9.0484   9.1742
     9.6637   9.6814   9.7270   9.7526   9.8324   9.8978   9.9214   9.9936
    10.1711  10.2136  10.2766  10.3453  10.5420  10.5939  10.6010  10.6382
    10.7174  10.7565  10.7651  10.8291  10.9198  10.9821  10.9971  11.0098
    11.0794  11.1536  11.1641  11.1968  11.2233  11.2631  11.2858  11.3159
    11.3805  11.4666  11.4876  11.6141

     highest occupied, lowest unoccupied level (ev):     3.0631    5.8170

!    total energy              =   -3819.25167437 Ry
     Harris-Foulkes estimate   =   -3819.25167437 Ry
     estimated scf accuracy    <          7.6E-09 Ry

     total all-electron energy =    -14332.583293 Ry

     The total energy is the sum of the following terms:

     one-electron contribution =   -1606.56941758 Ry
     hartree contribution      =    1116.70329014 Ry
     xc contribution           =    -731.75237885 Ry
     ewald contribution        =   -1582.70334019 Ry
     Dispersion Correction     =      -0.90288207 Ry
     one-center paw contrib.   =   -1014.02694583 Ry

     convergence has been achieved in  16 iterations

     Forces acting on atoms (cartesian axes, Ry/au):

     atom    1 type  1   force =    -0.00041898    0.00096577   -0.00060714
     atom    2 type  1   force =     0.00043132    0.00099248    0.00071929
     atom    3 type  1   force =     0.00041898   -0.00096577    0.00060714
     atom    4 type  1   force =    -0.00043132   -0.00099248   -0.00071929
     atom    5 type  3   force =    -0.00032059    0.00010742    0.00001103
     atom    6 type  3   force =     0.00031924    0.00010611   -0.00002187
     atom    7 type  3   force =     0.00032059   -0.00010742   -0.00001103
     atom    8 type  3   force =    -0.00031924   -0.00010611    0.00002187
     atom    9 type  2   force =     0.00031765    0.00033757    0.00032128
     atom   10 type  2   force =    -0.00038116    0.00030388   -0.00039178
     atom   11 type  2   force =    -0.00031765   -0.00033757   -0.00032128
     atom   12 type  2   force =     0.00038116   -0.00030388    0.00039178
     atom   13 type  2   force =     0.00063971    0.00038574    0.00020872
     atom   14 type  2   force =     0.00006103    0.00029062    0.00008086
     atom   15 type  2   force =    -0.00063971   -0.00038574   -0.00020872
     atom   16 type  2   force =    -0.00006103   -0.00029062   -0.00008086
     atom   17 type  4   force =     0.00030508    0.00013408   -0.00031402
     atom   18 type  4   force =    -0.00062450    0.00027104    0.00032225
     atom   19 type  4   force =    -0.00030508   -0.00013408    0.00031402
     atom   20 type  4   force =     0.00062450   -0.00027104   -0.00032225
     atom   21 type  4   force =    -0.00075004   -0.00003860   -0.00081034
     atom   22 type  4   force =     0.00041099   -0.00007924    0.00054183
     atom   23 type  4   force =     0.00075004    0.00003860    0.00081034
     atom   24 type  4   force =    -0.00041099    0.00007924   -0.00054183
     atom   25 type  1   force =     0.00020093   -0.00026036   -0.00051997
     atom   26 type  1   force =    -0.00022412   -0.00021029    0.00058231
     atom   27 type  1   force =    -0.00020093    0.00026036    0.00051997
     atom   28 type  1   force =     0.00022412    0.00021029   -0.00058231
     atom   29 type  3   force =    -0.00023174   -0.00028989    0.00044116
     atom   30 type  3   force =     0.00022664   -0.00028833   -0.00044192
     atom   31 type  3   force =     0.00023174    0.00028989   -0.00044116
     atom   32 type  3   force =    -0.00022664    0.00028833    0.00044192
     atom   33 type  2   force =     0.00070204    0.00011825    0.00072011
     atom   34 type  2   force =    -0.00060627    0.00011654   -0.00093464
     atom   35 type  2   force =    -0.00070204   -0.00011825   -0.00072011
     atom   36 type  2   force =     0.00060627   -0.00011654    0.00093464
     atom   37 type  2   force =    -0.00179110   -0.00299963   -0.00002554
     atom   38 type  2   force =     0.00069853   -0.00330776    0.00158989
     atom   39 type  2   force =     0.00179110    0.00299963    0.00002554
     atom   40 type  2   force =    -0.00069853    0.00330776   -0.00158989
     atom   41 type  4   force =    -0.00117870    0.00206366    0.00034245
     atom   42 type  4   force =     0.00147951    0.00254627   -0.00118006
     atom   43 type  4   force =     0.00117870   -0.00206366   -0.00034245
     atom   44 type  4   force =    -0.00147951   -0.00254627    0.00118006
     atom   45 type  4   force =     0.00142951    0.00092700   -0.00159485
     atom   46 type  4   force =    -0.00072550    0.00077294    0.00098673
     atom   47 type  4   force =    -0.00142951   -0.00092700    0.00159485
     atom   48 type  4   force =     0.00072550   -0.00077294   -0.00098673
     atom   49 type  1   force =     0.00033810    0.00006029    0.00053655
     atom   50 type  1   force =    -0.00031599   -0.00001987   -0.00040215
     atom   51 type  1   force =    -0.00033810   -0.00006029   -0.00053655
     atom   52 type  1   force =     0.00031599    0.00001987    0.00040215
     atom   53 type  3   force =     0.00027842   -0.00011543   -0.00011602
     atom   54 type  3   force =    -0.00028998   -0.00010524    0.00006944
     atom   55 type  3   force =    -0.00027842    0.00011543    0.00011602
     atom   56 type  3   force =     0.00028998    0.00010524   -0.00006944
     atom   57 type  2   force =     0.00000446   -0.00036903    0.00064901
     atom   58 type  2   force =    -0.00007859   -0.00035089   -0.00072911
     atom   59 type  2   force =    -0.00000446    0.00036903   -0.00064901
     atom   60 type  2   force =     0.00007859    0.00035089    0.00072911
     atom   61 type  2   force =     0.00075325   -0.00007411    0.00075567
     atom   62 type  2   force =    -0.00007424   -0.00013651   -0.00021336
     atom   63 type  2   force =    -0.00075325    0.00007411   -0.00075567
     atom   64 type  2   force =     0.00007424    0.00013651    0.00021336
     atom   65 type  4   force =     0.00030517   -0.00047665    0.00004676
     atom   66 type  4   force =    -0.00057635   -0.00033930   -0.00043754
     atom   67 type  4   force =    -0.00030517    0.00047665   -0.00004676
     atom   68 type  4   force =     0.00057635    0.00033930    0.00043754
     atom   69 type  4   force =    -0.00123083   -0.00024578   -0.00066995
     atom   70 type  4   force =     0.00086911   -0.00032848    0.00055485
     atom   71 type  4   force =     0.00123083    0.00024578    0.00066995
     atom   72 type  4   force =    -0.00086911    0.00032848   -0.00055485
     atom   73 type  1   force =    -0.00021019    0.00041854    0.00042272
     atom   74 type  1   force =     0.00026595    0.00042498   -0.00037801
     atom   75 type  1   force =     0.00021019   -0.00041854   -0.00042272
     atom   76 type  1   force =    -0.00026595   -0.00042498    0.00037801
     atom   77 type  3   force =    -0.00031952    0.00055605   -0.00022546
     atom   78 type  3   force =     0.00031043    0.00055378    0.00022503
     atom   79 type  3   force =     0.00031952   -0.00055605    0.00022546
     atom   80 type  3   force =    -0.00031043   -0.00055378   -0.00022503
     atom   81 type  2   force =    -0.00080800    0.00016369   -0.00037713
     atom   82 type  2   force =     0.00076240    0.00011975    0.00033534
     atom   83 type  2   force =     0.00080800   -0.00016369    0.00037713
     atom   84 type  2   force =    -0.00076240   -0.00011975   -0.00033534
     atom   85 type  2   force =     0.00056902   -0.00012551    0.00006573
     atom   86 type  2   force =    -0.00021221    0.00025838    0.00022911
     atom   87 type  2   force =    -0.00056902    0.00012551   -0.00006573
     atom   88 type  2   force =     0.00021221   -0.00025838   -0.00022911
     atom   89 type  4   force =    -0.00047281    0.00010049   -0.00032846
     atom   90 type  4   force =     0.00021313   -0.00003273    0.00025200
     atom   91 type  4   force =     0.00047281   -0.00010049    0.00032846
     atom   92 type  4   force =    -0.00021313    0.00003273   -0.00025200
     atom   93 type  4   force =     0.00017599    0.00024731    0.00016192
     atom   94 type  4   force =    -0.00026031    0.00002357   -0.00036998
     atom   95 type  4   force =    -0.00017599   -0.00024731   -0.00016192
     atom   96 type  4   force =     0.00026031   -0.00002357    0.00036998
     atom   97 type  1   force =     0.00043367    0.00089891   -0.00148546
     atom   98 type  1   force =    -0.00044898    0.00096891    0.00152821
     atom   99 type  1   force =    -0.00043367   -0.00089891    0.00148546
     atom  100 type  1   force =     0.00044898   -0.00096891   -0.00152821
     atom  101 type  3   force =    -0.00080984    0.00023001   -0.00048953
     atom  102 type  3   force =     0.00080738    0.00021398    0.00047418
     atom  103 type  3   force =     0.00080984   -0.00023001    0.00048953
     atom  104 type  3   force =    -0.00080738   -0.00021398   -0.00047418
     atom  105 type  2   force =     0.00083733    0.00094984    0.00108396
     atom  106 type  2   force =    -0.00080128    0.00092483   -0.00118889
     atom  107 type  2   force =    -0.00083733   -0.00094984   -0.00108396
     atom  108 type  2   force =     0.00080128   -0.00092483    0.00118889
     atom  109 type  2   force =    -0.00141539    0.00091624    0.00136456
     atom  110 type  2   force =     0.00076439    0.00091031   -0.00055584
     atom  111 type  2   force =     0.00141539   -0.00091624   -0.00136456
     atom  112 type  2   force =    -0.00076439   -0.00091031    0.00055584
     atom  113 type  4   force =     0.00073749   -0.00144235   -0.00019849
     atom  114 type  4   force =    -0.00046498   -0.00122029   -0.00015379
     atom  115 type  4   force =    -0.00073749    0.00144235    0.00019849
     atom  116 type  4   force =     0.00046498    0.00122029    0.00015379
     atom  117 type  4   force =     0.00146183   -0.00130018   -0.00026177
     atom  118 type  4   force =    -0.00111449   -0.00151534   -0.00013901
     atom  119 type  4   force =    -0.00146183    0.00130018    0.00026177
     atom  120 type  4   force =     0.00111449    0.00151534    0.00013901
     atom  121 type  1   force =    -0.00047004    0.00064325   -0.00010830
     atom  122 type  1   force =     0.00051821    0.00065621    0.00013732
     atom  123 type  1   force =     0.00047004   -0.00064325    0.00010830
     atom  124 type  1   force =    -0.00051821   -0.00065621   -0.00013732
     atom  125 type  3   force =    -0.00035670   -0.00041600    0.00017707
     atom  126 type  3   force =     0.00034579   -0.00041991   -0.00017719
     atom  127 type  3   force =     0.00035670    0.00041600   -0.00017707
     atom  128 type  3   force =    -0.00034579    0.00041991    0.00017719
     atom  129 type  2   force =    -0.00022210   -0.00065996    0.00001746
     atom  130 type  2   force =     0.00011160   -0.00072825   -0.00009336
     atom  131 type  2   force =     0.00022210    0.00065996   -0.00001746
     atom  132 type  2   force =    -0.00011160    0.00072825    0.00009336
     atom  133 type  2   force =     0.00020438    0.00004225    0.00088676
     atom  134 type  2   force =     0.00069490    0.00102709   -0.00050178
     atom  135 type  2   force =    -0.00020438   -0.00004225   -0.00088676
     atom  136 type  2   force =    -0.00069490   -0.00102709    0.00050178
     atom  137 type  4   force =    -0.00038183   -0.00017730    0.00029150
     atom  138 type  4   force =     0.00000062   -0.00074796   -0.00019797
     atom  139 type  4   force =     0.00038183    0.00017730   -0.00029150
     atom  140 type  4   force =    -0.00000062    0.00074796    0.00019797
     atom  141 type  4   force =    -0.00099903    0.00073922   -0.00056668
     atom  142 type  4   force =     0.00054390    0.00038200    0.00013586
     atom  143 type  4   force =     0.00099903   -0.00073922    0.00056668
     atom  144 type  4   force =    -0.00054390   -0.00038200   -0.00013586

     Total force =     0.015094     Total SCF correction =     0.000225


     Computing stress (Cartesian axis) and pressure

          total   stress  (Ry/bohr**3)                   (kbar)     P=   36.82
   0.00024447   0.00000013   0.00001968         35.96      0.02      2.90
   0.00000013   0.00027163   0.00000026          0.02     39.96      0.04
   0.00001968   0.00000026   0.00023482          2.90      0.04     34.54


     Writing output data file scf.save
 
     init_run     :    129.21s CPU    135.26s WALL (       1 calls)
     electrons    :   5085.09s CPU   5323.42s WALL (       1 calls)
     forces       :     68.69s CPU     69.15s WALL (       1 calls)
     stress       :    615.19s CPU    616.07s WALL (       1 calls)

     Called by init_run:
     wfcinit      :    112.45s CPU    118.21s WALL (       1 calls)
     potinit      :      5.80s CPU      5.91s WALL (       1 calls)

     Called by electrons:
     c_bands      :   4615.82s CPU   4816.56s WALL (      16 calls)
     sum_band     :    447.45s CPU    482.54s WALL (      16 calls)
     v_of_rho     :      3.13s CPU      3.49s WALL (      17 calls)
     newd         :      8.41s CPU     10.44s WALL (      17 calls)
     PAW_pot      :      9.29s CPU      9.30s WALL (      17 calls)
     mix_rho      :      0.73s CPU      0.84s WALL (      16 calls)

     Called by c_bands:
     init_us_2    :     18.69s CPU     18.78s WALL (     280 calls)
     cegterg      :   4504.49s CPU   4705.01s WALL (     128 calls)

     Called by sum_band:
     sum_band:bec :      0.30s CPU      0.30s WALL (     128 calls)
     addusdens    :      8.36s CPU     10.31s WALL (      16 calls)

     Called by *egterg:
     h_psi        :   2236.13s CPU   2400.44s WALL (     546 calls)
     s_psi        :    463.13s CPU    463.17s WALL (     546 calls)
     g_psi        :      9.83s CPU      9.83s WALL (     410 calls)
     cdiaghg      :    326.61s CPU    326.67s WALL (     538 calls)

     Called by h_psi:
     h_psi:pot    :   2221.85s CPU   2385.91s WALL (     546 calls)
     h_psi:calbec :    539.60s CPU    540.70s WALL (     546 calls)
     vloc_psi     :   1215.73s CPU   1378.63s WALL (     546 calls)
     add_vuspsi   :    466.52s CPU    466.58s WALL (     546 calls)

     General routines
     calbec       :    835.51s CPU    837.21s WALL (     714 calls)
     fft          :     10.86s CPU     11.51s WALL (     245 calls)
     fftw         :   1308.61s CPU   1503.33s WALL (  319310 calls)
 
     Parallel routines
     fft_scatter  :    312.42s CPU    505.50s WALL (  319555 calls)
 
     PWSCF        :     1h38m CPU        1h44m WALL

 
   This run was terminated on:   0:51:17   5Nov2017            

=------------------------------------------------------------------------------=
   JOB DONE.
=------------------------------------------------------------------------------=
