
     Program PWSCF v.6.1 (svn rev. 13369) starts on  7Dec2017 at  3:17:45 

     This program is part of the open-source Quantum ESPRESSO suite
     for quantum simulation of materials; please cite
         "P. Giannozzi et al., J. Phys.:Condens. Matter 21 395502 (2009);
          URL http://www.quantum-espresso.org", 
     in publications or presentations arising from this work. More details at
     http://www.quantum-espresso.org/quote

     Parallel version (MPI), running on     8 processors
     R & G space division:  proc/nbgrp/npool/nimage =       8
     Waiting for input...
     Reading input from standard input

     Current dimensions of program PWSCF are:
     Max number of different atomic species (ntypx) = 10
     Max number of k-points (npk) =  40000
     Max angular momentum in pseudopotentials (lmaxx) =  3
               file C.pbe-n-kjpaw_psl.0.1.UPF: wavefunction(s)  2P renormalized
               file N.pbe-n-kjpaw_psl.0.1.UPF: wavefunction(s)  2P renormalized
               file H.pbe-kjpaw_psl.0.1.UPF: wavefunction(s)  1S renormalized
               file O.pbe-n-kjpaw_psl.0.1.UPF: wavefunction(s)  2P renormalized

     -------------------------------------
     Parameters for Dispersion Correction:
     -------------------------------------
       atom      VdW radius       C_6     

        C          2.744         60.710
        N          2.640         42.670
        H          1.892          4.857
        O          2.536         24.284

     Subspace diagonalization in iterative solution of the eigenvalue problem:
     a serial algorithm will be used

 
     Parallelization info
     --------------------
     sticks:   dense  smooth     PW     G-vecs:    dense   smooth      PW
     Min        1242    1242    324               108033   108033   14542
     Max        1243    1243    325               108034   108034   14547
     Sum        9941    9941   2599               864269   864269  116363
 


     bravais-lattice index     =            0
     lattice parameter (alat)  =      10.9510  a.u.
     unit-cell volume          =    6397.2170 (a.u.)^3
     number of atoms/cell      =           96
     number of atomic types    =            4
     number of electrons       =       292.00
     number of Kohn-Sham states=          175
     kinetic-energy cutoff     =     100.0000  Ry
     charge density cutoff     =     400.0000  Ry
     convergence threshold     =      1.0E-08
     mixing beta               =       0.5000
     number of iterations used =            8  plain     mixing
     Exchange-correlation      =  SLA  PW   PBX  PBC ( 1  4  3  4 0 0)

     celldm(1)=  10.950963  celldm(2)=   0.000000  celldm(3)=   0.000000
     celldm(4)=   0.000000  celldm(5)=   0.000000  celldm(6)=   0.000000

     crystal axes: (cart. coord. in units of alat)
               a(1) = (   1.000000   0.000000   0.000000 )  
               a(2) = (   0.000000   2.605177   0.000000 )  
               a(3) = (  -0.308472   0.000000   1.869808 )  

     reciprocal axes: (cart. coord. in units 2 pi/alat)
               b(1) = (  1.000000  0.000000  0.164975 )  
               b(2) = (  0.000000  0.383851  0.000000 )  
               b(3) = (  0.000000  0.000000  0.534814 )  


     PseudoPot. # 1 for  C read from file:
     /scratch/ahofstet/pseudo/C.pbe-n-kjpaw_psl.0.1.UPF
     MD5 check sum: 430fe95172b1e11ef3f8ed03bac87931
     Pseudo is Projector augmented-wave + core cor, Zval =  4.0
     Generated using "atomic" code by A. Dal Corso  v.5.0.99 svn rev. 10869
     Shape of augmentation charge: BESSEL
     Using radial grid of 1073 points,  4 beta functions with: 
                l(1) =   0
                l(2) =   0
                l(3) =   1
                l(4) =   1
     Q(r) pseudized with 0 coefficients 


     PseudoPot. # 2 for  N read from file:
     /scratch/ahofstet/pseudo/N.pbe-n-kjpaw_psl.0.1.UPF
     MD5 check sum: f73187c8b701007e77325f868c9291d7
     Pseudo is Projector augmented-wave + core cor, Zval =  5.0
     Generated using "atomic" code by A. Dal Corso  v.5.0.99 svn rev. 10869
     Shape of augmentation charge: PSQ
     Using radial grid of 1085 points,  4 beta functions with: 
                l(1) =   0
                l(2) =   0
                l(3) =   1
                l(4) =   1
     Q(r) pseudized with 0 coefficients 


     PseudoPot. # 3 for  H read from file:
     /scratch/ahofstet/pseudo/H.pbe-kjpaw_psl.0.1.UPF
     MD5 check sum: 94e484f906d9e9773b2f6e52662335b2
     Pseudo is Projector augmented-wave, Zval =  1.0
     Generated using "atomic" code by A. Dal Corso  v.5.0.99 svn rev. 10869
     Shape of augmentation charge: PSQ
     Using radial grid of  929 points,  2 beta functions with: 
                l(1) =   0
                l(2) =   0
     Q(r) pseudized with 0 coefficients 


     PseudoPot. # 4 for  O read from file:
     /scratch/ahofstet/pseudo/O.pbe-n-kjpaw_psl.0.1.UPF
     MD5 check sum: 3f94a2996a3169367d6eb21d9b593f20
     Pseudo is Projector augmented-wave + core cor, Zval =  6.0
     Generated using "atomic" code by A. Dal Corso  v.5.0.99 svn rev. 10869
     Shape of augmentation charge: BESSEL
     Using radial grid of 1095 points,  4 beta functions with: 
                l(1) =   0
                l(2) =   0
                l(3) =   1
                l(4) =   1
     Q(r) pseudized with 0 coefficients 


     atomic species   valence    mass     pseudopotential
        C              4.00    12.01070      C( 1.00)
        N              5.00    14.00670      N( 1.00)
        H              1.00     1.00794      H( 1.00)
        O              6.00    15.99940      O( 1.00)

      2 Sym. Ops. (no inversion) found ( 1 have fractional translation)



   Cartesian axes

     site n.     atom                  positions (alat units)
         1           C   tau(   1) = (  -0.1701738   0.4594908   1.7656291  )
         2           C   tau(   2) = (   0.8617020   1.7620792   0.1041786  )
         3           C   tau(   3) = (   0.1030917   0.5266006   0.1255950  )
         4           C   tau(   4) = (   0.5884364   1.8291890   1.7442127  )
         5           C   tau(   5) = (   0.2058280   0.4653382   0.3366695  )
         6           C   tau(   6) = (   0.4857002   1.7679266   1.5331381  )
         7           C   tau(   7) = (   0.3905021   0.3073237   0.3114515  )
         8           C   tau(   8) = (   0.3010261   1.6099121   1.5583562  )
         9           C   tau(   9) = (   0.4273667   0.2422769   0.0813079  )
        10           C   tau(  10) = (   0.2641615   1.5448654   1.7884998  )
        11           C   tau(  11) = (   0.0136656   0.3004845   1.7404157  )
        12           C   tau(  12) = (   0.6778626   1.6030729   0.1293920  )
        13           C   tau(  13) = (   0.6522598   0.5825455   1.6379486  )
        14           C   tau(  14) = (   0.0392684   1.8851340   0.2318590  )
        15           C   tau(  15) = (   0.5911640   0.5905492   1.4044069  )
        16           C   tau(  16) = (   0.1003642   1.8931377   0.4654008  )
        17           H   tau(  17) = (   0.6908326   0.4939848   1.2776909  )
        18           H   tau(  18) = (   0.0006956   1.7965732   0.5921168  )
        19           C   tau(  19) = (   0.3998323   0.7194838   1.3371148  )
        20           C   tau(  20) = (   0.2916959   2.0220723   0.5326929  )
        21           H   tau(  21) = (   0.3498693   0.7247337   1.1557312  )
        22           H   tau(  22) = (   0.3416588   2.0273222   0.7140764  )
        23           C   tau(  23) = (   0.2700693   0.8447903   1.4987782  )
        24           C   tau(  24) = (   0.4214588   2.1473787   0.3710295  )
        25           H   tau(  25) = (   0.1233246   0.9472834   1.4415938  )
        26           H   tau(  26) = (   0.5682035   2.2498718   0.4282139  )
        27           C   tau(  27) = (   0.3263166   0.8417889   1.7338329  )
        28           C   tau(  28) = (   0.3652116   2.1443773   0.1359748  )
        29           H   tau(  29) = (   0.2238058   0.9372737   1.8590915  )
        30           H   tau(  30) = (   0.4677224   2.2398621   0.0107162  )
        31           C   tau(  31) = (   0.5152212   0.7104145   1.8025426  )
        32           C   tau(  32) = (   0.1763070   2.0130029   0.0672650  )
        33           C   tau(  33) = (   0.8884807   0.7095490   0.3901827  )
        34           C   tau(  34) = (  -0.1969526   2.0121375   1.4796249  )
        35           C   tau(  35) = (   0.7230700   0.8356318   0.5105968  )
        36           C   tau(  36) = (  -0.0315418   2.1382202   1.3592108  )
        37           H   tau(  37) = (   0.5849984   0.9291391   0.4234286  )
        38           H   tau(  38) = (   0.1065298   2.2317275   1.4463791  )
        39           C   tau(  39) = (   0.7397217   0.8398741   0.7518813  )
        40           C   tau(  40) = (  -0.0481935   2.1424625   1.1179264  )
        41           H   tau(  41) = (   0.6113998   0.9374592   0.8486120  )
        42           H   tau(  42) = (   0.0801283   2.2400476   1.0211957  )
        43           C   tau(  43) = (  -0.0812907   0.7263393   0.8693853  )
        44           C   tau(  44) = (   0.7728189   2.0289278   1.0004224  )
        45           H   tau(  45) = (  -0.0729543   0.7379037   1.0571306  )
        46           H   tau(  46) = (   0.7644825   2.0404921   0.8126771  )
        47           C   tau(  47) = (   0.0841090   0.5995333   0.7491218  )
        48           C   tau(  48) = (   0.6074192   1.9021217   1.1206859  )
        49           H   tau(  49) = (   0.2205230   0.5075436   0.8402575  )
        50           H   tau(  50) = (   0.4710052   1.8101321   1.0295502  )
        51           C   tau(  51) = (   0.0699155   0.5863303   0.5080713  )
        52           C   tau(  52) = (   0.6216127   1.8889187   1.3617364  )
        53           C   tau(  53) = (   0.5667521   0.1826142   0.4394212  )
        54           C   tau(  54) = (   0.1247760   1.4852027   1.4303865  )
        55           C   tau(  55) = (   0.6221340   0.1683227   0.6742137  )
        56           C   tau(  56) = (   0.0693941   1.4709112   1.1955940  )
        57           H   tau(  57) = (   0.5183480   0.2600964   0.8013293  )
        58           H   tau(  58) = (   0.1731801   1.5626848   1.0684784  )
        59           C   tau(  59) = (   0.8126912   0.0385210   0.7425288  )
        60           C   tau(  60) = (  -0.1211631   1.3411095   1.1272789  )
        61           H   tau(  61) = (   0.8560139   0.0269723   0.9253622  )
        62           H   tau(  62) = (  -0.1644857   1.3295607   0.9444455  )
        63           C   tau(  63) = (  -0.0513515   2.5263377   0.5799033  )
        64           C   tau(  64) = (   0.7428797   1.2237492   1.2899044  )
        65           H   tau(  65) = (   0.0960072   2.4237030   0.6355571  )
        66           H   tau(  66) = (   0.5955210   1.1211145   1.2342506  )
        67           C   tau(  67) = (   0.8974396   2.5341112   0.3436561  )
        68           C   tau(  68) = (  -0.2059114   1.2315227   1.5261516  )
        69           H   tau(  69) = (   0.0046003   2.4410787   0.2201720  )
        70           H   tau(  70) = (   0.6869278   1.1384903   1.6496357  )
        71           C   tau(  71) = (   0.7068392   0.0580560   0.2747309  )
        72           C   tau(  72) = (  -0.0153110   1.3606444   1.5950768  )
        73           C   tau(  73) = (   0.3289466   0.0540089   1.6875989  )
        74           C   tau(  74) = (   0.3625816   1.3565974   0.1822088  )
        75           C   tau(  75) = (   0.4909698   2.5283368   1.5678419  )
        76           C   tau(  76) = (   0.2005583   1.2257484   0.3019658  )
        77           H   tau(  77) = (   0.6286202   2.4366827   1.6569427  )
        78           H   tau(  78) = (   0.0629080   1.1340943   0.2128650  )
        79           C   tau(  79) = (   0.4719083   2.5176075   1.3268477  )
        80           C   tau(  80) = (   0.2196199   1.2150190   0.5429600  )
        81           H   tau(  81) = (   0.5969778   2.4147400   1.2310507  )
        82           H   tau(  82) = (   0.0945504   1.1121516   0.6387570  )
        83           C   tau(  83) = (   0.2941917   0.0280732   1.2095659  )
        84           C   tau(  84) = (   0.3973365   1.3306617   0.6602418  )
        85           H   tau(  85) = (   0.2849165   0.0158974   1.0218766  )
        86           H   tau(  86) = (   0.4066116   1.3184858   0.8479311  )
        87           C   tau(  87) = (   0.1306097   0.1583489   1.3286500  )
        88           C   tau(  88) = (   0.5609184   1.4609373   0.5411577  )
        89           H   tau(  89) = (  -0.0055230   0.2498418   1.2364752  )
        90           H   tau(  90) = (   0.6970512   1.5524302   0.6333325  )
        91           C   tau(  91) = (   0.1465427   0.1755221   1.5693011  )
        92           C   tau(  92) = (   0.5449855   1.4781105   0.3005066  )
        93           N   tau(  93) = (   0.9182362   0.6733969   0.1522475  )
        94           N   tau(  94) = (  -0.2267080   1.9759854   1.7175602  )
        95           N   tau(  95) = (   0.6127715   0.0963667   0.0548829  )
        96           N   tau(  96) = (   0.0787567   1.3989551   1.8149248  )

     number of k points=     8
                       cart. coord. in units 2pi/alat
        k(    1) = (   0.0000000   0.0000000   0.0000000), wk =   0.1666667
        k(    2) = (   0.0000000   0.0000000  -0.2674072), wk =   0.1666667
        k(    3) = (   0.0000000  -0.1919255   0.0000000), wk =   0.1666667
        k(    4) = (   0.0000000  -0.1919255  -0.2674072), wk =   0.1666667
        k(    5) = (   0.3333333   0.0000000   0.0549917), wk =   0.3333333
        k(    6) = (   0.3333333   0.0000000  -0.2124155), wk =   0.3333333
        k(    7) = (   0.3333333  -0.1919255   0.0549917), wk =   0.3333333
        k(    8) = (   0.3333333  -0.1919255  -0.2124155), wk =   0.3333333

     Dense  grid:   864269 G-vectors     FFT dimensions: (  72, 192, 135)

     Estimated max dynamical RAM per process >     812.49MB

     Estimated total allocated dynamical RAM >    6499.94MB

     Check: negative/imaginary core charge=   -0.000002    0.000000

     Initial potential from superposition of free atoms

     starting charge  291.99717, renormalised to  292.00000
     Starting wfc are  288 randomized atomic wfcs
     Checking if some PAW data can be deallocated... 

     total cpu time spent up to now is       58.8 secs

     per-process dynamical memory:   564.0 Mb

     Self-consistent Calculation

     iteration #  1     ecut=   100.00 Ry     beta=0.50
     Davidson diagonalization with overlap
     ethr =  1.00E-02,  avg # of iterations =  5.6

     total cpu time spent up to now is      213.0 secs

     total energy              =   -1255.73614914 Ry
     Harris-Foulkes estimate   =   -1261.05567301 Ry
     estimated scf accuracy    <      10.16254551 Ry

     iteration #  2     ecut=   100.00 Ry     beta=0.50
     Davidson diagonalization with overlap
     ethr =  3.48E-03,  avg # of iterations =  1.1

     total cpu time spent up to now is      284.0 secs

     total energy              =   -1254.92537828 Ry
     Harris-Foulkes estimate   =   -1256.14676642 Ry
     estimated scf accuracy    <       1.94075234 Ry

     iteration #  3     ecut=   100.00 Ry     beta=0.50
     Davidson diagonalization with overlap
     ethr =  6.65E-04,  avg # of iterations =  5.4

     total cpu time spent up to now is      463.0 secs

     total energy              =   -1257.22981449 Ry
     Harris-Foulkes estimate   =   -1258.47023997 Ry
     estimated scf accuracy    <       4.67931188 Ry

     iteration #  4     ecut=   100.00 Ry     beta=0.50
     Davidson diagonalization with overlap
     ethr =  6.65E-04,  avg # of iterations =  2.8

     total cpu time spent up to now is      534.8 secs

     total energy              =   -1257.82895046 Ry
     Harris-Foulkes estimate   =   -1257.37800745 Ry
     estimated scf accuracy    <       2.03213560 Ry

     iteration #  5     ecut=   100.00 Ry     beta=0.50
     Davidson diagonalization with overlap
     ethr =  6.65E-04,  avg # of iterations =  1.0

     total cpu time spent up to now is      604.0 secs

     total energy              =   -1255.85978278 Ry
     Harris-Foulkes estimate   =   -1257.85139007 Ry
     estimated scf accuracy    <       2.76646251 Ry

     iteration #  6     ecut=   100.00 Ry     beta=0.50
     Davidson diagonalization with overlap
     ethr =  6.65E-04,  avg # of iterations =  6.5

     total cpu time spent up to now is      767.6 secs

     total energy              =   -1257.16126502 Ry
     Harris-Foulkes estimate   =   -1257.57329961 Ry
     estimated scf accuracy    <       1.41853916 Ry

     iteration #  7     ecut=   100.00 Ry     beta=0.50
     Davidson diagonalization with overlap
     ethr =  4.86E-04,  avg # of iterations =  1.0

     total cpu time spent up to now is      836.3 secs

     total energy              =   -1256.91726331 Ry
     Harris-Foulkes estimate   =   -1257.18543635 Ry
     estimated scf accuracy    <       0.72221270 Ry

     iteration #  8     ecut=   100.00 Ry     beta=0.50
     Davidson diagonalization with overlap
     ethr =  2.47E-04,  avg # of iterations =  3.8

     total cpu time spent up to now is      928.2 secs

     total energy              =   -1257.02707638 Ry
     Harris-Foulkes estimate   =   -1257.05153850 Ry
     estimated scf accuracy    <       0.06482283 Ry

     iteration #  9     ecut=   100.00 Ry     beta=0.50
     Davidson diagonalization with overlap
     ethr =  2.22E-05,  avg # of iterations =  5.0

     total cpu time spent up to now is     1092.7 secs

     total energy              =   -1257.07366560 Ry
     Harris-Foulkes estimate   =   -1257.07490489 Ry
     estimated scf accuracy    <       0.00406920 Ry

     iteration # 10     ecut=   100.00 Ry     beta=0.50
     Davidson diagonalization with overlap
     c_bands:  1 eigenvalues not converged
     ethr =  1.39E-06,  avg # of iterations = 16.4

     total cpu time spent up to now is     1217.6 secs

     total energy              =   -1257.07526612 Ry
     Harris-Foulkes estimate   =   -1257.07430760 Ry
     estimated scf accuracy    <       0.00210593 Ry

     iteration # 11     ecut=   100.00 Ry     beta=0.50
     Davidson diagonalization with overlap
     ethr =  7.21E-07,  avg # of iterations =  5.6

     total cpu time spent up to now is     1358.2 secs

     total energy              =   -1257.07261800 Ry
     Harris-Foulkes estimate   =   -1257.07693975 Ry
     estimated scf accuracy    <       0.00916677 Ry

     iteration # 12     ecut=   100.00 Ry     beta=0.50
     Davidson diagonalization with overlap
     ethr =  7.21E-07,  avg # of iterations =  5.4

     total cpu time spent up to now is     1489.0 secs

     total energy              =   -1257.07378923 Ry
     Harris-Foulkes estimate   =   -1257.07389516 Ry
     estimated scf accuracy    <       0.00027890 Ry

     iteration # 13     ecut=   100.00 Ry     beta=0.50
     Davidson diagonalization with overlap
     ethr =  9.55E-08,  avg # of iterations =  2.6

     total cpu time spent up to now is     1561.6 secs

     total energy              =   -1257.07376106 Ry
     Harris-Foulkes estimate   =   -1257.07381150 Ry
     estimated scf accuracy    <       0.00008994 Ry

     iteration # 14     ecut=   100.00 Ry     beta=0.50
     Davidson diagonalization with overlap
     ethr =  3.08E-08,  avg # of iterations =  4.9

     total cpu time spent up to now is     1711.5 secs

     total energy              =   -1257.07382092 Ry
     Harris-Foulkes estimate   =   -1257.07385155 Ry
     estimated scf accuracy    <       0.00007016 Ry

     iteration # 15     ecut=   100.00 Ry     beta=0.50
     Davidson diagonalization with overlap
     ethr =  2.40E-08,  avg # of iterations =  1.0

     total cpu time spent up to now is     1780.3 secs

     total energy              =   -1257.07381509 Ry
     Harris-Foulkes estimate   =   -1257.07382446 Ry
     estimated scf accuracy    <       0.00001877 Ry

     iteration # 16     ecut=   100.00 Ry     beta=0.50
     Davidson diagonalization with overlap
     ethr =  6.43E-09,  avg # of iterations =  4.0

     total cpu time spent up to now is     1919.5 secs

     total energy              =   -1257.07382895 Ry
     Harris-Foulkes estimate   =   -1257.07383074 Ry
     estimated scf accuracy    <       0.00000621 Ry

     iteration # 17     ecut=   100.00 Ry     beta=0.50
     Davidson diagonalization with overlap
     ethr =  2.13E-09,  avg # of iterations =  1.0

     total cpu time spent up to now is     1988.4 secs

     total energy              =   -1257.07382876 Ry
     Harris-Foulkes estimate   =   -1257.07382912 Ry
     estimated scf accuracy    <       0.00000288 Ry

     iteration # 18     ecut=   100.00 Ry     beta=0.50
     Davidson diagonalization with overlap
     ethr =  9.86E-10,  avg # of iterations =  1.0

     total cpu time spent up to now is     2057.3 secs

     total energy              =   -1257.07382755 Ry
     Harris-Foulkes estimate   =   -1257.07382885 Ry
     estimated scf accuracy    <       0.00000216 Ry

     iteration # 19     ecut=   100.00 Ry     beta=0.50
     Davidson diagonalization with overlap
     ethr =  7.41E-10,  avg # of iterations =  4.1

     total cpu time spent up to now is     2192.3 secs

     total energy              =   -1257.07382877 Ry
     Harris-Foulkes estimate   =   -1257.07382930 Ry
     estimated scf accuracy    <       0.00000110 Ry

     iteration # 20     ecut=   100.00 Ry     beta=0.50
     Davidson diagonalization with overlap
     ethr =  3.78E-10,  avg # of iterations =  1.0

     total cpu time spent up to now is     2261.0 secs

     total energy              =   -1257.07382868 Ry
     Harris-Foulkes estimate   =   -1257.07382883 Ry
     estimated scf accuracy    <       0.00000027 Ry

     iteration # 21     ecut=   100.00 Ry     beta=0.50
     Davidson diagonalization with overlap
     ethr =  9.14E-11,  avg # of iterations =  4.0

     total cpu time spent up to now is     2405.3 secs

     total energy              =   -1257.07382890 Ry
     Harris-Foulkes estimate   =   -1257.07382897 Ry
     estimated scf accuracy    <       0.00000017 Ry

     iteration # 22     ecut=   100.00 Ry     beta=0.50
     Davidson diagonalization with overlap
     ethr =  5.78E-11,  avg # of iterations =  1.0

     total cpu time spent up to now is     2473.9 secs

     total energy              =   -1257.07382889 Ry
     Harris-Foulkes estimate   =   -1257.07382891 Ry
     estimated scf accuracy    <       0.00000004 Ry

     iteration # 23     ecut=   100.00 Ry     beta=0.50
     Davidson diagonalization with overlap
     ethr =  1.43E-11,  avg # of iterations =  4.0

     total cpu time spent up to now is     2621.9 secs

     total energy              =   -1257.07382893 Ry
     Harris-Foulkes estimate   =   -1257.07382895 Ry
     estimated scf accuracy    <       0.00000005 Ry

     iteration # 24     ecut=   100.00 Ry     beta=0.50
     Davidson diagonalization with overlap
     ethr =  1.43E-11,  avg # of iterations =  1.0

     total cpu time spent up to now is     2690.4 secs

     total energy              =   -1257.07382892 Ry
     Harris-Foulkes estimate   =   -1257.07382893 Ry
     estimated scf accuracy    <       0.00000003 Ry

     iteration # 25     ecut=   100.00 Ry     beta=0.50
     Davidson diagonalization with overlap
     ethr =  1.01E-11,  avg # of iterations =  2.0

     total cpu time spent up to now is     2760.9 secs

     total energy              =   -1257.07382892 Ry
     Harris-Foulkes estimate   =   -1257.07382893 Ry
     estimated scf accuracy    <       0.00000001 Ry

     iteration # 26     ecut=   100.00 Ry     beta=0.50
     Davidson diagonalization with overlap
     ethr =  4.15E-12,  avg # of iterations =  5.1

     total cpu time spent up to now is     2897.0 secs

     End of self-consistent calculation

          k = 0.0000 0.0000 0.0000 (108023 PWs)   bands (ev):

   -18.5391 -18.5336 -18.3825 -18.3763 -15.0321 -14.9990 -14.8043 -14.7592
   -14.2678 -14.2563 -14.0707 -14.0088 -13.9799 -13.9061 -13.1239 -13.0685
   -12.7215 -12.6776 -12.4529 -12.4145 -11.8704 -11.8577 -11.6877 -11.6660
   -11.6018 -11.5454 -10.9504 -10.8895 -10.8581 -10.8078 -10.7360 -10.7177
   -10.6908 -10.6844  -9.3866  -9.3641  -9.0720  -9.0575  -8.8771  -8.8716
    -8.6682  -8.6459  -7.7001  -7.6642  -7.6316  -7.5998  -7.5874  -7.5439
    -7.3409  -7.2947  -7.0675  -6.9938  -6.7585  -6.7447  -6.4038  -6.3908
    -6.3603  -6.3106  -5.9477  -5.8997  -5.8842  -5.8664  -4.9364  -4.9173
    -4.8975  -4.8884  -4.7154  -4.7140  -4.7050  -4.5964  -4.5666  -4.5287
    -4.5000  -4.4033  -4.3923  -4.3397  -3.9074  -3.9016  -3.8904  -3.8255
    -3.7394  -3.7223  -3.7026  -3.6951  -3.6492  -3.6362  -3.6146  -3.6029
    -3.3498  -3.3466  -3.2467  -3.2270  -3.2089  -3.1907  -2.9892  -2.9848
    -2.8648  -2.8063  -2.5551  -2.4762  -2.4623  -2.4400  -2.1549  -2.0798
    -2.0467  -1.9668  -1.9221  -1.8947  -1.8345  -1.7682  -1.7511  -1.7067
    -1.6603  -1.4777  -1.4675  -1.3854  -1.3404  -1.3241  -1.2880  -1.2614
    -1.2098  -1.1938  -1.1509  -1.1256  -0.9947  -0.9680  -0.9162  -0.8246
    -0.1828  -0.0115   0.0260   0.1761   0.2551   0.3820   0.4863   0.5285
     0.7416   0.9952   1.5193   1.5474   1.6506   1.6945   1.7010   1.8727
     2.0425   2.1671   4.2403   4.3885   5.3379   5.3766   5.5209   5.5600
     5.5603   5.6201   5.7537   5.8496   6.0548   6.2182   6.3335   6.4709
     6.6340   6.7299   6.8865   7.1243   7.2232   7.2509   7.4364   7.4654
     7.5545   7.6013   7.9917   8.2204   8.3318   8.3953   8.4658

          k = 0.0000 0.0000-0.2674 (108154 PWs)   bands (ev):

   -18.5390 -18.5335 -18.3825 -18.3763 -15.0426 -15.0050 -14.8156 -14.7642
   -14.2675 -14.2564 -14.0262 -13.9713 -13.9535 -13.8889 -13.1701 -13.0879
   -12.7792 -12.6996 -12.4515 -12.4141 -11.9282 -11.9107 -11.7096 -11.6846
   -11.5833 -11.5334 -10.8398 -10.8382 -10.7479 -10.7454 -10.7360 -10.7246
   -10.7074 -10.6795  -9.4128  -9.3450  -9.1178  -9.0771  -8.8458  -8.8418
    -8.7082  -8.6829  -7.7276  -7.7162  -7.6447  -7.6173  -7.6118  -7.6076
    -7.3930  -7.3532  -7.1011  -7.0336  -6.8010  -6.7875  -6.4407  -6.4192
    -6.2320  -6.2282  -5.8623  -5.8386  -5.7208  -5.7134  -5.0553  -5.0141
    -4.8620  -4.8489  -4.7617  -4.6471  -4.6089  -4.6056  -4.5651  -4.5410
    -4.3600  -4.3590  -4.3370  -4.3060  -3.8658  -3.8564  -3.8431  -3.8387
    -3.7662  -3.7593  -3.7421  -3.7382  -3.6718  -3.6689  -3.6281  -3.5657
    -3.5139  -3.5043  -3.4529  -3.2755  -3.2359  -3.1689  -2.9707  -2.9657
    -2.7801  -2.7615  -2.5111  -2.4671  -2.4393  -2.3342  -2.1534  -2.1230
    -2.0443  -2.0413  -2.0136  -2.0032  -1.8809  -1.8335  -1.7424  -1.7269
    -1.6208  -1.6128  -1.4690  -1.4293  -1.3428  -1.3112  -1.2011  -1.1805
    -1.1633  -1.1181  -1.0995  -1.0882  -1.0118  -0.9505  -0.9070  -0.8736
    -0.1637   0.0031   0.0573   0.1498   0.2740   0.3679   0.5508   0.6023
     0.7652   1.0274   1.4553   1.5526   1.6056   1.6790   1.7088   1.8665
     2.0211   2.1560   4.2157   4.3364   5.3383   5.3975   5.5174   5.5279
     5.5618   5.6560   5.7446   5.8014   6.0727   6.1957   6.3698   6.5571
     6.7665   6.9128   6.9969   7.1066   7.1363   7.3018   7.3472   7.4901
     7.5142   7.6635   7.8134   8.0224   8.4610   8.5715   8.5929

          k = 0.0000-0.1919 0.0000 (108086 PWs)   bands (ev):

   -18.5364 -18.5364 -18.3794 -18.3794 -15.0171 -15.0171 -14.7803 -14.7803
   -14.2620 -14.2620 -14.0508 -14.0508 -13.9320 -13.9320 -13.0978 -13.0978
   -12.6975 -12.6975 -12.4349 -12.4349 -11.8643 -11.8643 -11.6765 -11.6765
   -11.5732 -11.5732 -10.9255 -10.9255 -10.8299 -10.8299 -10.7260 -10.7260
   -10.6856 -10.6856  -9.3759  -9.3759  -9.0628  -9.0628  -8.8767  -8.8767
    -8.6563  -8.6563  -7.6727  -7.6727  -7.6298  -7.6298  -7.5621  -7.5621
    -7.3207  -7.3207  -7.0280  -7.0280  -6.7495  -6.7495  -6.3876  -6.3876
    -6.3457  -6.3457  -5.9381  -5.9381  -5.8621  -5.8621  -4.9165  -4.9165
    -4.9008  -4.9008  -4.7366  -4.7366  -4.6397  -4.6397  -4.5322  -4.5322
    -4.4570  -4.4570  -4.3617  -4.3617  -3.9149  -3.9149  -3.8593  -3.8593
    -3.7355  -3.7355  -3.7029  -3.7029  -3.6438  -3.6438  -3.6069  -3.6069
    -3.3489  -3.3489  -3.2243  -3.2243  -3.1795  -3.1795  -2.9861  -2.9861
    -2.8419  -2.8419  -2.6189  -2.6189  -2.2713  -2.2713  -2.1884  -2.1884
    -2.0815  -2.0815  -1.8488  -1.8488  -1.7808  -1.7808  -1.7270  -1.7270
    -1.6357  -1.6357  -1.4455  -1.4455  -1.2847  -1.2847  -1.2684  -1.2684
    -1.1943  -1.1943  -1.1185  -1.1185  -0.9726  -0.9726  -0.9023  -0.9023
    -0.1007  -0.1007   0.1007   0.1007   0.3025   0.3025   0.5154   0.5154
     0.8761   0.8761   1.5253   1.5253   1.6961   1.6961   1.7751   1.7751
     2.1074   2.1074   4.3136   4.3136   5.3960   5.3960   5.4341   5.4341
     5.6825   5.6825   5.7750   5.7750   6.1455   6.1455   6.3815   6.3815
     6.7855   6.7855   6.8443   6.8443   7.2369   7.2369   7.4993   7.4993
     7.6684   7.6684   7.9806   7.9806   8.4208   8.4208   8.6573

          k = 0.0000-0.1919-0.2674 (108056 PWs)   bands (ev):

   -18.5363 -18.5363 -18.3794 -18.3794 -15.0258 -15.0258 -14.7880 -14.7880
   -14.2619 -14.2619 -14.0092 -14.0092 -13.9108 -13.9108 -13.1330 -13.1330
   -12.7349 -12.7349 -12.4339 -12.4339 -11.9198 -11.9198 -11.6966 -11.6966
   -11.5579 -11.5579 -10.8381 -10.8381 -10.7488 -10.7488 -10.7321 -10.7321
   -10.6903 -10.6903  -9.3831  -9.3831  -9.0906  -9.0906  -8.8478  -8.8478
    -8.6942  -8.6942  -7.7214  -7.7214  -7.6349  -7.6349  -7.6065  -7.6065
    -7.3753  -7.3753  -7.0653  -7.0653  -6.7933  -6.7933  -6.4299  -6.4299
    -6.2312  -6.2312  -5.8532  -5.8532  -5.7143  -5.7143  -5.0322  -5.0322
    -4.8592  -4.8592  -4.7155  -4.7155  -4.6290  -4.6290  -4.4991  -4.4991
    -4.3845  -4.3845  -4.3135  -4.3135  -3.8638  -3.8638  -3.8466  -3.8466
    -3.7666  -3.7666  -3.7378  -3.7378  -3.6760  -3.6760  -3.6003  -3.6003
    -3.5120  -3.5120  -3.3562  -3.3562  -3.1804  -3.1804  -2.9705  -2.9705
    -2.7703  -2.7703  -2.5749  -2.5749  -2.2458  -2.2458  -2.1761  -2.1761
    -2.1177  -2.1177  -1.9172  -1.9172  -1.8913  -1.8913  -1.7411  -1.7411
    -1.5956  -1.5956  -1.5221  -1.5221  -1.2652  -1.2652  -1.1778  -1.1778
    -1.1455  -1.1455  -1.1161  -1.1161  -0.9648  -0.9648  -0.9060  -0.9060
    -0.0894  -0.0894   0.1132   0.1132   0.3010   0.3010   0.5883   0.5883
     0.8949   0.8949   1.5062   1.5062   1.6443   1.6443   1.7875   1.7875
     2.0940   2.0940   4.2742   4.2742   5.3826   5.3826   5.4686   5.4686
     5.6792   5.6792   5.7426   5.7426   6.1486   6.1486   6.4221   6.4221
     6.9097   6.9097   7.0603   7.0603   7.2034   7.2034   7.3575   7.3575
     7.4731   7.4731   8.0920   8.0920   8.5906   8.5914   8.6137

          k = 0.3333 0.0000 0.0550 (107995 PWs)   bands (ev):

   -18.5093 -18.5065 -18.4040 -18.4011 -14.9763 -14.9585 -14.8247 -14.8026
   -14.3107 -14.3030 -14.0165 -13.9725 -13.9613 -13.9188 -13.1461 -13.1183
   -12.7379 -12.7143 -12.4429 -12.4220 -11.8955 -11.8782 -11.7319 -11.7024
   -11.5689 -11.5425 -10.9072 -10.8541 -10.8285 -10.7914 -10.7312 -10.7153
   -10.6802 -10.6780  -9.3942  -9.3740  -9.0943  -9.0867  -8.8691  -8.8500
    -8.6719  -8.6571  -7.7090  -7.6911  -7.6488  -7.6088  -7.5889  -7.5518
    -7.3281  -7.3106  -7.0233  -6.9843  -6.7864  -6.7732  -6.3947  -6.3736
    -6.2990  -6.2591  -5.9025  -5.8693  -5.7840  -5.7705  -5.0030  -4.9928
    -4.9165  -4.8928  -4.8817  -4.8705  -4.7007  -4.6360  -4.5791  -4.5706
    -4.5586  -4.4864  -4.1632  -4.1350  -3.8817  -3.8631  -3.8353  -3.8008
    -3.7510  -3.7231  -3.7076  -3.6939  -3.6853  -3.6691  -3.6191  -3.5973
    -3.4457  -3.4174  -3.3496  -3.2762  -3.1973  -3.1784  -2.9949  -2.9875
    -2.8508  -2.8315  -2.8139  -2.7638  -2.3963  -2.3283  -2.1534  -2.0942
    -1.9428  -1.9148  -1.8765  -1.8244  -1.7975  -1.7070  -1.6530  -1.6025
    -1.5698  -1.5583  -1.4959  -1.4725  -1.2966  -1.2618  -1.2381  -1.2293
    -1.1965  -1.1860  -1.1434  -1.1299  -1.0523  -1.0242  -0.5848  -0.5314
    -0.0839   0.0285   0.1342   0.2441   0.3515   0.3864   0.4973   0.5384
     0.8031   0.9425   1.5064   1.5276   1.5437   1.6035   1.7029   1.8197
     2.0052   2.0808   4.2151   4.3171   5.3428   5.4864   5.5181   5.5489
     5.5904   5.5943   5.6736   5.7923   6.0396   6.1623   6.3584   6.4188
     6.6247   6.7301   7.1090   7.1509   7.2286   7.3932   7.4184   7.5337
     7.6315   7.9395   8.0228   8.0970   8.2335   8.3127   8.4165

          k = 0.3333 0.0000-0.2124 (108002 PWs)   bands (ev):

   -18.5093 -18.5065 -18.4040 -18.4010 -14.9814 -14.9604 -14.8288 -14.8027
   -14.3105 -14.3032 -13.9998 -13.9641 -13.9498 -13.9159 -13.1631 -13.1181
   -12.7585 -12.7121 -12.4438 -12.4233 -11.9158 -11.8955 -11.7229 -11.6996
   -11.5676 -11.5446 -10.8716 -10.8702 -10.8079 -10.7932 -10.7364 -10.7263
   -10.6821 -10.6654  -9.4056  -9.3409  -9.0937  -9.0488  -8.8562  -8.8489
    -8.6592  -8.6446  -7.7138  -7.6818  -7.6460  -7.6408  -7.6051  -7.6002
    -7.3536  -7.3427  -7.0689  -7.0300  -6.7736  -6.7552  -6.4127  -6.4075
    -6.2724  -6.2479  -5.8675  -5.8361  -5.8052  -5.7828  -4.9934  -4.9435
    -4.8850  -4.8808  -4.8621  -4.8470  -4.7050  -4.6422  -4.6045  -4.5699
    -4.5109  -4.4391  -4.1284  -4.1246  -3.8967  -3.8816  -3.8500  -3.8201
    -3.7395  -3.7378  -3.7094  -3.7059  -3.6600  -3.6507  -3.6378  -3.5876
    -3.4462  -3.4425  -3.3603  -3.2828  -3.1951  -3.1873  -2.9767  -2.9669
    -2.8785  -2.8474  -2.8074  -2.7404  -2.3290  -2.3001  -2.1480  -2.1111
    -2.0448  -2.0088  -1.9361  -1.8967  -1.7902  -1.7396  -1.6512  -1.6428
    -1.5962  -1.5499  -1.5351  -1.4592  -1.3449  -1.2891  -1.2125  -1.1896
    -1.1479  -1.1193  -1.1044  -1.0933  -1.0496  -1.0072  -0.5642  -0.5221
    -0.0651   0.0296   0.1774   0.2221   0.3570   0.4150   0.5315   0.5875
     0.7933   0.9322   1.4749   1.5117   1.5459   1.5614   1.7135   1.7812
     1.9972   2.0839   4.1982   4.2871   5.3719   5.4626   5.4891   5.5232
     5.5606   5.6398   5.6497   5.8440   6.0311   6.1833   6.3776   6.4856
     6.6456   6.7752   7.1342   7.1948   7.3253   7.3876   7.4314   7.5170
     7.6039   7.7608   7.9382   8.0161   8.1063   8.3178   8.3585

          k = 0.3333-0.1919 0.0550 (108000 PWs)   bands (ev):

   -18.5079 -18.5079 -18.4025 -18.4025 -14.9680 -14.9680 -14.8131 -14.8131
   -14.3069 -14.3069 -14.0020 -14.0020 -13.9326 -13.9326 -13.1327 -13.1327
   -12.7255 -12.7255 -12.4327 -12.4327 -11.8882 -11.8882 -11.7154 -11.7154
   -11.5561 -11.5561 -10.8887 -10.8887 -10.8012 -10.8012 -10.7224 -10.7224
   -10.6808 -10.6808  -9.3843  -9.3843  -9.0899  -9.0899  -8.8603  -8.8603
    -8.6642  -8.6642  -7.6968  -7.6968  -7.6383  -7.6383  -7.5643  -7.5643
    -7.3198  -7.3198  -7.0038  -7.0038  -6.7792  -6.7792  -6.3858  -6.3858
    -6.2766  -6.2766  -5.8879  -5.8879  -5.7763  -5.7763  -4.9940  -4.9940
    -4.9064  -4.9064  -4.8712  -4.8712  -4.6923  -4.6923  -4.5868  -4.5868
    -4.4971  -4.4971  -4.1293  -4.1293  -3.9077  -3.9077  -3.7949  -3.7949
    -3.7401  -3.7401  -3.7062  -3.7062  -3.6650  -3.6650  -3.6164  -3.6164
    -3.4361  -3.4361  -3.3091  -3.3091  -3.1917  -3.1917  -2.9910  -2.9910
    -2.8456  -2.8456  -2.7734  -2.7734  -2.3805  -2.3805  -2.1209  -2.1209
    -1.9209  -1.9209  -1.8458  -1.8458  -1.7513  -1.7513  -1.6419  -1.6419
    -1.5591  -1.5591  -1.4552  -1.4552  -1.3167  -1.3167  -1.2448  -1.2448
    -1.1748  -1.1748  -1.1298  -1.1298  -1.0381  -1.0381  -0.5587  -0.5587
    -0.0287  -0.0287   0.1901   0.1901   0.3684   0.3684   0.5144   0.5144
     0.8745   0.8745   1.5085   1.5085   1.5856   1.5856   1.7606   1.7606
     2.0438   2.0438   4.2659   4.2659   5.3991   5.3991   5.5140   5.5140
     5.6334   5.6334   5.7209   5.7209   6.1067   6.1067   6.3918   6.3918
     6.6725   6.6725   7.1337   7.1337   7.2600   7.2600   7.5544   7.5544
     7.7732   7.7732   8.0091   8.0091   8.2874   8.2874   8.4400

          k = 0.3333-0.1919-0.2124 (108002 PWs)   bands (ev):

   -18.5079 -18.5079 -18.4025 -18.4025 -14.9717 -14.9717 -14.8149 -14.8149
   -14.3069 -14.3069 -13.9873 -13.9873 -13.9274 -13.9274 -13.1418 -13.1418
   -12.7339 -12.7339 -12.4338 -12.4338 -11.9066 -11.9066 -11.7097 -11.7097
   -11.5566 -11.5566 -10.8722 -10.8722 -10.7988 -10.7988 -10.7310 -10.7310
   -10.6746 -10.6746  -9.3757  -9.3757  -9.0680  -9.0680  -8.8536  -8.8536
    -8.6516  -8.6516  -7.6968  -7.6968  -7.6455  -7.6455  -7.6017  -7.6017
    -7.3484  -7.3484  -7.0496  -7.0496  -6.7638  -6.7638  -6.4108  -6.4108
    -6.2593  -6.2593  -5.8476  -5.8476  -5.7988  -5.7988  -4.9677  -4.9677
    -4.8865  -4.8865  -4.8525  -4.8525  -4.6812  -4.6812  -4.5793  -4.5793
    -4.4732  -4.4732  -4.1343  -4.1343  -3.8882  -3.8882  -3.8194  -3.8194
    -3.7301  -3.7301  -3.7138  -3.7138  -3.6592  -3.6592  -3.6184  -3.6184
    -3.4470  -3.4470  -3.3265  -3.3265  -3.2011  -3.2011  -2.9707  -2.9707
    -2.8450  -2.8450  -2.7623  -2.7623  -2.3610  -2.3610  -2.0937  -2.0937
    -2.0280  -2.0280  -1.9228  -1.9228  -1.7560  -1.7560  -1.6571  -1.6571
    -1.5889  -1.5889  -1.4652  -1.4652  -1.3218  -1.3218  -1.2057  -1.2057
    -1.1407  -1.1407  -1.1046  -1.1046  -1.0203  -1.0203  -0.5415  -0.5415
    -0.0204  -0.0204   0.1970   0.1970   0.3914   0.3914   0.5556   0.5556
     0.8631   0.8631   1.5014   1.5014   1.5466   1.5466   1.7497   1.7497
     2.0407   2.0407   4.2424   4.2424   5.4142   5.4142   5.5168   5.5168
     5.5534   5.5534   5.7830   5.7830   6.1052   6.1052   6.4327   6.4327
     6.7123   6.7123   7.1690   7.1690   7.3207   7.3207   7.5442   7.5442
     7.6933   7.6933   7.9045   7.9045   8.1792   8.1792   8.4354

     highest occupied, lowest unoccupied level (ev):     2.1671    4.1982

!    total energy              =   -1257.07382893 Ry
     Harris-Foulkes estimate   =   -1257.07382893 Ry
     estimated scf accuracy    <          1.5E-09 Ry

     total all-electron energy =     -5048.114979 Ry

     The total energy is the sum of the following terms:

     one-electron contribution =    -722.68429558 Ry
     hartree contribution      =     472.43122796 Ry
     xc contribution           =    -292.61642984 Ry
     ewald contribution        =    -281.41438845 Ry
     Dispersion Correction     =      -0.48319837 Ry
     one-center paw contrib.   =    -432.30674465 Ry

     convergence has been achieved in  26 iterations

     Forces acting on atoms (cartesian axes, Ry/au):

     atom    1 type  1   force =     0.00359521    0.00092000   -0.00438864
     atom    2 type  1   force =    -0.00359521    0.00092000    0.00438864
     atom    3 type  1   force =    -0.00368307   -0.00165746    0.00530829
     atom    4 type  1   force =     0.00368307   -0.00165746   -0.00530829
     atom    5 type  1   force =     0.00329352   -0.00247862   -0.00192645
     atom    6 type  1   force =    -0.00329352   -0.00247862    0.00192645
     atom    7 type  1   force =    -0.00413644   -0.00115032    0.00387818
     atom    8 type  1   force =     0.00413644   -0.00115032   -0.00387818
     atom    9 type  1   force =     0.00408314    0.00186351   -0.00334534
     atom   10 type  1   force =    -0.00408314    0.00186351    0.00334534
     atom   11 type  1   force =    -0.00269547    0.00272904    0.00162990
     atom   12 type  1   force =     0.00269547    0.00272904   -0.00162990
     atom   13 type  1   force =    -0.00474864   -0.00325516    0.00149589
     atom   14 type  1   force =     0.00474864   -0.00325516   -0.00149589
     atom   15 type  1   force =     0.00249564   -0.00363281    0.00643344
     atom   16 type  1   force =    -0.00249564   -0.00363281   -0.00643344
     atom   17 type  3   force =    -0.00039686   -0.00104225   -0.00085415
     atom   18 type  3   force =     0.00039686   -0.00104225    0.00085415
     atom   19 type  1   force =    -0.00265756    0.00464839   -0.00044846
     atom   20 type  1   force =     0.00265756    0.00464839    0.00044846
     atom   21 type  3   force =     0.00079103    0.00024620   -0.00003122
     atom   22 type  3   force =    -0.00079103    0.00024620    0.00003122
     atom   23 type  1   force =     0.00332057   -0.00197556    0.00243405
     atom   24 type  1   force =    -0.00332057   -0.00197556   -0.00243405
     atom   25 type  3   force =    -0.00076895   -0.00138464   -0.00046135
     atom   26 type  3   force =     0.00076895   -0.00138464    0.00046135
     atom   27 type  1   force =    -0.00086591   -0.00012948   -0.00015041
     atom   28 type  1   force =     0.00086591   -0.00012948    0.00015041
     atom   29 type  3   force =    -0.00081394    0.00094675    0.00023716
     atom   30 type  3   force =     0.00081394    0.00094675   -0.00023716
     atom   31 type  1   force =     0.00064704   -0.00152036   -0.00286087
     atom   32 type  1   force =    -0.00064704   -0.00152036    0.00286087
     atom   33 type  1   force =     0.00180434    0.00067683   -0.00137731
     atom   34 type  1   force =    -0.00180434    0.00067683    0.00137731
     atom   35 type  1   force =     0.00091896   -0.00029347    0.00170776
     atom   36 type  1   force =    -0.00091896   -0.00029347   -0.00170776
     atom   37 type  3   force =     0.00039160   -0.00127485    0.00000642
     atom   38 type  3   force =    -0.00039160   -0.00127485   -0.00000642
     atom   39 type  1   force =     0.00090485    0.00083192   -0.00586714
     atom   40 type  1   force =    -0.00090485    0.00083192    0.00586714
     atom   41 type  3   force =     0.00048979   -0.00018510    0.00045814
     atom   42 type  3   force =    -0.00048979   -0.00018510   -0.00045814
     atom   43 type  1   force =    -0.00211106    0.00042775    0.00209162
     atom   44 type  1   force =     0.00211106    0.00042775   -0.00209162
     atom   45 type  3   force =     0.00006645    0.00041610   -0.00096352
     atom   46 type  3   force =    -0.00006645    0.00041610    0.00096352
     atom   47 type  1   force =    -0.00392698   -0.00182088   -0.00752891
     atom   48 type  1   force =     0.00392698   -0.00182088    0.00752891
     atom   49 type  3   force =     0.00058200    0.00071890    0.00071111
     atom   50 type  3   force =    -0.00058200    0.00071890   -0.00071111
     atom   51 type  1   force =    -0.00039813    0.00165206    0.00689422
     atom   52 type  1   force =     0.00039813    0.00165206   -0.00689422
     atom   53 type  1   force =     0.00488227    0.00265141   -0.00102563
     atom   54 type  1   force =    -0.00488227    0.00265141    0.00102563
     atom   55 type  1   force =    -0.00183876    0.00312623   -0.00760101
     atom   56 type  1   force =     0.00183876    0.00312623    0.00760101
     atom   57 type  3   force =     0.00090711    0.00071816    0.00032076
     atom   58 type  3   force =    -0.00090711    0.00071816   -0.00032076
     atom   59 type  1   force =     0.00199555   -0.00467434    0.00113134
     atom   60 type  1   force =    -0.00199555   -0.00467434   -0.00113134
     atom   61 type  3   force =     0.00003295   -0.00104570   -0.00092782
     atom   62 type  3   force =    -0.00003295   -0.00104570    0.00092782
     atom   63 type  1   force =    -0.00429611    0.00159069   -0.00361160
     atom   64 type  1   force =     0.00429611    0.00159069    0.00361160
     atom   65 type  3   force =     0.00025351    0.00170049    0.00017657
     atom   66 type  3   force =    -0.00025351    0.00170049   -0.00017657
     atom   67 type  1   force =     0.00023932    0.00133526    0.00024331
     atom   68 type  1   force =    -0.00023932    0.00133526   -0.00024331
     atom   69 type  3   force =    -0.00068424    0.00064179    0.00101139
     atom   70 type  3   force =     0.00068424    0.00064179   -0.00101139
     atom   71 type  1   force =    -0.00073086    0.00224519    0.00221719
     atom   72 type  1   force =     0.00073086    0.00224519   -0.00221719
     atom   73 type  1   force =    -0.00107973   -0.00160502    0.00173099
     atom   74 type  1   force =     0.00107973   -0.00160502   -0.00173099
     atom   75 type  1   force =    -0.00142797   -0.00107495   -0.00261622
     atom   76 type  1   force =     0.00142797   -0.00107495    0.00261622
     atom   77 type  3   force =     0.00073668    0.00025754    0.00033257
     atom   78 type  3   force =    -0.00073668    0.00025754   -0.00033257
     atom   79 type  1   force =    -0.00001649   -0.00059718    0.00595720
     atom   80 type  1   force =     0.00001649   -0.00059718   -0.00595720
     atom   81 type  3   force =    -0.00061448    0.00071186   -0.00058844
     atom   82 type  3   force =     0.00061448    0.00071186    0.00058844
     atom   83 type  1   force =     0.00165090   -0.00055219   -0.00261879
     atom   84 type  1   force =    -0.00165090   -0.00055219    0.00261879
     atom   85 type  3   force =    -0.00027847   -0.00040154    0.00083568
     atom   86 type  3   force =     0.00027847   -0.00040154   -0.00083568
     atom   87 type  1   force =     0.00435599    0.00255464    0.00715756
     atom   88 type  1   force =    -0.00435599    0.00255464   -0.00715756
     atom   89 type  3   force =    -0.00017785   -0.00071232   -0.00028571
     atom   90 type  3   force =     0.00017785   -0.00071232    0.00028571
     atom   91 type  1   force =     0.00018790   -0.00062521   -0.00587430
     atom   92 type  1   force =    -0.00018790   -0.00062521    0.00587430
     atom   93 type  2   force =     0.00131369   -0.00607734    0.00369181
     atom   94 type  2   force =    -0.00131369   -0.00607734   -0.00369181
     atom   95 type  2   force =    -0.00136315    0.00555605   -0.00264056
     atom   96 type  2   force =     0.00136315    0.00555605    0.00264056

     Total force =     0.044370     Total SCF correction =     0.000087


     Computing stress (Cartesian axis) and pressure

          total   stress  (Ry/bohr**3)                   (kbar)     P=   -9.92
  -0.00005451   0.00000000  -0.00001775         -8.02      0.00     -2.61
   0.00000000  -0.00004862   0.00000000          0.00     -7.15      0.00
  -0.00001775   0.00000000  -0.00009926         -2.61      0.00    -14.60


     Writing output data file scf.save
 
     init_run     :     56.56s CPU     58.18s WALL (       1 calls)
     electrons    :   2755.95s CPU   2838.26s WALL (       1 calls)
     forces       :     25.70s CPU     25.90s WALL (       1 calls)
     stress       :    107.59s CPU    107.93s WALL (       1 calls)

     Called by init_run:
     wfcinit      :     45.57s CPU     47.06s WALL (       1 calls)
     potinit      :      3.91s CPU      3.93s WALL (       1 calls)

     Called by electrons:
     c_bands      :   2494.04s CPU   2565.94s WALL (      26 calls)
     sum_band     :    239.97s CPU    248.34s WALL (      26 calls)
     v_of_rho     :      3.46s CPU      3.65s WALL (      27 calls)
     newd         :      8.14s CPU      9.95s WALL (      27 calls)
     PAW_pot      :      9.40s CPU      9.40s WALL (      27 calls)
     mix_rho      :      0.89s CPU      0.97s WALL (      26 calls)

     Called by c_bands:
     init_us_2    :     12.11s CPU     12.15s WALL (     440 calls)
     cegterg      :   2437.97s CPU   2509.72s WALL (     208 calls)

     Called by sum_band:
     sum_band:bec :      0.14s CPU      0.14s WALL (     208 calls)
     addusdens    :      8.65s CPU     10.41s WALL (      26 calls)

     Called by *egterg:
     h_psi        :   1302.43s CPU   1355.90s WALL (     986 calls)
     s_psi        :    300.37s CPU    300.38s WALL (     986 calls)
     g_psi        :      6.03s CPU      6.03s WALL (     770 calls)
     cdiaghg      :    113.16s CPU    113.14s WALL (     978 calls)

     Called by h_psi:
     h_psi:pot    :   1294.50s CPU   1347.82s WALL (     986 calls)
     h_psi:calbec :    302.35s CPU    303.00s WALL (     986 calls)
     vloc_psi     :    692.15s CPU    744.82s WALL (     986 calls)
     add_vuspsi   :    300.00s CPU    299.99s WALL (     986 calls)

     General routines
     calbec       :    428.11s CPU    428.99s WALL (    1234 calls)
     fft          :      4.36s CPU      4.68s WALL (     375 calls)
     fftw         :    744.87s CPU    803.45s WALL (  254824 calls)
 
     Parallel routines
     fft_scatter  :    200.62s CPU    254.91s WALL (  255199 calls)
 
     PWSCF        : 49m15.86s CPU    51m19.05s WALL

 
   This run was terminated on:   4: 9: 4   7Dec2017            

=------------------------------------------------------------------------------=
   JOB DONE.
=------------------------------------------------------------------------------=
