
     Program PWSCF v.6.1 (svn rev. 13369) starts on 22Dec2017 at 20:30:54 

     This program is part of the open-source Quantum ESPRESSO suite
     for quantum simulation of materials; please cite
         "P. Giannozzi et al., J. Phys.:Condens. Matter 21 395502 (2009);
          URL http://www.quantum-espresso.org", 
     in publications or presentations arising from this work. More details at
     http://www.quantum-espresso.org/quote

     Parallel version (MPI), running on     8 processors
     R & G space division:  proc/nbgrp/npool/nimage =       8
     Waiting for input...
     Reading input from standard input

     Current dimensions of program PWSCF are:
     Max number of different atomic species (ntypx) = 10
     Max number of k-points (npk) =  40000
     Max angular momentum in pseudopotentials (lmaxx) =  3
               file C.pbe-n-kjpaw_psl.0.1.UPF: wavefunction(s)  2P renormalized
               file N.pbe-n-kjpaw_psl.0.1.UPF: wavefunction(s)  2P renormalized
               file H.pbe-kjpaw_psl.0.1.UPF: wavefunction(s)  1S renormalized
               file O.pbe-n-kjpaw_psl.0.1.UPF: wavefunction(s)  2P renormalized

     -------------------------------------
     Parameters for Dispersion Correction:
     -------------------------------------
       atom      VdW radius       C_6     

        C          2.744         60.710
        N          2.640         42.670
        H          1.892          4.857
        O          2.536         24.284

     Subspace diagonalization in iterative solution of the eigenvalue problem:
     a serial algorithm will be used

 
     Parallelization info
     --------------------
     sticks:   dense  smooth     PW     G-vecs:    dense   smooth      PW
     Min         494     494    135                39530    39530    5641
     Max         495     495    136                39537    39537    5645
     Sum        3957    3957   1083               316253   316253   45141
 


     bravais-lattice index     =            0
     lattice parameter (alat)  =       8.7305  a.u.
     unit-cell volume          =    2341.3231 (a.u.)^3
     number of atoms/cell      =           40
     number of atomic types    =            4
     number of electrons       =       120.00
     number of Kohn-Sham states=           72
     kinetic-energy cutoff     =     100.0000  Ry
     charge density cutoff     =     400.0000  Ry
     convergence threshold     =      1.0E-08
     mixing beta               =       0.5000
     number of iterations used =            8  plain     mixing
     Exchange-correlation      =  SLA  PW   PBX  PBC ( 1  4  3  4 0 0)

     celldm(1)=   8.730535  celldm(2)=   0.000000  celldm(3)=   0.000000
     celldm(4)=   0.000000  celldm(5)=   0.000000  celldm(6)=   0.000000

     crystal axes: (cart. coord. in units of alat)
               a(1) = (   1.000000   0.000000   0.000000 )  
               a(2) = (   0.000000   1.634199   0.000000 )  
               a(3) = (  -0.325987   0.000000   2.152949 )  

     reciprocal axes: (cart. coord. in units 2 pi/alat)
               b(1) = (  1.000000  0.000000  0.151414 )  
               b(2) = (  0.000000  0.611921  0.000000 )  
               b(3) = (  0.000000  0.000000  0.464479 )  


     PseudoPot. # 1 for  C read from file:
     /scratch/ahofstet/pseudo/C.pbe-n-kjpaw_psl.0.1.UPF
     MD5 check sum: 430fe95172b1e11ef3f8ed03bac87931
     Pseudo is Projector augmented-wave + core cor, Zval =  4.0
     Generated using "atomic" code by A. Dal Corso  v.5.0.99 svn rev. 10869
     Shape of augmentation charge: BESSEL
     Using radial grid of 1073 points,  4 beta functions with: 
                l(1) =   0
                l(2) =   0
                l(3) =   1
                l(4) =   1
     Q(r) pseudized with 0 coefficients 


     PseudoPot. # 2 for  N read from file:
     /scratch/ahofstet/pseudo/N.pbe-n-kjpaw_psl.0.1.UPF
     MD5 check sum: f73187c8b701007e77325f868c9291d7
     Pseudo is Projector augmented-wave + core cor, Zval =  5.0
     Generated using "atomic" code by A. Dal Corso  v.5.0.99 svn rev. 10869
     Shape of augmentation charge: PSQ
     Using radial grid of 1085 points,  4 beta functions with: 
                l(1) =   0
                l(2) =   0
                l(3) =   1
                l(4) =   1
     Q(r) pseudized with 0 coefficients 


     PseudoPot. # 3 for  H read from file:
     /scratch/ahofstet/pseudo/H.pbe-kjpaw_psl.0.1.UPF
     MD5 check sum: 94e484f906d9e9773b2f6e52662335b2
     Pseudo is Projector augmented-wave, Zval =  1.0
     Generated using "atomic" code by A. Dal Corso  v.5.0.99 svn rev. 10869
     Shape of augmentation charge: PSQ
     Using radial grid of  929 points,  2 beta functions with: 
                l(1) =   0
                l(2) =   0
     Q(r) pseudized with 0 coefficients 


     PseudoPot. # 4 for  O read from file:
     /scratch/ahofstet/pseudo/O.pbe-n-kjpaw_psl.0.1.UPF
     MD5 check sum: 3f94a2996a3169367d6eb21d9b593f20
     Pseudo is Projector augmented-wave + core cor, Zval =  6.0
     Generated using "atomic" code by A. Dal Corso  v.5.0.99 svn rev. 10869
     Shape of augmentation charge: BESSEL
     Using radial grid of 1095 points,  4 beta functions with: 
                l(1) =   0
                l(2) =   0
                l(3) =   1
                l(4) =   1
     Q(r) pseudized with 0 coefficients 


     atomic species   valence    mass     pseudopotential
        C              4.00    12.01070      C( 1.00)
        N              5.00    14.00670      N( 1.00)
        H              1.00     1.00794      H( 1.00)
        O              6.00    15.99940      O( 1.00)

      2 Sym. Ops. (no inversion) found ( 1 have fractional translation)



   Cartesian axes

     site n.     atom                  positions (alat units)
         1           C   tau(   1) = (   0.0916334   1.5504899   0.2711828  )
         2           C   tau(   2) = (   0.5823793   0.7333903   1.8817666  )
         3           C   tau(   3) = (   0.3285496   0.1362613   0.3299952  )
         4           C   tau(   4) = (   0.3454630   0.9533608   1.8229542  )
         5           C   tau(   5) = (   0.2373238   0.3615613   0.5546913  )
         6           C   tau(   6) = (   0.4366888   1.1786609   1.5982581  )
         7           C   tau(   7) = (   0.4630627   0.5759912   0.6280390  )
         8           C   tau(   8) = (   0.2109499   1.3930907   1.5249105  )
         9           C   tau(   9) = (   0.6922856   0.5509747   0.8254543  )
        10           C   tau(  10) = (  -0.0182730   1.3680743   1.3274951  )
        11           C   tau(  11) = (   0.8445136   0.8097960   0.8070925  )
        12           C   tau(  12) = (  -0.1705009  -0.0073036   1.3458569  )
        13           H   tau(  13) = (   0.1329541   0.1423164   2.0410350  )
        14           H   tau(  14) = (   0.5410586   0.9594160   0.1119145  )
        15           H   tau(  15) = (  -0.0938880   0.4153902   2.1489211  )
        16           H   tau(  16) = (   0.7679006   1.2324898   0.0040284  )
        17           H   tau(  17) = (   0.5982596   0.4155736   0.0772173  )
        18           H   tau(  18) = (   0.0757530   1.2326732   2.0757321  )
        19           H   tau(  19) = (   0.5264879   0.0177822   0.4059384  )
        20           H   tau(  20) = (   0.1475247   0.8348818   1.7470111  )
        21           H   tau(  21) = (   0.1684640   0.2449954   0.7500904  )
        22           H   tau(  22) = (   0.5055486   1.0620950   1.4028590  )
        23           H   tau(  23) = (   0.0436249   0.4698740   0.4705482  )
        24           H   tau(  24) = (   0.6303877   1.2869736   1.6824012  )
        25           H   tau(  25) = (   0.7458674   0.3680810   0.9602965  )
        26           H   tau(  26) = (  -0.0718547   1.1851806   1.1926529  )
        27           H   tau(  27) = (   0.0410289   0.8819787   0.9119024  )
        28           H   tau(  28) = (   0.6329837   0.0648791   1.2410471  )
        29           H   tau(  29) = (   0.7688230   1.1772992   0.5371373  )
        30           H   tau(  30) = (  -0.0948103   0.3601996   1.6158122  )
        31           N   tau(  31) = (   0.4126103   0.2854850   0.0574563  )
        32           N   tau(  32) = (   0.2614023   1.1025846   2.0954931  )
        33           N   tau(  33) = (   0.4700075   0.8404728   0.4975950  )
        34           N   tau(  34) = (   0.2040051   1.6575724   1.6553544  )
        35           N   tau(  35) = (   0.7040623   0.9732068   0.6091892  )
        36           N   tau(  36) = (  -0.0300496   0.1561072   1.5437602  )
        37           O   tau(  37) = (   0.0940898   1.4162842   0.0289555  )
        38           O   tau(  38) = (   0.5799228   0.5991846   2.1239939  )
        39           O   tau(  39) = (  -0.0891863   1.5054740   0.4713814  )
        40           O   tau(  40) = (   0.7631989   0.6883744   1.6815680  )

     number of k points=    12
                       cart. coord. in units 2pi/alat
        k(    1) = (   0.0000000   0.0000000   0.0000000), wk =   0.0833333
        k(    2) = (   0.0000000   0.0000000  -0.2322395), wk =   0.0833333
        k(    3) = (   0.0000000   0.2039735   0.0000000), wk =   0.1666667
        k(    4) = (   0.0000000   0.2039735  -0.2322395), wk =   0.1666667
        k(    5) = (   0.2500000   0.0000000   0.0378536), wk =   0.1666667
        k(    6) = (   0.2500000   0.0000000  -0.1943860), wk =   0.1666667
        k(    7) = (   0.2500000   0.2039735   0.0378536), wk =   0.3333333
        k(    8) = (   0.2500000   0.2039735  -0.1943860), wk =   0.3333333
        k(    9) = (  -0.5000000   0.0000000  -0.0757072), wk =   0.0833333
        k(   10) = (  -0.5000000   0.0000000  -0.3079467), wk =   0.0833333
        k(   11) = (  -0.5000000   0.2039735  -0.0757072), wk =   0.1666667
        k(   12) = (  -0.5000000   0.2039735  -0.3079467), wk =   0.1666667

     Dense  grid:   316253 G-vectors     FFT dimensions: (  60,  96, 125)

     Estimated max dynamical RAM per process >     156.74MB

     Estimated total allocated dynamical RAM >    1253.93MB

     Check: negative/imaginary core charge=   -0.000002    0.000000

     Initial potential from superposition of free atoms

     starting charge  119.99928, renormalised to  120.00000
     Starting wfc are  106 randomized atomic wfcs
     Checking if some PAW data can be deallocated... 

     total cpu time spent up to now is       10.1 secs

     per-process dynamical memory:   160.1 Mb

     Self-consistent Calculation

     iteration #  1     ecut=   100.00 Ry     beta=0.50
     Davidson diagonalization with overlap
     ethr =  1.00E-02,  avg # of iterations =  4.7

     total cpu time spent up to now is       31.7 secs

     total energy              =    -578.03902394 Ry
     Harris-Foulkes estimate   =    -580.08333032 Ry
     estimated scf accuracy    <       3.87359879 Ry

     iteration #  2     ecut=   100.00 Ry     beta=0.50
     Davidson diagonalization with overlap
     ethr =  3.23E-03,  avg # of iterations =  2.4

     total cpu time spent up to now is       43.4 secs

     total energy              =    -578.44877736 Ry
     Harris-Foulkes estimate   =    -578.63028363 Ry
     estimated scf accuracy    <       0.41971568 Ry

     iteration #  3     ecut=   100.00 Ry     beta=0.50
     Davidson diagonalization with overlap
     ethr =  3.50E-04,  avg # of iterations =  5.3

     total cpu time spent up to now is       65.6 secs

     total energy              =    -578.71552062 Ry
     Harris-Foulkes estimate   =    -578.80961428 Ry
     estimated scf accuracy    <       0.23203038 Ry

     iteration #  4     ecut=   100.00 Ry     beta=0.50
     Davidson diagonalization with overlap
     ethr =  1.93E-04,  avg # of iterations =  2.2

     total cpu time spent up to now is       76.3 secs

     total energy              =    -578.69753082 Ry
     Harris-Foulkes estimate   =    -578.73150648 Ry
     estimated scf accuracy    <       0.05921691 Ry

     iteration #  5     ecut=   100.00 Ry     beta=0.50
     Davidson diagonalization with overlap
     ethr =  4.93E-05,  avg # of iterations =  5.3

     total cpu time spent up to now is       98.4 secs

     total energy              =    -578.73942670 Ry
     Harris-Foulkes estimate   =    -578.77064446 Ry
     estimated scf accuracy    <       0.09487338 Ry

     iteration #  6     ecut=   100.00 Ry     beta=0.50
     Davidson diagonalization with overlap
     ethr =  4.93E-05,  avg # of iterations =  1.7

     total cpu time spent up to now is      108.6 secs

     total energy              =    -578.72789709 Ry
     Harris-Foulkes estimate   =    -578.74284198 Ry
     estimated scf accuracy    <       0.03815593 Ry

     iteration #  7     ecut=   100.00 Ry     beta=0.50
     Davidson diagonalization with overlap
     ethr =  3.18E-05,  avg # of iterations =  4.6

     total cpu time spent up to now is      124.8 secs

     total energy              =    -578.73937470 Ry
     Harris-Foulkes estimate   =    -578.73963262 Ry
     estimated scf accuracy    <       0.00065129 Ry

     iteration #  8     ecut=   100.00 Ry     beta=0.50
     Davidson diagonalization with overlap
     ethr =  5.43E-07,  avg # of iterations =  6.5

     total cpu time spent up to now is      146.5 secs

     total energy              =    -578.73969916 Ry
     Harris-Foulkes estimate   =    -578.73979796 Ry
     estimated scf accuracy    <       0.00028818 Ry

     iteration #  9     ecut=   100.00 Ry     beta=0.50
     Davidson diagonalization with overlap
     ethr =  2.40E-07,  avg # of iterations =  2.0

     total cpu time spent up to now is      157.1 secs

     total energy              =    -578.73968552 Ry
     Harris-Foulkes estimate   =    -578.73972002 Ry
     estimated scf accuracy    <       0.00006285 Ry

     iteration # 10     ecut=   100.00 Ry     beta=0.50
     Davidson diagonalization with overlap
     ethr =  5.24E-08,  avg # of iterations =  4.0

     total cpu time spent up to now is      175.6 secs

     total energy              =    -578.73972693 Ry
     Harris-Foulkes estimate   =    -578.73974614 Ry
     estimated scf accuracy    <       0.00004268 Ry

     iteration # 11     ecut=   100.00 Ry     beta=0.50
     Davidson diagonalization with overlap
     ethr =  3.56E-08,  avg # of iterations =  1.0

     total cpu time spent up to now is      185.8 secs

     total energy              =    -578.73972438 Ry
     Harris-Foulkes estimate   =    -578.73972935 Ry
     estimated scf accuracy    <       0.00000964 Ry

     iteration # 12     ecut=   100.00 Ry     beta=0.50
     Davidson diagonalization with overlap
     ethr =  8.03E-09,  avg # of iterations =  4.0

     total cpu time spent up to now is      204.5 secs

     total energy              =    -578.73973211 Ry
     Harris-Foulkes estimate   =    -578.73973399 Ry
     estimated scf accuracy    <       0.00000436 Ry

     iteration # 13     ecut=   100.00 Ry     beta=0.50
     Davidson diagonalization with overlap
     ethr =  3.63E-09,  avg # of iterations =  1.0

     total cpu time spent up to now is      214.5 secs

     total energy              =    -578.73973166 Ry
     Harris-Foulkes estimate   =    -578.73973231 Ry
     estimated scf accuracy    <       0.00000117 Ry

     iteration # 14     ecut=   100.00 Ry     beta=0.50
     Davidson diagonalization with overlap
     ethr =  9.72E-10,  avg # of iterations =  4.0

     total cpu time spent up to now is      232.6 secs

     total energy              =    -578.73973253 Ry
     Harris-Foulkes estimate   =    -578.73973275 Ry
     estimated scf accuracy    <       0.00000054 Ry

     iteration # 15     ecut=   100.00 Ry     beta=0.50
     Davidson diagonalization with overlap
     ethr =  4.48E-10,  avg # of iterations =  1.0

     total cpu time spent up to now is      242.9 secs

     total energy              =    -578.73973246 Ry
     Harris-Foulkes estimate   =    -578.73973255 Ry
     estimated scf accuracy    <       0.00000016 Ry

     iteration # 16     ecut=   100.00 Ry     beta=0.50
     Davidson diagonalization with overlap
     ethr =  1.30E-10,  avg # of iterations =  4.0

     total cpu time spent up to now is      261.2 secs

     total energy              =    -578.73973257 Ry
     Harris-Foulkes estimate   =    -578.73973260 Ry
     estimated scf accuracy    <       0.00000006 Ry

     iteration # 17     ecut=   100.00 Ry     beta=0.50
     Davidson diagonalization with overlap
     ethr =  5.37E-11,  avg # of iterations =  1.0

     total cpu time spent up to now is      271.3 secs

     total energy              =    -578.73973257 Ry
     Harris-Foulkes estimate   =    -578.73973258 Ry
     estimated scf accuracy    <       0.00000002 Ry

     iteration # 18     ecut=   100.00 Ry     beta=0.50
     Davidson diagonalization with overlap
     ethr =  2.04E-11,  avg # of iterations =  3.0

     total cpu time spent up to now is      286.6 secs

     End of self-consistent calculation

          k = 0.0000 0.0000 0.0000 ( 39539 PWs)   bands (ev):

   -19.8345 -19.7258 -19.2007 -19.1942 -17.5742 -17.4341 -17.0700 -16.7697
   -13.5880 -13.5859 -12.6233 -12.4563 -11.7565 -11.6852  -9.8134  -9.6213
    -8.1797  -7.9297  -7.3822  -7.2114  -6.9516  -6.9108  -6.7616  -6.6482
    -6.5154  -6.3449  -6.1307  -5.3672  -5.0922  -4.7856  -4.4912  -4.3867
    -4.1418  -4.0743  -3.9902  -3.8128  -3.5248  -3.4383  -3.2954  -3.2161
    -3.1488  -3.1042  -2.5723  -2.5155  -2.4974  -2.2097  -1.8674  -1.7935
    -0.2920  -0.2413  -0.1117  -0.0724   0.1317   0.3615   0.4839   0.5537
     0.7048   0.7359   0.9200   0.9609   5.8005   6.0546   6.0744   6.3634
     6.8297   7.5777   7.7268   7.7525   8.1100   8.8265   9.0692   9.1235

          k = 0.0000 0.0000-0.2322 ( 39506 PWs)   bands (ev):

   -19.8342 -19.7260 -19.2038 -19.1912 -17.5741 -17.4340 -17.0699 -16.7699
   -13.6033 -13.5698 -12.5453 -12.5441 -11.7504 -11.6829  -9.8201  -9.6130
    -8.1708  -7.9546  -7.3375  -7.2198  -6.9862  -6.8518  -6.7447  -6.7378
    -6.4424  -6.3398  -6.2136  -5.3249  -5.0969  -4.7971  -4.5463  -4.4377
    -4.0864  -4.0061  -3.8940  -3.8152  -3.5519  -3.4738  -3.2335  -3.2281
    -3.2045  -3.1031  -2.5623  -2.5440  -2.4726  -2.3157  -1.8319  -1.7996
    -0.2700  -0.2090  -0.1343  -0.0756   0.1626   0.2889   0.4748   0.5658
     0.7317   0.7839   0.9090   0.9466   5.8776   5.9892   6.0412   6.3525
     6.9380   7.3424   7.8152   7.8901   8.2219   8.5518   8.7896   9.2364

          k = 0.0000 0.2040 0.0000 ( 39496 PWs)   bands (ev):

   -19.8053 -19.7504 -19.2045 -19.2004 -17.5495 -17.4835 -16.9789 -16.8329
   -13.5549 -13.5525 -12.5940 -12.5042 -11.8311 -11.7911  -9.6517  -9.5444
    -8.1122  -7.9924  -7.3887  -7.1307  -7.0867  -6.9738  -6.7493  -6.6661
    -6.3455  -6.2501  -6.1206  -5.9028  -4.8347  -4.8341  -4.6370  -4.5566
    -4.0829  -4.0446  -3.8179  -3.7117  -3.5004  -3.3512  -3.3003  -3.2487
    -3.1468  -3.1222  -2.5822  -2.5170  -2.3453  -2.3281  -1.8663  -1.8209
    -0.2518  -0.2415  -0.1654  -0.1386   0.2133   0.3446   0.5391   0.5475
     0.6880   0.7269   0.8913   0.9423   5.9524   6.0303   6.0891   6.2936
     6.9490   7.3462   7.7567   7.7567   8.3167   8.5662   8.8657   8.9869

          k = 0.0000 0.2040-0.2322 ( 39516 PWs)   bands (ev):

   -19.8051 -19.7505 -19.2062 -19.1990 -17.5494 -17.4833 -16.9789 -16.8331
   -13.5602 -13.5436 -12.5578 -12.5513 -11.8273 -11.7881  -9.6574  -9.5400
    -8.1026  -7.9949  -7.3591  -7.1555  -7.0840  -7.0065  -6.7096  -6.6709
    -6.3133  -6.2974  -6.1601  -5.8802  -4.8432  -4.8354  -4.6470  -4.5001
    -4.0685  -3.9353  -3.9045  -3.7523  -3.4671  -3.4308  -3.3225  -3.2782
    -3.1045  -3.0534  -2.6195  -2.5305  -2.3508  -2.2995  -1.8630  -1.8302
    -0.2964  -0.2246  -0.1578  -0.1468   0.2317   0.3201   0.5291   0.5479
     0.6858   0.7825   0.9127   0.9224   5.9719   5.9951   6.0846   6.2838
     7.0712   7.4242   7.7062   7.8051   8.1145   8.2748   8.9269   9.2292

          k = 0.2500 0.0000 0.0379 ( 39554 PWs)   bands (ev):

   -19.7952 -19.7157 -19.1896 -19.1817 -17.5482 -17.4012 -17.1022 -16.8353
   -13.6104 -13.5829 -12.5846 -12.4468 -11.9231 -11.8306  -9.8208  -9.6538
    -8.1590  -7.9072  -7.4647  -7.2029  -7.1581  -6.8438  -6.6675  -6.5883
    -6.5169  -6.2569  -6.1689  -5.5521  -4.9484  -4.7426  -4.5186  -4.3505
    -4.2481  -4.1023  -3.9541  -3.8782  -3.7589  -3.5495  -3.3331  -3.0926
    -3.0615  -2.8465  -2.5648  -2.4579  -2.2615  -2.1965  -1.7249  -1.4922
    -0.2808  -0.2593  -0.2061  -0.0221   0.0776   0.4687   0.5590   0.6415
     0.8403   0.9107   0.9750   1.0050   5.7689   5.9913   6.0925   6.1589
     6.8843   7.2470   7.5111   8.0307   8.2628   8.5608   9.0904   9.2105

          k = 0.2500 0.0000-0.1944 ( 39544 PWs)   bands (ev):

   -19.7950 -19.7158 -19.1923 -19.1791 -17.5481 -17.4011 -17.1022 -16.8354
   -13.5984 -13.5942 -12.5745 -12.4601 -11.9248 -11.8267  -9.8164  -9.6587
    -8.1322  -7.9561  -7.4409  -7.1956  -7.1277  -6.8199  -6.7378  -6.6095
    -6.4931  -6.3460  -6.0861  -5.5198  -4.9604  -4.7346  -4.5483  -4.3642
    -4.2756  -4.0841  -3.9415  -3.8548  -3.7101  -3.4719  -3.3529  -3.2270
    -3.0475  -2.8218  -2.5381  -2.4609  -2.3125  -2.2217  -1.7015  -1.5028
    -0.2708  -0.2417  -0.2006  -0.0123   0.0690   0.4775   0.5385   0.6234
     0.8837   0.9056   0.9467   1.0265   5.7643   6.0517   6.0685   6.1027
     6.8503   7.2997   7.5636   8.0330   8.3194   8.6870   8.7813   9.1479

          k = 0.2500 0.2040 0.0379 ( 39546 PWs)   bands (ev):

   -19.7749 -19.7349 -19.1898 -19.1836 -17.5241 -17.4564 -17.0174 -16.8897
   -13.6175 -13.5770 -12.5451 -12.4811 -11.9362 -11.8055  -9.8414  -9.6682
    -8.0888  -7.9660  -7.4174  -7.2512  -7.0529  -6.9348  -6.7583  -6.6746
    -6.3636  -6.2150  -6.0667  -5.6811  -4.9235  -4.8108  -4.6202  -4.4080
    -4.2307  -4.0830  -3.9031  -3.7403  -3.7283  -3.5105  -3.2580  -3.1332
    -3.0611  -2.9141  -2.5412  -2.4942  -2.2642  -2.2416  -1.6816  -1.5753
    -0.2741  -0.2348  -0.1731  -0.0615   0.1900   0.3935   0.5679   0.6372
     0.8513   0.8715   0.9756   0.9949   5.8415   5.9738   6.0824   6.1399
     6.9819   7.1800   7.6037   7.8521   8.3210   8.5810   8.9666   9.1604

          k = 0.2500 0.2040-0.1944 ( 39518 PWs)   bands (ev):

   -19.7748 -19.7350 -19.1909 -19.1827 -17.5239 -17.4562 -17.0175 -16.8899
   -13.6169 -13.5769 -12.5441 -12.4807 -11.9384 -11.8067  -9.8397  -9.6699
    -8.0760  -7.9771  -7.4236  -7.2582  -7.0344  -6.9018  -6.7794  -6.6755
    -6.3393  -6.2644  -6.0793  -5.6810  -4.9403  -4.8020  -4.6030  -4.4121
    -4.1472  -4.0108  -3.9675  -3.7748  -3.6749  -3.6179  -3.2758  -3.0976
    -3.0314  -2.9272  -2.5707  -2.5109  -2.2795  -2.2159  -1.6740  -1.5824
    -0.2726  -0.2330  -0.1578  -0.0745   0.1893   0.3863   0.5528   0.6286
     0.8581   0.8806   0.9804   1.0221   5.8386   5.9839   6.0886   6.1137
     6.9879   7.2293   7.6146   7.8544   8.2397   8.4669   9.0735   9.2501

          k =-0.5000 0.0000-0.0757 ( 39546 PWs)   bands (ev):

   -19.7487 -19.7107 -19.1803 -19.1682 -17.4825 -17.4388 -17.0231 -16.9820
   -13.6196 -13.6071 -12.4649 -12.4249 -12.1205 -12.0080  -9.8372  -9.7074
    -8.1205  -7.8792  -7.5199  -7.3894  -6.9992  -6.8955  -6.6245  -6.5853
    -6.3591  -6.2320  -6.0905  -5.7896  -5.0077  -4.8370  -4.6765  -4.4022
    -4.3216  -4.2080  -3.9397  -3.8634  -3.6300  -3.4004  -3.1982  -3.0445
    -2.8522  -2.7554  -2.4825  -2.4106  -2.2784  -2.2105  -1.5504  -1.3608
    -0.2623  -0.1980  -0.0409  -0.0362   0.0578   0.2889   0.5631   0.7332
     1.0109   1.0560   1.1118   1.1537   5.7033   5.7039   6.1277   6.1873
     6.8183   6.9428   7.4390   8.1251   8.5730   8.6244   8.9461   9.3559

          k =-0.5000 0.0000-0.3079 ( 39524 PWs)   bands (ev):

   -19.7485 -19.7108 -19.1826 -19.1660 -17.4822 -17.4389 -17.0232 -16.9820
   -13.6254 -13.5990 -12.5270 -12.3538 -12.1263 -12.0123  -9.8496  -9.6975
    -8.0844  -7.9180  -7.5188  -7.3971  -6.9977  -6.8524  -6.6614  -6.5685
    -6.4124  -6.3358  -5.9099  -5.7954  -5.0120  -4.8547  -4.6810  -4.3859
    -4.3853  -4.1726  -3.8569  -3.8231  -3.6528  -3.4552  -3.2653  -3.1133
    -2.7538  -2.7451  -2.5161  -2.4735  -2.2157  -2.1826  -1.5705  -1.3668
    -0.2287  -0.1850  -0.0497  -0.0266   0.0383   0.2794   0.5544   0.7222
     1.0136   1.0706   1.1175   1.1592   5.6996   5.7107   6.1156   6.1957
     6.7290   7.0490   7.4286   8.2668   8.5461   8.6050   8.8624   9.2220

          k =-0.5000 0.2040-0.0757 ( 39552 PWs)   bands (ev):

   -19.7408 -19.7219 -19.1738 -19.1679 -17.4753 -17.4534 -17.0114 -16.9910
   -13.6482 -13.6429 -12.4637 -12.4594 -11.9607 -11.9195  -9.9319  -9.8739
    -8.0661  -7.9525  -7.4128  -7.3680  -7.0069  -6.9057  -6.7859  -6.6881
    -6.3154  -6.1854  -5.8683  -5.7038  -4.9518  -4.8828  -4.6364  -4.4107
    -4.3181  -4.2179  -3.8875  -3.7772  -3.6431  -3.5884  -3.2514  -3.0751
    -2.8374  -2.8134  -2.5260  -2.4801  -2.2443  -2.2017  -1.4538  -1.3600
    -0.2198  -0.1904  -0.0863  -0.0612   0.1490   0.2608   0.5753   0.6540
     1.0297   1.0729   1.0983   1.1444   5.6980   5.7067   6.1517   6.1831
     6.8473   6.9132   7.5574   7.8785   8.7125   8.7210   9.0540   9.3147

          k =-0.5000 0.2040-0.3079 ( 39576 PWs)   bands (ev):

   -19.7407 -19.7219 -19.1750 -19.1668 -17.4751 -17.4534 -17.0115 -16.9910
   -13.6526 -13.6402 -12.4916 -12.4170 -11.9711 -11.9234  -9.9337  -9.8716
    -8.0568  -7.9637  -7.4173  -7.3928  -6.9624  -6.8803  -6.7787  -6.6902
    -6.3220  -6.2374  -5.8524  -5.7262  -4.9506  -4.8884  -4.6461  -4.4079
    -4.2314  -4.1869  -3.9941  -3.7922  -3.5807  -3.5172  -3.2695  -3.0817
    -2.8460  -2.8417  -2.6235  -2.5130  -2.1970  -2.1725  -1.4571  -1.3597
    -0.2033  -0.1844  -0.0882  -0.0611   0.1506   0.2635   0.5621   0.6406
     1.0364   1.0739   1.1207   1.1484   5.7019   5.7037   6.1335   6.1778
     6.8237   6.9797   7.5606   7.8915   8.6053   8.6936   9.1085   9.2268

     highest occupied, lowest unoccupied level (ev):     1.1592    5.6980

!    total energy              =    -578.73973258 Ry
     Harris-Foulkes estimate   =    -578.73973258 Ry
     estimated scf accuracy    <          4.2E-10 Ry

     total all-electron energy =     -2195.089248 Ry

     The total energy is the sum of the following terms:

     one-electron contribution =    -344.85951186 Ry
     hartree contribution      =     220.80974050 Ry
     xc contribution           =    -125.20544978 Ry
     ewald contribution        =    -161.73766650 Ry
     Dispersion Correction     =      -0.20095456 Ry
     one-center paw contrib.   =    -167.54589038 Ry

     convergence has been achieved in  18 iterations

     Forces acting on atoms (cartesian axes, Ry/au):

     atom    1 type  1   force =    -0.01257487   -0.02240762    0.00511523
     atom    2 type  1   force =     0.01257487   -0.02240762   -0.00511523
     atom    3 type  1   force =     0.03340414   -0.00017956    0.01024673
     atom    4 type  1   force =    -0.03340414   -0.00017956   -0.01024673
     atom    5 type  1   force =    -0.00895325   -0.01492413   -0.00758707
     atom    6 type  1   force =     0.00895325   -0.01492413    0.00758707
     atom    7 type  1   force =     0.00728404    0.02701747   -0.00567312
     atom    8 type  1   force =    -0.00728404    0.02701747    0.00567312
     atom    9 type  1   force =    -0.00628361    0.01124349    0.01334731
     atom   10 type  1   force =     0.00628361    0.01124349   -0.01334731
     atom   11 type  1   force =    -0.02290133   -0.00146450    0.00081895
     atom   12 type  1   force =     0.02290133   -0.00146450   -0.00081895
     atom   13 type  3   force =     0.00037856   -0.00176439   -0.00207742
     atom   14 type  3   force =    -0.00037856   -0.00176439    0.00207742
     atom   15 type  3   force =     0.00725325   -0.00280444   -0.00022816
     atom   16 type  3   force =    -0.00725325   -0.00280444    0.00022816
     atom   17 type  3   force =    -0.00573744    0.00193021    0.00156838
     atom   18 type  3   force =     0.00573744    0.00193021   -0.00156838
     atom   19 type  3   force =    -0.02131295    0.00725432   -0.00570645
     atom   20 type  3   force =     0.02131295    0.00725432    0.00570645
     atom   21 type  3   force =     0.00276372   -0.00153225   -0.00452051
     atom   22 type  3   force =    -0.00276372   -0.00153225    0.00452051
     atom   23 type  3   force =     0.00964132   -0.00025265   -0.00078358
     atom   24 type  3   force =    -0.00964132   -0.00025265    0.00078358
     atom   25 type  3   force =     0.00063720   -0.00135471   -0.00093766
     atom   26 type  3   force =    -0.00063720   -0.00135471    0.00093766
     atom   27 type  3   force =     0.00149337   -0.00062559   -0.00336845
     atom   28 type  3   force =    -0.00149337   -0.00062559    0.00336845
     atom   29 type  3   force =     0.00000237    0.00172007    0.00098451
     atom   30 type  3   force =    -0.00000237    0.00172007   -0.00098451
     atom   31 type  2   force =    -0.00995631    0.00383083   -0.00443175
     atom   32 type  2   force =     0.00995631    0.00383083    0.00443175
     atom   33 type  2   force =     0.00485085   -0.02062348   -0.00412509
     atom   34 type  2   force =    -0.00485085   -0.02062348    0.00412509
     atom   35 type  2   force =     0.01169616    0.00334882    0.01254279
     atom   36 type  2   force =    -0.01169616    0.00334882   -0.01254279
     atom   37 type  4   force =    -0.00387846    0.00958044    0.00579254
     atom   38 type  4   force =     0.00387846    0.00958044   -0.00579254
     atom   39 type  4   force =     0.00922973    0.00200768   -0.00658723
     atom   40 type  4   force =    -0.00922973    0.00200768    0.00658723

     Total force =     0.108845     Total SCF correction =     0.000053


     Computing stress (Cartesian axis) and pressure

          total   stress  (Ry/bohr**3)                   (kbar)     P=   13.19
   0.00010905   0.00000000  -0.00003841         16.04      0.00     -5.65
   0.00000000   0.00009640   0.00000000          0.00     14.18      0.00
  -0.00003841   0.00000000   0.00006363         -5.65      0.00      9.36


     Writing output data file scf.save
 
     init_run     :      9.32s CPU      9.51s WALL (       1 calls)
     electrons    :    268.48s CPU    276.51s WALL (       1 calls)
     forces       :      5.00s CPU      5.03s WALL (       1 calls)
     stress       :     12.38s CPU     12.38s WALL (       1 calls)

     Called by init_run:
     wfcinit      :      5.42s CPU      5.57s WALL (       1 calls)
     potinit      :      1.40s CPU      1.41s WALL (       1 calls)

     Called by electrons:
     c_bands      :    234.52s CPU    241.54s WALL (      18 calls)
     sum_band     :     28.09s CPU     28.98s WALL (      18 calls)
     v_of_rho     :      0.87s CPU      0.93s WALL (      19 calls)
     newd         :      1.65s CPU      1.68s WALL (      19 calls)
     PAW_pot      :      3.00s CPU      3.00s WALL (      19 calls)
     mix_rho      :      0.21s CPU      0.22s WALL (      18 calls)

     Called by c_bands:
     init_us_2    :      2.39s CPU      2.40s WALL (     468 calls)
     cegterg      :    226.55s CPU    233.48s WALL (     216 calls)

     Called by sum_band:
     sum_band:bec :      0.03s CPU      0.03s WALL (     216 calls)
     addusdens    :      1.64s CPU      1.69s WALL (      18 calls)

     Called by *egterg:
     h_psi        :    141.88s CPU    146.60s WALL (     921 calls)
     s_psi        :     19.53s CPU     19.55s WALL (     921 calls)
     g_psi        :      1.01s CPU      1.01s WALL (     693 calls)
     cdiaghg      :     13.17s CPU     13.15s WALL (     909 calls)

     Called by h_psi:
     h_psi:pot    :    140.54s CPU    145.24s WALL (     921 calls)
     h_psi:calbec :     19.50s CPU     19.58s WALL (     921 calls)
     vloc_psi     :    101.45s CPU    106.06s WALL (     921 calls)
     add_vuspsi   :     19.59s CPU     19.60s WALL (     921 calls)

     General routines
     calbec       :     27.81s CPU     27.90s WALL (    1197 calls)
     fft          :      0.62s CPU      0.73s WALL (     271 calls)
     fftw         :    107.61s CPU    112.72s WALL (  108398 calls)
 
     Parallel routines
     fft_scatter  :     28.08s CPU     30.51s WALL (  108669 calls)
 
     PWSCF        :  4m58.30s CPU     5m 7.63s WALL

 
   This run was terminated on:  20:36: 2  22Dec2017            

=------------------------------------------------------------------------------=
   JOB DONE.
=------------------------------------------------------------------------------=
