
     Program PWSCF v.6.1 (svn rev. 13369) starts on  4Nov2017 at  5:49:41 

     This program is part of the open-source Quantum ESPRESSO suite
     for quantum simulation of materials; please cite
         "P. Giannozzi et al., J. Phys.:Condens. Matter 21 395502 (2009);
          URL http://www.quantum-espresso.org", 
     in publications or presentations arising from this work. More details at
     http://www.quantum-espresso.org/quote

     Parallel version (MPI), running on     8 processors
     R & G space division:  proc/nbgrp/npool/nimage =       8
     Waiting for input...
     Reading input from standard input

     Current dimensions of program PWSCF are:
     Max number of different atomic species (ntypx) = 10
     Max number of k-points (npk) =  40000
     Max angular momentum in pseudopotentials (lmaxx) =  3
               file C.pbe-n-kjpaw_psl.0.1.UPF: wavefunction(s)  2P renormalized
               file N.pbe-n-kjpaw_psl.0.1.UPF: wavefunction(s)  2P renormalized
               file H.pbe-kjpaw_psl.0.1.UPF: wavefunction(s)  1S renormalized
               file O.pbe-n-kjpaw_psl.0.1.UPF: wavefunction(s)  2P renormalized

     -------------------------------------
     Parameters for Dispersion Correction:
     -------------------------------------
       atom      VdW radius       C_6     

        C          2.744         60.710
        N          2.640         42.670
        H          1.892          4.857
        O          2.536         24.284

     Subspace diagonalization in iterative solution of the eigenvalue problem:
     a serial algorithm will be used

 
     Parallelization info
     --------------------
     sticks:   dense  smooth     PW     G-vecs:    dense   smooth      PW
     Min         860     860    231               139536   139536   19484
     Max         861     861    232               139543   139543   19489
     Sum        6881    6881   1849              1116307  1116307  155903
 


     bravais-lattice index     =            0
     lattice parameter (alat)  =      30.8970  a.u.
     unit-cell volume          =    8263.1695 (a.u.)^3
     number of atoms/cell      =          124
     number of atomic types    =            4
     number of electrons       =       408.00
     number of Kohn-Sham states=          244
     kinetic-energy cutoff     =     100.0000  Ry
     charge density cutoff     =     400.0000  Ry
     convergence threshold     =      1.0E-08
     mixing beta               =       0.5000
     number of iterations used =            8  plain     mixing
     Exchange-correlation      =  SLA  PW   PBX  PBC ( 1  4  3  4 0 0)

     celldm(1)=  30.897022  celldm(2)=   0.000000  celldm(3)=   0.000000
     celldm(4)=   0.000000  celldm(5)=   0.000000  celldm(6)=   0.000000

     crystal axes: (cart. coord. in units of alat)
               a(1) = (   1.000000   0.000000   0.000000 )  
               a(2) = (   0.000000   0.226422   0.000000 )  
               a(3) = (   0.000000   0.000000   1.237309 )  

     reciprocal axes: (cart. coord. in units 2 pi/alat)
               b(1) = (  1.000000  0.000000  0.000000 )  
               b(2) = (  0.000000  4.416532  0.000000 )  
               b(3) = (  0.000000  0.000000  0.808206 )  


     PseudoPot. # 1 for  C read from file:
     /scratch/ahofstet/pseudo/C.pbe-n-kjpaw_psl.0.1.UPF
     MD5 check sum: 430fe95172b1e11ef3f8ed03bac87931
     Pseudo is Projector augmented-wave + core cor, Zval =  4.0
     Generated using "atomic" code by A. Dal Corso  v.5.0.99 svn rev. 10869
     Shape of augmentation charge: BESSEL
     Using radial grid of 1073 points,  4 beta functions with: 
                l(1) =   0
                l(2) =   0
                l(3) =   1
                l(4) =   1
     Q(r) pseudized with 0 coefficients 


     PseudoPot. # 2 for  N read from file:
     /scratch/ahofstet/pseudo/N.pbe-n-kjpaw_psl.0.1.UPF
     MD5 check sum: f73187c8b701007e77325f868c9291d7
     Pseudo is Projector augmented-wave + core cor, Zval =  5.0
     Generated using "atomic" code by A. Dal Corso  v.5.0.99 svn rev. 10869
     Shape of augmentation charge: PSQ
     Using radial grid of 1085 points,  4 beta functions with: 
                l(1) =   0
                l(2) =   0
                l(3) =   1
                l(4) =   1
     Q(r) pseudized with 0 coefficients 


     PseudoPot. # 3 for  H read from file:
     /scratch/ahofstet/pseudo/H.pbe-kjpaw_psl.0.1.UPF
     MD5 check sum: 94e484f906d9e9773b2f6e52662335b2
     Pseudo is Projector augmented-wave, Zval =  1.0
     Generated using "atomic" code by A. Dal Corso  v.5.0.99 svn rev. 10869
     Shape of augmentation charge: PSQ
     Using radial grid of  929 points,  2 beta functions with: 
                l(1) =   0
                l(2) =   0
     Q(r) pseudized with 0 coefficients 


     PseudoPot. # 4 for  O read from file:
     /scratch/ahofstet/pseudo/O.pbe-n-kjpaw_psl.0.1.UPF
     MD5 check sum: 3f94a2996a3169367d6eb21d9b593f20
     Pseudo is Projector augmented-wave + core cor, Zval =  6.0
     Generated using "atomic" code by A. Dal Corso  v.5.0.99 svn rev. 10869
     Shape of augmentation charge: BESSEL
     Using radial grid of 1095 points,  4 beta functions with: 
                l(1) =   0
                l(2) =   0
                l(3) =   1
                l(4) =   1
     Q(r) pseudized with 0 coefficients 


     atomic species   valence    mass     pseudopotential
        C              4.00    12.01070      C( 1.00)
        N              5.00    14.00670      N( 1.00)
        H              1.00     1.00794      H( 1.00)
        O              6.00    15.99940      O( 1.00)

      2 Sym. Ops. (no inversion) found ( 1 have fractional translation)
          (note:  2 additional sym.ops. were found but ignored
           their fractional translations are incommensurate with FFT grid)


   Cartesian axes

     site n.     atom                  positions (alat units)
         1           O   tau(   1) = (   0.1076734   0.0667136   0.7752279  )
         2           O   tau(   2) = (   0.8923266   0.1597084   0.1565735  )
         3           O   tau(   3) = (   0.6076734   0.1597084   0.7752279  )
         4           O   tau(   4) = (   0.3923266   0.0667136   0.1565735  )
         5           O   tau(   5) = (   0.1838237   0.1768196   0.8046275  )
         6           O   tau(   6) = (   0.8161763   0.0496024   0.1859731  )
         7           O   tau(   7) = (   0.6838237   0.0496024   0.8046275  )
         8           O   tau(   8) = (   0.3161763   0.1768196   0.1859731  )
         9           C   tau(   9) = (   0.1327618   0.1208908   0.8225505  )
        10           C   tau(  10) = (   0.8672382   0.1055312   0.2038961  )
        11           C   tau(  11) = (   0.6327618   0.1055312   0.8225505  )
        12           C   tau(  12) = (   0.3672382   0.1208908   0.2038961  )
        13           H   tau(  13) = (   0.1100618   0.1212099   0.8863523  )
        14           H   tau(  14) = (   0.8899382   0.1052121   0.2676979  )
        15           H   tau(  15) = (   0.6100618   0.1052121   0.8863523  )
        16           H   tau(  16) = (   0.3899382   0.1212099   0.2676979  )
        17           O   tau(  17) = (   0.2041652   0.2995497   0.9944161  )
        18           O   tau(  18) = (   0.7958348  -0.0731277   0.3757616  )
        19           O   tau(  19) = (   0.7041652  -0.0731277   0.9944161  )
        20           O   tau(  20) = (   0.2958348   0.2995497   0.3757616  )
        21           O   tau(  21) = (   0.2676674   0.1872149   0.9459876  )
        22           O   tau(  22) = (   0.7323326   0.0392071   0.3273332  )
        23           O   tau(  23) = (   0.7676674   0.0392071   0.9459876  )
        24           O   tau(  24) = (   0.2323326   0.1872149   0.3273332  )
        25           C   tau(  25) = (   0.2570455   0.2471024   0.9978068  )
        26           C   tau(  26) = (   0.7429545  -0.0206803   0.3791524  )
        27           C   tau(  27) = (   0.7570455  -0.0206803   0.9978068  )
        28           C   tau(  28) = (   0.2429545   0.2471024   0.3791524  )
        29           H   tau(  29) = (   0.3025375   0.2445410   1.0484212  )
        30           H   tau(  30) = (   0.6974625  -0.0181190   0.4297667  )
        31           H   tau(  31) = (   0.8025375  -0.0181190   1.0484212  )
        32           H   tau(  32) = (   0.1974625   0.2445410   0.4297667  )
        33           H   tau(  33) = (   0.2311238   0.1913795   0.8953502  )
        34           H   tau(  34) = (   0.7688762   0.0350425   0.2766958  )
        35           H   tau(  35) = (   0.7311238   0.0350425   0.8953502  )
        36           H   tau(  36) = (   0.2688762   0.1913795   0.2766958  )
        37           O   tau(  37) = (   0.2558578   0.1180096   0.6046813  )
        38           O   tau(  38) = (   0.7441422   0.1084125   1.2233357  )
        39           O   tau(  39) = (   0.7558578   0.1084125   0.6046813  )
        40           O   tau(  40) = (   0.2441422   0.1180096   1.2233357  )
        41           O   tau(  41) = (   0.2617141   0.2334429   0.6819714  )
        42           O   tau(  42) = (   0.7382859  -0.0070209   0.0633170  )
        43           O   tau(  43) = (   0.7617141  -0.0070209   0.6819714  )
        44           O   tau(  44) = (   0.2382859   0.2334429   0.0633170  )
        45           C   tau(  45) = (   0.2214477   0.2897540   0.6442241  )
        46           C   tau(  46) = (   0.7785523  -0.0633320   0.0255697  )
        47           C   tau(  47) = (   0.7214477  -0.0633320   0.6442241  )
        48           C   tau(  48) = (   0.2785523   0.2897540   0.0255697  )
        49           H   tau(  49) = (   0.1544510   0.2891664   0.6515301  )
        50           H   tau(  50) = (   0.8455490  -0.0627444   0.0328757  )
        51           H   tau(  51) = (   0.6544510  -0.0627444   0.6515301  )
        52           H   tau(  52) = (   0.3455490   0.2891664   0.0328757  )
        53           H   tau(  53) = (   0.2251626   0.2037504   0.7259968  )
        54           H   tau(  54) = (   0.7748374   0.0226716   0.1073423  )
        55           H   tau(  55) = (   0.7251626   0.0226716   0.7259968  )
        56           H   tau(  56) = (   0.2748374   0.2037504   0.1073423  )
        57           O   tau(  57) = (  -0.0478857   0.1536658   0.8683525  )
        58           O   tau(  58) = (   1.0478857   0.0727562   0.2496981  )
        59           O   tau(  59) = (   0.4521143   0.0727562   0.8683525  )
        60           O   tau(  60) = (   0.5478857   0.1536658   0.2496981  )
        61           O   tau(  61) = (   0.9529052   0.0383626   0.7870188  )
        62           O   tau(  62) = (   0.0470948   0.1880594   0.1683643  )
        63           O   tau(  63) = (   0.4529052   0.1880594   0.7870188  )
        64           O   tau(  64) = (   0.5470948   0.0383626   0.1683643  )
        65           C   tau(  65) = (   0.9176063   0.2043487   0.8257667  )
        66           C   tau(  66) = (   0.0823937   0.0220734   0.2071122  )
        67           C   tau(  67) = (   0.4176063   0.0220734   0.8257667  )
        68           C   tau(  68) = (   0.5823937   0.2043487   0.2071122  )
        69           H   tau(  69) = (   0.8507522   0.2034858   0.8146296  )
        70           H   tau(  70) = (   0.1492478   0.0229362   0.1959752  )
        71           H   tau(  71) = (   0.3507522   0.0229362   0.8146296  )
        72           H   tau(  72) = (   0.6492478   0.2034858   0.1959752  )
        73           H   tau(  73) = (   0.0157239   0.0408320   0.7924466  )
        74           H   tau(  74) = (   0.9842761   0.1855900   0.1737922  )
        75           H   tau(  75) = (   0.5157239   0.1855900   0.7924466  )
        76           H   tau(  76) = (   0.4842761   0.0408320   0.1737922  )
        77           N   tau(  77) = (   0.4031417   0.0950451   0.5480630  )
        78           N   tau(  78) = (   0.5968583   0.1313770   1.1667175  )
        79           N   tau(  79) = (   0.9031417   0.1313770   0.5480630  )
        80           N   tau(  80) = (   0.0968583   0.0950451   1.1667175  )
        81           C   tau(  81) = (   0.4471859   0.0325127   0.5701934  )
        82           C   tau(  82) = (   0.5528141   0.1939093   1.1888479  )
        83           C   tau(  83) = (   0.9471859   0.1939093   0.5701934  )
        84           C   tau(  84) = (   0.0528141   0.0325127   1.1888479  )
        85           C   tau(  85) = (   0.5083860   0.0024376   0.5189581  )
        86           C   tau(  86) = (   0.4916140   0.2239844   1.1376125  )
        87           C   tau(  87) = (   0.0083860   0.2239844   0.5189581  )
        88           C   tau(  88) = (   0.9916140   0.0024376   1.1376125  )
        89           C   tau(  89) = (   0.5281095   0.0458796   0.4474602  )
        90           C   tau(  90) = (   0.4718905   0.1805424   1.0661147  )
        91           C   tau(  91) = (   0.0281095   0.1805424   0.4474602  )
        92           C   tau(  92) = (   0.9718905   0.0458796   1.0661147  )
        93           C   tau(  93) = (   0.4791408   0.1074360   0.4251261  )
        94           C   tau(  94) = (   0.5208592   0.1189860   1.0437805  )
        95           C   tau(  95) = (  -0.0208592   0.1189860   0.4251261  )
        96           C   tau(  96) = (   1.0208592   0.1074360   1.0437805  )
        97           C   tau(  97) = (   0.4222428   0.1395453   0.4807369  )
        98           C   tau(  98) = (   0.5777572   0.0868767   1.0993913  )
        99           C   tau(  99) = (   0.9222428   0.0868767   0.4807369  )
       100           C   tau( 100) = (   0.0777572   0.1395453   1.0993913  )
       101           H   tau( 101) = (   0.3466970   0.1075966   0.5803135  )
       102           H   tau( 102) = (   0.6533030   0.1188255   1.1989679  )
       103           H   tau( 103) = (   0.8466970   0.1188255   0.5803135  )
       104           H   tau( 104) = (   0.1533030   0.1075966   1.1989679  )
       105           H   tau( 105) = (   0.4273707   0.0013502   0.6258053  )
       106           H   tau( 106) = (   0.5726293   0.2250719   0.0071509  )
       107           H   tau( 107) = (   0.9273707   0.2250719   0.6258053  )
       108           H   tau( 108) = (   0.0726293   0.0013502   0.0071509  )
       109           H   tau( 109) = (   0.5484862  -0.0446839   0.5431352  )
       110           H   tau( 110) = (   0.4515138   0.2711059  -0.0755193  )
       111           H   tau( 111) = (   0.0484862   0.2711059   0.5431352  )
       112           H   tau( 112) = (   0.9515138  -0.0446839  -0.0755193  )
       113           H   tau( 113) = (   0.5770037   0.0262300   0.4067040  )
       114           H   tau( 114) = (   0.4229963   0.2001920   1.0253585  )
       115           H   tau( 115) = (   0.0770037   0.2001920   0.4067040  )
       116           H   tau( 116) = (   0.9229963   0.0262300   1.0253585  )
       117           H   tau( 117) = (   0.4922997   0.1408436   0.3691381  )
       118           H   tau( 118) = (   0.5077003   0.0855784   0.9877926  )
       119           H   tau( 119) = (  -0.0077003   0.0855784   0.3691381  )
       120           H   tau( 120) = (   1.0077003   0.1408436   0.9877926  )
       121           H   tau( 121) = (   0.3760706   0.1830091   0.4611538  )
       122           H   tau( 122) = (   0.6239294   0.0434130   1.0798082  )
       123           H   tau( 123) = (   0.8760706   0.0434130   0.4611538  )
       124           H   tau( 124) = (   0.1239294   0.1830091   1.0798082  )

     number of k points=     6
                       cart. coord. in units 2pi/alat
        k(    1) = (   0.0000000   0.0000000   0.0000000), wk =   0.2000000
        k(    2) = (   0.0000000   0.8833063   0.0000000), wk =   0.4000000
        k(    3) = (   0.0000000   1.7666126   0.0000000), wk =   0.4000000
        k(    4) = (  -0.5000000   0.0000000   0.0000000), wk =   0.2000000
        k(    5) = (  -0.5000000   0.8833063   0.0000000), wk =   0.4000000
        k(    6) = (  -0.5000000   1.7666126   0.0000000), wk =   0.4000000

     Dense  grid:  1116307 G-vectors     FFT dimensions: ( 200,  45, 243)

     Estimated max dynamical RAM per process >    1268.10MB

     Estimated total allocated dynamical RAM >   10144.83MB

     Check: negative/imaginary core charge=   -0.000002    0.000000

     Initial potential from superposition of free atoms

     starting charge  407.99793, renormalised to  408.00000
     Starting wfc are  340 randomized atomic wfcs
     Checking if some PAW data can be deallocated... 

     total cpu time spent up to now is       52.7 secs

     per-process dynamical memory:   799.0 Mb

     Self-consistent Calculation

     iteration #  1     ecut=   100.00 Ry     beta=0.50
     Davidson diagonalization with overlap
     ethr =  1.00E-02,  avg # of iterations =  3.7

     total cpu time spent up to now is      213.0 secs

     total energy              =   -2168.42735413 Ry
     Harris-Foulkes estimate   =   -2175.33720963 Ry
     estimated scf accuracy    <      12.64985838 Ry

     iteration #  2     ecut=   100.00 Ry     beta=0.50
     Davidson diagonalization with overlap
     ethr =  3.10E-03,  avg # of iterations =  2.7

     total cpu time spent up to now is      311.3 secs

     total energy              =   -2170.30150233 Ry
     Harris-Foulkes estimate   =   -2171.40697822 Ry
     estimated scf accuracy    <       2.32834163 Ry

     iteration #  3     ecut=   100.00 Ry     beta=0.50
     Davidson diagonalization with overlap
     ethr =  5.71E-04,  avg # of iterations =  6.8

     total cpu time spent up to now is      455.9 secs

     total energy              =   -2170.96092266 Ry
     Harris-Foulkes estimate   =   -2171.17088419 Ry
     estimated scf accuracy    <       0.51223651 Ry

     iteration #  4     ecut=   100.00 Ry     beta=0.50
     Davidson diagonalization with overlap
     ethr =  1.26E-04,  avg # of iterations =  4.2

     total cpu time spent up to now is      549.0 secs

     total energy              =   -2171.01166993 Ry
     Harris-Foulkes estimate   =   -2171.04885989 Ry
     estimated scf accuracy    <       0.09379541 Ry

     iteration #  5     ecut=   100.00 Ry     beta=0.50
     Davidson diagonalization with overlap
     ethr =  2.30E-05,  avg # of iterations =  7.0

     total cpu time spent up to now is      706.3 secs

     total energy              =   -2171.04220022 Ry
     Harris-Foulkes estimate   =   -2171.05211406 Ry
     estimated scf accuracy    <       0.02613971 Ry

     iteration #  6     ecut=   100.00 Ry     beta=0.50
     Davidson diagonalization with overlap
     ethr =  6.41E-06,  avg # of iterations =  2.7

     total cpu time spent up to now is      791.8 secs

     total energy              =   -2171.04347902 Ry
     Harris-Foulkes estimate   =   -2171.04510631 Ry
     estimated scf accuracy    <       0.00336321 Ry

     iteration #  7     ecut=   100.00 Ry     beta=0.50
     Davidson diagonalization with overlap
     ethr =  8.24E-07,  avg # of iterations =  6.7

     total cpu time spent up to now is      969.4 secs

     total energy              =   -2171.04577170 Ry
     Harris-Foulkes estimate   =   -2171.04640727 Ry
     estimated scf accuracy    <       0.00168707 Ry

     iteration #  8     ecut=   100.00 Ry     beta=0.50
     Davidson diagonalization with overlap
     ethr =  4.13E-07,  avg # of iterations =  1.7

     total cpu time spent up to now is     1050.3 secs

     total energy              =   -2171.04564207 Ry
     Harris-Foulkes estimate   =   -2171.04588661 Ry
     estimated scf accuracy    <       0.00046286 Ry

     iteration #  9     ecut=   100.00 Ry     beta=0.50
     Davidson diagonalization with overlap
     ethr =  1.13E-07,  avg # of iterations =  4.7

     total cpu time spent up to now is     1184.6 secs

     total energy              =   -2171.04591539 Ry
     Harris-Foulkes estimate   =   -2171.04595843 Ry
     estimated scf accuracy    <       0.00014098 Ry

     iteration # 10     ecut=   100.00 Ry     beta=0.50
     Davidson diagonalization with overlap
     ethr =  3.46E-08,  avg # of iterations =  1.2

     total cpu time spent up to now is     1263.9 secs

     total energy              =   -2171.04590107 Ry
     Harris-Foulkes estimate   =   -2171.04592190 Ry
     estimated scf accuracy    <       0.00005080 Ry

     iteration # 11     ecut=   100.00 Ry     beta=0.50
     Davidson diagonalization with overlap
     ethr =  1.25E-08,  avg # of iterations =  3.7

     total cpu time spent up to now is     1379.4 secs

     total energy              =   -2171.04591857 Ry
     Harris-Foulkes estimate   =   -2171.04591880 Ry
     estimated scf accuracy    <       0.00000076 Ry

     iteration # 12     ecut=   100.00 Ry     beta=0.50
     Davidson diagonalization with overlap
     ethr =  1.87E-10,  avg # of iterations =  3.7

     total cpu time spent up to now is     1518.0 secs

     total energy              =   -2171.04591883 Ry
     Harris-Foulkes estimate   =   -2171.04591894 Ry
     estimated scf accuracy    <       0.00000028 Ry

     iteration # 13     ecut=   100.00 Ry     beta=0.50
     Davidson diagonalization with overlap
     ethr =  6.88E-11,  avg # of iterations =  3.3

     total cpu time spent up to now is     1608.4 secs

     total energy              =   -2171.04591887 Ry
     Harris-Foulkes estimate   =   -2171.04591888 Ry
     estimated scf accuracy    <       0.00000003 Ry

     iteration # 14     ecut=   100.00 Ry     beta=0.50
     Davidson diagonalization with overlap
     ethr =  7.94E-12,  avg # of iterations =  4.0

     total cpu time spent up to now is     1761.4 secs

     total energy              =   -2171.04591889 Ry
     Harris-Foulkes estimate   =   -2171.04591890 Ry
     estimated scf accuracy    <       0.00000001 Ry

     iteration # 15     ecut=   100.00 Ry     beta=0.50
     Davidson diagonalization with overlap
     ethr =  3.42E-12,  avg # of iterations =  2.3

     total cpu time spent up to now is     1844.3 secs

     End of self-consistent calculation

          k = 0.0000 0.0000 0.0000 (139433 PWs)   bands (ev):

   -21.5027 -21.5025 -21.5024 -21.5022 -21.2099 -21.2096 -21.2093 -21.2090
   -20.6020 -20.6019 -20.6015 -20.6015 -20.2389 -20.2387 -20.2380 -20.2380
   -19.8975 -19.8971 -19.8968 -19.8963 -18.8667 -18.8667 -18.8667 -18.8667
   -18.5862 -18.5862 -18.5855 -18.5854 -17.9774 -17.9772 -17.9767 -17.9767
   -17.3306 -17.3306 -17.3300 -17.3300 -15.8297 -15.8296 -15.8290 -15.8289
   -13.8723 -13.8722 -13.8719 -13.8718 -11.6446 -11.6446 -11.6418 -11.6417
   -10.5179 -10.5175 -10.5163 -10.5159  -9.7039  -9.7033  -9.6893  -9.6890
    -9.4938  -9.4898  -9.4732  -9.4658  -9.1648  -9.1482  -9.1463  -9.1314
    -8.9434  -8.9384  -8.9147  -8.8915  -8.2438  -8.2098  -8.2038  -8.1789
    -7.5086  -7.5078  -7.5072  -7.5065  -7.0602  -7.0484  -7.0038  -6.9998
    -6.9321  -6.9316  -6.9315  -6.9224  -6.7222  -6.6770  -6.6693  -6.6526
    -6.1559  -6.1298  -6.1172  -6.1015  -5.9207  -5.9194  -5.8953  -5.8907
    -5.6366  -5.6028  -5.6000  -5.5730  -5.4154  -5.4080  -5.4037  -5.3946
    -5.1974  -5.1630  -5.1526  -5.1513  -5.0434  -5.0338  -5.0134  -4.9890
    -4.7483  -4.7092  -4.6856  -4.6773  -4.4276  -4.4236  -4.4221  -4.4189
    -4.1746  -4.1724  -4.1550  -4.1352  -4.0461  -3.9758  -3.9658  -3.9653
    -3.7942  -3.7818  -3.7746  -3.7713  -3.7376  -3.7319  -3.7138  -3.6865
    -3.5770  -3.5611  -3.5240  -3.5142  -3.3267  -3.3026  -3.2965  -3.2838
    -3.1310  -3.1264  -3.1223  -3.1124  -3.0170  -3.0154  -2.9934  -2.9628
    -2.5039  -2.4916  -2.4875  -2.4861  -2.3003  -2.2983  -2.2950  -2.2879
    -1.9622  -1.9602  -1.9542  -1.9300  -1.8757  -1.8592  -1.8524  -1.8319
    -1.7793  -1.7486  -1.7370  -1.7296  -1.6953  -1.6918  -1.6878  -1.6872
    -1.3750  -1.3724  -1.3707  -1.3701  -0.9251  -0.9234  -0.8905  -0.8896
    -0.8133  -0.8110  -0.8105  -0.7948  -0.0829  -0.0665  -0.0606  -0.0564
     0.1328   0.1410   0.1484   0.1486   0.6344   0.6395   0.6452   0.6478
     0.6528   0.6562   0.6611   0.6620   2.3990   2.4054   2.4142   2.4165
     4.7417   4.7467   4.7627   4.7692   5.3817   5.3818   5.3960   5.4002
     5.5819   5.5836   5.6546   5.6561   5.9245   5.9364   5.9638   5.9659
     6.1806   6.1946   6.2486   6.2633   6.3236   6.3241   6.3439   6.3731
     6.5757   6.5785   6.5915   6.6021   6.7419   6.7510   6.9902   7.0205
     7.1058   7.1415   7.2205   7.3341

          k = 0.0000 0.8833 0.0000 (139472 PWs)   bands (ev):

   -21.3935 -21.3933 -21.3932 -21.3930 -21.1099 -21.1097 -21.1094 -21.1092
   -20.5018 -20.5018 -20.5015 -20.5015 -20.1259 -20.1258 -20.1251 -20.1251
   -19.8048 -19.8044 -19.8040 -19.8036 -19.0121 -19.0121 -19.0118 -19.0117
   -18.7214 -18.7214 -18.7208 -18.7208 -18.1126 -18.1125 -18.1120 -18.1120
   -17.4587 -17.4587 -17.4582 -17.4582 -15.7074 -15.7074 -15.7068 -15.7068
   -14.2734 -14.2733 -14.2731 -14.2731 -11.4218 -11.4217 -11.4183 -11.4181
   -10.8207 -10.8204 -10.8190 -10.8188  -9.6589  -9.6577  -9.6458  -9.6458
    -9.5159  -9.5134  -9.4922  -9.4909  -9.1475  -9.1198  -9.0957  -9.0830
    -8.9680  -8.9574  -8.9307  -8.9018  -8.0970  -8.0844  -8.0544  -8.0470
    -7.3857  -7.3848  -7.3835  -7.3824  -7.1285  -7.1112  -7.0928  -7.0776
    -6.8653  -6.8453  -6.8121  -6.7921  -6.4892  -6.4792  -6.4330  -6.4213
    -6.1784  -6.1755  -6.1529  -6.1510  -5.9556  -5.9535  -5.9324  -5.9258
    -5.7344  -5.7072  -5.6443  -5.6238  -5.5415  -5.5279  -5.4668  -5.4502
    -5.3948  -5.3733  -5.3619  -5.3153  -5.1759  -5.1663  -5.1527  -5.1421
    -5.0307  -4.9985  -4.9943  -4.9805  -4.7906  -4.7668  -4.7652  -4.7170
    -4.4361  -4.4214  -4.4010  -4.3931  -4.0706  -4.0681  -4.0530  -4.0476
    -4.0031  -4.0028  -3.9675  -3.9656  -3.8924  -3.8637  -3.8300  -3.8287
    -3.6378  -3.5979  -3.5767  -3.5523  -3.4033  -3.3795  -3.3527  -3.3241
    -3.2083  -3.2008  -3.1748  -3.1721  -2.8449  -2.8363  -2.8208  -2.8188
    -2.6557  -2.6373  -2.6348  -2.6341  -2.4068  -2.3933  -2.3922  -2.3823
    -2.0399  -2.0323  -2.0091  -1.9959  -1.5895  -1.5746  -1.5660  -1.5616
    -1.4357  -1.4331  -1.4209  -1.4156  -1.0869  -1.0858  -1.0754  -1.0727
    -0.7407  -0.7280  -0.7154  -0.6963  -0.6441  -0.6405  -0.6286  -0.6138
    -0.3330  -0.3319  -0.2978  -0.2950  -0.0880  -0.0771  -0.0659  -0.0521
     0.2534   0.2659   0.2677   0.2748   0.4982   0.5002   0.5385   0.5394
     0.7402   0.7426   0.8199   0.8200   2.9548   2.9576   2.9634   2.9644
     3.7165   3.7204   3.7290   3.7322   5.1959   5.2045   5.2104   5.2159
     5.4328   5.4332   5.4441   5.4476   6.0442   6.0710   6.0902   6.0968
     6.1642   6.2207   6.2246   6.2341   6.4076   6.4439   6.4866   6.5135
     6.8986   6.9136   7.0327   7.0556   7.0850   7.0873   7.2759   7.3266
     7.3583   7.4128   7.4652   7.5020

          k = 0.0000 1.7666 0.0000 (139610 PWs)   bands (ev):

   -21.1810 -21.1810 -21.1809 -21.1808 -20.9195 -20.9194 -20.9192 -20.9191
   -20.3105 -20.3105 -20.3104 -20.3104 -19.9280 -19.9279 -19.9272 -19.9270
   -19.6405 -19.6396 -19.6393 -19.6385 -19.2691 -19.2688 -19.2685 -19.2682
   -18.9654 -18.9654 -18.9649 -18.9649 -18.3575 -18.3575 -18.3571 -18.3571
   -17.6946 -17.6945 -17.6942 -17.6942 -15.4995 -15.4995 -15.4991 -15.4991
   -14.8571 -14.8570 -14.8570 -14.8569 -11.4001 -11.3999 -11.3980 -11.3977
   -10.9936 -10.9936 -10.9877 -10.9875  -9.5698  -9.5679  -9.5646  -9.5610
    -9.4404  -9.4334  -9.4168  -9.4047  -9.0844  -9.0546  -8.9987  -8.9985
    -8.9179  -8.9068  -8.8565  -8.8515  -7.8323  -7.8280  -7.7946  -7.7885
    -7.4149  -7.4123  -7.4057  -7.4040  -7.0428  -7.0379  -7.0328  -7.0235
    -6.9216  -6.9189  -6.9110  -6.9044  -6.4923  -6.4732  -6.4612  -6.4568
    -6.3031  -6.2885  -6.2754  -6.2686  -6.2199  -6.2052  -6.1989  -6.1808
    -5.7987  -5.7947  -5.7434  -5.7229  -5.6142  -5.5960  -5.5524  -5.5304
    -5.5039  -5.5022  -5.4482  -5.4473  -5.2531  -5.2180  -5.1432  -5.1414
    -4.9938  -4.9647  -4.9217  -4.8997  -4.8597  -4.8013  -4.7738  -4.7629
    -4.7626  -4.7305  -4.6952  -4.6861  -4.5527  -4.5444  -4.5075  -4.5071
    -4.3288  -4.3184  -4.2996  -4.2981  -4.1219  -4.1203  -4.0646  -4.0641
    -3.9755  -3.9638  -3.9483  -3.9481  -3.6603  -3.6459  -3.6441  -3.6230
    -3.5346  -3.5151  -3.5044  -3.4933  -2.9564  -2.9458  -2.9457  -2.9377
    -2.6799  -2.6726  -2.6692  -2.6576  -2.4043  -2.3916  -2.3891  -2.3756
    -1.9497  -1.9452  -1.9204  -1.9008  -0.7791  -0.7751  -0.7604  -0.7575
    -0.4377  -0.4233  -0.4055  -0.3994  -0.3604  -0.3496  -0.3427  -0.3350
    -0.2406  -0.2215  -0.2139  -0.2020   0.0277   0.0394   0.0486   0.0664
     0.1215   0.1480   0.1567   0.1609   0.2390   0.2454   0.2618   0.2730
     0.4641   0.4693   0.5052   0.5090   0.7130   0.7182   0.7317   0.7354
     0.8292   0.8303   0.8989   0.8998   2.0312   2.0317   2.0413   2.0432
     4.1381   4.1400   4.1422   4.1472   4.8898   4.8929   4.9030   4.9084
     5.0861   5.0999   5.1174   5.1310   5.7170   5.7244   5.7497   5.7527
     6.1018   6.1172   6.1660   6.1690   6.8447   6.8554   6.8567   6.8638
     7.3975   7.4097   7.5622   7.5666   7.6667   7.7207   7.8460   7.8550
     7.8809   7.9094   7.9726   7.9854

          k =-0.5000 0.0000 0.0000 (139466 PWs)   bands (ev):

   -21.5026 -21.5026 -21.5023 -21.5023 -21.2097 -21.2097 -21.2091 -21.2091
   -20.6018 -20.6018 -20.6017 -20.6017 -20.2388 -20.2388 -20.2380 -20.2380
   -19.8971 -19.8971 -19.8967 -19.8967 -18.8667 -18.8667 -18.8667 -18.8667
   -18.5858 -18.5858 -18.5858 -18.5858 -17.9771 -17.9771 -17.9769 -17.9769
   -17.3303 -17.3303 -17.3303 -17.3303 -15.8293 -15.8293 -15.8293 -15.8293
   -13.8721 -13.8721 -13.8720 -13.8720 -11.6432 -11.6432 -11.6431 -11.6431
   -10.5170 -10.5170 -10.5167 -10.5167  -9.6968  -9.6968  -9.6962  -9.6962
    -9.4840  -9.4840  -9.4778  -9.4778  -9.1573  -9.1573  -9.1393  -9.1393
    -8.9313  -8.9313  -8.9109  -8.9109  -8.2241  -8.2241  -8.1942  -8.1942
    -7.5078  -7.5078  -7.5072  -7.5072  -7.0558  -7.0558  -7.0027  -7.0027
    -6.9288  -6.9288  -6.9224  -6.9224  -6.7064  -6.7064  -6.6615  -6.6615
    -6.1362  -6.1362  -6.1151  -6.1151  -5.9205  -5.9205  -5.8924  -5.8924
    -5.6189  -5.6189  -5.5862  -5.5862  -5.4031  -5.4031  -5.4025  -5.4025
    -5.1837  -5.1837  -5.1554  -5.1554  -5.0210  -5.0210  -5.0195  -5.0195
    -4.7256  -4.7256  -4.6828  -4.6828  -4.4246  -4.4246  -4.4205  -4.4205
    -4.1746  -4.1746  -4.1428  -4.1428  -4.0106  -4.0106  -3.9696  -3.9696
    -3.7898  -3.7898  -3.7728  -3.7728  -3.7386  -3.7386  -3.7022  -3.7022
    -3.5440  -3.5440  -3.5296  -3.5296  -3.3174  -3.3174  -3.2926  -3.2926
    -3.1249  -3.1249  -3.1195  -3.1195  -3.0107  -3.0107  -2.9857  -2.9857
    -2.4968  -2.4968  -2.4889  -2.4889  -2.2981  -2.2981  -2.2914  -2.2914
    -1.9627  -1.9627  -1.9380  -1.9380  -1.8658  -1.8658  -1.8422  -1.8422
    -1.7653  -1.7653  -1.7338  -1.7338  -1.6985  -1.6985  -1.6844  -1.6844
    -1.3729  -1.3729  -1.3713  -1.3713  -0.9067  -0.9067  -0.9053  -0.9053
    -0.8127  -0.8127  -0.8042  -0.8042  -0.0724  -0.0724  -0.0609  -0.0609
     0.1400   0.1400   0.1454   0.1454   0.6431   0.6431   0.6475   0.6475
     0.6538   0.6538   0.6553   0.6553   2.4065   2.4065   2.4111   2.4111
     4.7524   4.7524   4.7584   4.7584   5.3870   5.3870   5.3903   5.3903
     5.6161   5.6161   5.6190   5.6190   5.9419   5.9419   5.9533   5.9533
     6.2085   6.2085   6.2389   6.2389   6.3239   6.3239   6.3698   6.3698
     6.5696   6.5696   6.5829   6.5829   6.8221   6.8221   6.8695   6.8695
     7.1361   7.1361   7.3091   7.3091

          k =-0.5000 0.8833 0.0000 (139538 PWs)   bands (ev):

   -21.3934 -21.3934 -21.3931 -21.3931 -21.1098 -21.1098 -21.1093 -21.1093
   -20.5017 -20.5017 -20.5016 -20.5016 -20.1258 -20.1258 -20.1251 -20.1251
   -19.8044 -19.8044 -19.8040 -19.8040 -19.0119 -19.0119 -19.0119 -19.0119
   -18.7211 -18.7211 -18.7211 -18.7211 -18.1123 -18.1123 -18.1123 -18.1123
   -17.4585 -17.4585 -17.4584 -17.4584 -15.7071 -15.7071 -15.7071 -15.7071
   -14.2732 -14.2732 -14.2732 -14.2732 -11.4201 -11.4201 -11.4199 -11.4199
   -10.8199 -10.8199 -10.8196 -10.8196  -9.6524  -9.6524  -9.6518  -9.6518
    -9.5050  -9.5050  -9.5016  -9.5016  -9.1266  -9.1266  -9.1019  -9.1019
    -8.9487  -8.9487  -8.9241  -8.9241  -8.0765  -8.0765  -8.0660  -8.0660
    -7.3845  -7.3845  -7.3836  -7.3836  -7.1201  -7.1201  -7.0845  -7.0845
    -6.8390  -6.8390  -6.8180  -6.8180  -6.4638  -6.4638  -6.4493  -6.4493
    -6.1735  -6.1735  -6.1551  -6.1551  -5.9558  -5.9558  -5.9328  -5.9328
    -5.6928  -5.6928  -5.6689  -5.6689  -5.5177  -5.5177  -5.4631  -5.4631
    -5.3779  -5.3779  -5.3386  -5.3386  -5.1753  -5.1753  -5.1516  -5.1516
    -5.0200  -5.0200  -4.9775  -4.9775  -4.7843  -4.7843  -4.7372  -4.7372
    -4.4299  -4.4299  -4.3961  -4.3961  -4.0723  -4.0723  -4.0468  -4.0468
    -3.9923  -3.9923  -3.9815  -3.9815  -3.8706  -3.8706  -3.8333  -3.8333
    -3.6170  -3.6170  -3.5647  -3.5647  -3.3918  -3.3918  -3.3392  -3.3392
    -3.1912  -3.1912  -3.1859  -3.1859  -2.8399  -2.8399  -2.8206  -2.8206
    -2.6478  -2.6478  -2.6327  -2.6327  -2.4017  -2.4017  -2.3860  -2.3860
    -2.0261  -2.0261  -2.0123  -2.0123  -1.5766  -1.5766  -1.5682  -1.5682
    -1.4297  -1.4297  -1.4234  -1.4234  -1.0815  -1.0815  -1.0792  -1.0792
    -0.7297  -0.7297  -0.7133  -0.7133  -0.6390  -0.6390  -0.6217  -0.6217
    -0.3160  -0.3160  -0.3138  -0.3138  -0.0779  -0.0779  -0.0631  -0.0631
     0.2604   0.2604   0.2705   0.2705   0.5144   0.5144   0.5172   0.5172
     0.7832   0.7832   0.7851   0.7851   2.9587   2.9587   2.9612   2.9612
     3.7229   3.7229   3.7265   3.7265   5.2011   5.2011   5.2089   5.2089
     5.4390   5.4390   5.4424   5.4424   6.0642   6.0642   6.0840   6.0840
     6.1897   6.1897   6.2398   6.2398   6.4396   6.4396   6.4789   6.4789
     6.9529   6.9529   6.9675   6.9675   7.1690   7.1690   7.1892   7.1892
     7.4101   7.4101   7.5042   7.5042

          k =-0.5000 1.7666 0.0000 (139656 PWs)   bands (ev):

   -21.1810 -21.1810 -21.1808 -21.1808 -20.9194 -20.9194 -20.9191 -20.9191
   -20.3105 -20.3105 -20.3105 -20.3105 -19.9280 -19.9280 -19.9271 -19.9271
   -19.6400 -19.6400 -19.6389 -19.6389 -19.2688 -19.2688 -19.2685 -19.2685
   -18.9652 -18.9652 -18.9651 -18.9651 -18.3573 -18.3573 -18.3573 -18.3573
   -17.6944 -17.6944 -17.6944 -17.6944 -15.4993 -15.4993 -15.4993 -15.4993
   -14.8571 -14.8571 -14.8570 -14.8570 -11.3990 -11.3990 -11.3988 -11.3988
   -10.9907 -10.9907 -10.9904 -10.9904  -9.5672  -9.5672  -9.5643  -9.5643
    -9.4293  -9.4293  -9.4191  -9.4191  -9.0555  -9.0555  -9.0248  -9.0248
    -8.8875  -8.8875  -8.8657  -8.8657  -7.8146  -7.8146  -7.8086  -7.8086
    -7.4101  -7.4101  -7.4076  -7.4076  -7.0405  -7.0405  -7.0280  -7.0280
    -6.9165  -6.9165  -6.9119  -6.9119  -6.4757  -6.4757  -6.4635  -6.4635
    -6.2914  -6.2914  -6.2788  -6.2788  -6.2076  -6.2076  -6.1921  -6.1921
    -5.7811  -5.7811  -5.7604  -5.7604  -5.5856  -5.5856  -5.5453  -5.5453
    -5.5037  -5.5037  -5.4702  -5.4702  -5.1913  -5.1913  -5.1694  -5.1694
    -4.9643  -4.9643  -4.9137  -4.9137  -4.8453  -4.8453  -4.7825  -4.7825
    -4.7290  -4.7290  -4.6944  -4.6944  -4.5368  -4.5368  -4.5174  -4.5174
    -4.3175  -4.3175  -4.3036  -4.3036  -4.1210  -4.1210  -4.0654  -4.0654
    -3.9625  -3.9625  -3.9541  -3.9541  -3.6565  -3.6565  -3.6303  -3.6303
    -3.5271  -3.5271  -3.4966  -3.4966  -2.9517  -2.9517  -2.9411  -2.9411
    -2.6768  -2.6768  -2.6631  -2.6631  -2.3971  -2.3971  -2.3837  -2.3837
    -1.9387  -1.9387  -1.9191  -1.9191  -0.7699  -0.7699  -0.7657  -0.7657
    -0.4222  -0.4222  -0.4124  -0.4124  -0.3552  -0.3552  -0.3373  -0.3373
    -0.2316  -0.2316  -0.2057  -0.2057   0.0302   0.0302   0.0527   0.0527
     0.1404   0.1404   0.1599   0.1599   0.2476   0.2476   0.2622   0.2622
     0.4799   0.4799   0.4880   0.4880   0.7236   0.7236   0.7276   0.7276
     0.8656   0.8656   0.8671   0.8671   2.0362   2.0362   2.0375   2.0375
     4.1398   4.1398   4.1445   4.1445   4.8953   4.8953   4.9010   4.9010
     5.1014   5.1014   5.1156   5.1156   5.7334   5.7334   5.7374   5.7374
     6.1301   6.1301   6.1483   6.1483   6.8516   6.8516   6.8609   6.8609
     7.4515   7.4515   7.4809   7.4809   7.7467   7.7467   7.7890   7.7890
     7.9206   7.9206   7.9463   7.9463

     highest occupied, lowest unoccupied level (ev):     0.8998    2.0312

!    total energy              =   -2171.04591890 Ry
     Harris-Foulkes estimate   =   -2171.04591890 Ry
     estimated scf accuracy    <          1.6E-09 Ry

     total all-electron energy =     -8058.849106 Ry

     The total energy is the sum of the following terms:

     one-electron contribution =   -1289.21825256 Ry
     hartree contribution      =     805.73606526 Ry
     xc contribution           =    -445.94862091 Ry
     ewald contribution        =    -663.95357455 Ry
     Dispersion Correction     =      -0.52196259 Ry
     one-center paw contrib.   =    -577.13957355 Ry

     convergence has been achieved in  15 iterations

     Forces acting on atoms (cartesian axes, Ry/au):

     atom    1 type  4   force =    -0.04643153    0.02807373   -0.01706175
     atom    2 type  4   force =     0.04643241   -0.02807394   -0.01706038
     atom    3 type  4   force =    -0.04643153   -0.02807373   -0.01706175
     atom    4 type  4   force =     0.04643241    0.02807394   -0.01706038
     atom    5 type  4   force =     0.05324318   -0.02709936    0.01931948
     atom    6 type  4   force =    -0.05324395    0.02709918    0.01932249
     atom    7 type  4   force =     0.05324318    0.02709936    0.01931948
     atom    8 type  4   force =    -0.05324395   -0.02709918    0.01932249
     atom    9 type  1   force =    -0.00631403   -0.00009079    0.00406961
     atom   10 type  1   force =     0.00631515    0.00009198    0.00406310
     atom   11 type  1   force =    -0.00631403    0.00009079    0.00406961
     atom   12 type  1   force =     0.00631515   -0.00009198    0.00406310
     atom   13 type  3   force =     0.00037281    0.00086919   -0.00203287
     atom   14 type  3   force =    -0.00037305   -0.00086918   -0.00203356
     atom   15 type  3   force =     0.00037281   -0.00086919   -0.00203287
     atom   16 type  3   force =    -0.00037305    0.00086918   -0.00203356
     atom   17 type  4   force =    -0.02956944   -0.03261223    0.02805890
     atom   18 type  4   force =     0.02956890    0.03261325    0.02806446
     atom   19 type  4   force =    -0.02956944    0.03261223    0.02805890
     atom   20 type  4   force =     0.02956890   -0.03261325    0.02806446
     atom   21 type  4   force =     0.03927374    0.03431683   -0.03458406
     atom   22 type  4   force =    -0.03927422   -0.03431704   -0.03458453
     atom   23 type  4   force =     0.03927374   -0.03431683   -0.03458406
     atom   24 type  4   force =    -0.03927422    0.03431704   -0.03458453
     atom   25 type  1   force =    -0.00633782    0.00103705    0.00655120
     atom   26 type  1   force =     0.00633785   -0.00103714    0.00655768
     atom   27 type  1   force =    -0.00633782   -0.00103705    0.00655120
     atom   28 type  1   force =     0.00633785    0.00103714    0.00655768
     atom   29 type  3   force =    -0.00370785   -0.00116157   -0.00201740
     atom   30 type  3   force =     0.00370755    0.00116142   -0.00201736
     atom   31 type  3   force =    -0.00370785    0.00116157   -0.00201740
     atom   32 type  3   force =     0.00370755   -0.00116142   -0.00201736
     atom   33 type  3   force =    -0.00094393   -0.00055515   -0.00114270
     atom   34 type  3   force =     0.00094404    0.00055516   -0.00114291
     atom   35 type  3   force =    -0.00094393    0.00055515   -0.00114270
     atom   36 type  3   force =     0.00094404   -0.00055516   -0.00114291
     atom   37 type  4   force =    -0.00096067   -0.03592422   -0.04701936
     atom   38 type  4   force =     0.00096075    0.03592427   -0.04702098
     atom   39 type  4   force =    -0.00096067    0.03592422   -0.04701936
     atom   40 type  4   force =     0.00096075   -0.03592427   -0.04702098
     atom   41 type  4   force =     0.00901386    0.02521407    0.04814893
     atom   42 type  4   force =    -0.00901429   -0.02521312    0.04814519
     atom   43 type  4   force =     0.00901386   -0.02521407    0.04814893
     atom   44 type  4   force =    -0.00901429    0.02521312    0.04814519
     atom   45 type  1   force =    -0.00887752    0.00871645   -0.00338342
     atom   46 type  1   force =     0.00887696   -0.00871664   -0.00337746
     atom   47 type  1   force =    -0.00887752   -0.00871645   -0.00338342
     atom   48 type  1   force =     0.00887696    0.00871664   -0.00337746
     atom   49 type  3   force =     0.00247678   -0.00100862   -0.00060032
     atom   50 type  3   force =    -0.00247658    0.00100860   -0.00060044
     atom   51 type  3   force =     0.00247678    0.00100862   -0.00060032
     atom   52 type  3   force =    -0.00247658   -0.00100860   -0.00060044
     atom   53 type  3   force =    -0.00041645    0.00048432    0.00280677
     atom   54 type  3   force =     0.00041656   -0.00048427    0.00280689
     atom   55 type  3   force =    -0.00041645   -0.00048432    0.00280677
     atom   56 type  3   force =     0.00041656    0.00048427    0.00280689
     atom   57 type  4   force =     0.00037564    0.03121810    0.04410641
     atom   58 type  4   force =    -0.00037477   -0.03121920    0.04410652
     atom   59 type  4   force =     0.00037564   -0.03121810    0.04410641
     atom   60 type  4   force =    -0.00037477    0.03121920    0.04410652
     atom   61 type  4   force =     0.00258918   -0.02796781   -0.05274989
     atom   62 type  4   force =    -0.00258952    0.02796864   -0.05275118
     atom   63 type  4   force =     0.00258918    0.02796781   -0.05274989
     atom   64 type  4   force =    -0.00258952   -0.02796864   -0.05275118
     atom   65 type  1   force =    -0.00402194   -0.00394242    0.00551556
     atom   66 type  1   force =     0.00402120    0.00394346    0.00550310
     atom   67 type  1   force =    -0.00402194    0.00394242    0.00551556
     atom   68 type  1   force =     0.00402120   -0.00394346    0.00550310
     atom   69 type  3   force =     0.00328794    0.00099477    0.00052926
     atom   70 type  3   force =    -0.00328816   -0.00099472    0.00052942
     atom   71 type  3   force =     0.00328794   -0.00099477    0.00052926
     atom   72 type  3   force =    -0.00328816    0.00099472    0.00052942
     atom   73 type  3   force =    -0.00152886    0.00129915    0.00056063
     atom   74 type  3   force =     0.00152894   -0.00129912    0.00056035
     atom   75 type  3   force =    -0.00152886   -0.00129915    0.00056063
     atom   76 type  3   force =     0.00152894    0.00129912    0.00056035
     atom   77 type  2   force =    -0.03359171    0.04297647   -0.01403385
     atom   78 type  2   force =     0.03359142   -0.04297720   -0.01403475
     atom   79 type  2   force =    -0.03359171   -0.04297647   -0.01403385
     atom   80 type  2   force =     0.03359142    0.04297720   -0.01403475
     atom   81 type  1   force =     0.03365750   -0.03787765    0.03532775
     atom   82 type  1   force =    -0.03365723    0.03787769    0.03533400
     atom   83 type  1   force =     0.03365750    0.03787765    0.03532775
     atom   84 type  1   force =    -0.03365723   -0.03787769    0.03533400
     atom   85 type  1   force =     0.04217556    0.02282381    0.05473385
     atom   86 type  1   force =    -0.04217505   -0.02282238    0.05473538
     atom   87 type  1   force =     0.04217556   -0.02282381    0.05473385
     atom   88 type  1   force =    -0.04217505    0.02282238    0.05473538
     atom   89 type  1   force =     0.02953992   -0.04591084   -0.00240143
     atom   90 type  1   force =    -0.02954051    0.04590994   -0.00238608
     atom   91 type  1   force =     0.02953992    0.04591084   -0.00240143
     atom   92 type  1   force =    -0.02954051   -0.04590994   -0.00238608
     atom   93 type  1   force =    -0.01172617    0.05435336   -0.03359141
     atom   94 type  1   force =     0.01172641   -0.05435357   -0.03358688
     atom   95 type  1   force =    -0.01172617   -0.05435336   -0.03359141
     atom   96 type  1   force =     0.01172641    0.05435357   -0.03358688
     atom   97 type  1   force =    -0.05684826   -0.03986771   -0.03526198
     atom   98 type  1   force =     0.05684828    0.03986823   -0.03527810
     atom   99 type  1   force =    -0.05684826    0.03986771   -0.03526198
     atom  100 type  1   force =     0.05684828   -0.03986823   -0.03527810
     atom  101 type  3   force =    -0.00695076    0.00428864    0.00273844
     atom  102 type  3   force =     0.00695085   -0.00428870    0.00273821
     atom  103 type  3   force =    -0.00695076   -0.00428864    0.00273844
     atom  104 type  3   force =     0.00695085    0.00428870    0.00273821
     atom  105 type  3   force =     0.00572623    0.00047427    0.00336633
     atom  106 type  3   force =    -0.00572586   -0.00047380    0.00336680
     atom  107 type  3   force =     0.00572623   -0.00047427    0.00336633
     atom  108 type  3   force =    -0.00572586    0.00047380    0.00336680
     atom  109 type  3   force =     0.00359894   -0.00077637    0.00238944
     atom  110 type  3   force =    -0.00359882    0.00077634    0.00238916
     atom  111 type  3   force =     0.00359894    0.00077637    0.00238944
     atom  112 type  3   force =    -0.00359882   -0.00077634    0.00238916
     atom  113 type  3   force =    -0.00075665   -0.00347108   -0.00002369
     atom  114 type  3   force =     0.00075680    0.00347094   -0.00002386
     atom  115 type  3   force =    -0.00075665    0.00347108   -0.00002369
     atom  116 type  3   force =     0.00075680   -0.00347094   -0.00002386
     atom  117 type  3   force =    -0.00669422   -0.00028465   -0.00877779
     atom  118 type  3   force =     0.00669446    0.00028501   -0.00877759
     atom  119 type  3   force =    -0.00669422    0.00028465   -0.00877779
     atom  120 type  3   force =     0.00669446   -0.00028501   -0.00877759
     atom  121 type  3   force =    -0.00102409    0.00323124   -0.00354357
     atom  122 type  3   force =     0.00102413   -0.00323124   -0.00354376
     atom  123 type  3   force =    -0.00102409   -0.00323124   -0.00354357
     atom  124 type  3   force =     0.00102413    0.00323124   -0.00354376

     Total force =     0.460989     Total SCF correction =     0.000082


     Computing stress (Cartesian axis) and pressure

          total   stress  (Ry/bohr**3)                   (kbar)     P=   52.56
   0.00018141   0.00000000  -0.00000000         26.69      0.00     -0.00
   0.00000000   0.00072535   0.00000000          0.00    106.70      0.00
  -0.00000000   0.00000000   0.00016508         -0.00      0.00     24.28


     Writing output data file scf.save
 
     init_run     :     50.05s CPU     51.94s WALL (       1 calls)
     electrons    :   1726.49s CPU   1791.93s WALL (       1 calls)
     forces       :     25.72s CPU     26.11s WALL (       1 calls)
     stress       :    221.14s CPU    221.72s WALL (       1 calls)

     Called by init_run:
     wfcinit      :     41.10s CPU     42.74s WALL (       1 calls)
     potinit      :      3.00s CPU      3.06s WALL (       1 calls)

     Called by electrons:
     c_bands      :   1552.16s CPU   1607.38s WALL (      15 calls)
     sum_band     :    158.29s CPU    166.09s WALL (      15 calls)
     v_of_rho     :      2.51s CPU      2.75s WALL (      16 calls)
     newd         :      5.80s CPU      7.91s WALL (      16 calls)
     PAW_pot      :      6.75s CPU      6.76s WALL (      16 calls)
     mix_rho      :      0.71s CPU      0.77s WALL (      15 calls)

     Called by c_bands:
     init_us_2    :     11.80s CPU     11.85s WALL (     198 calls)
     cegterg      :   1511.92s CPU   1567.11s WALL (      90 calls)

     Called by sum_band:
     sum_band:bec :      0.09s CPU      0.09s WALL (      90 calls)
     addusdens    :      6.34s CPU      8.30s WALL (      15 calls)

     Called by *egterg:
     h_psi        :    804.19s CPU    841.28s WALL (     445 calls)
     s_psi        :    180.94s CPU    180.96s WALL (     445 calls)
     g_psi        :      5.79s CPU      5.79s WALL (     349 calls)
     cdiaghg      :    103.25s CPU    103.26s WALL (     439 calls)

     Called by h_psi:
     h_psi:pot    :    796.38s CPU    833.32s WALL (     445 calls)
     h_psi:calbec :    169.39s CPU    169.72s WALL (     445 calls)
     vloc_psi     :    446.15s CPU    482.73s WALL (     445 calls)
     add_vuspsi   :    180.84s CPU    180.86s WALL (     445 calls)

     General routines
     calbec       :    246.22s CPU    246.70s WALL (     565 calls)
     fft          :      1.32s CPU      1.73s WALL (     232 calls)
     fftw         :    469.76s CPU    511.86s WALL (  147836 calls)
 
     Parallel routines
     fft_scatter  :     94.72s CPU    132.10s WALL (  148068 calls)
 
     PWSCF        : 33m57.37s CPU    35m48.69s WALL

 
   This run was terminated on:   6:25:30   4Nov2017            

=------------------------------------------------------------------------------=
   JOB DONE.
=------------------------------------------------------------------------------=
