
     Program PWSCF v.6.1 (svn rev. 13369) starts on 13Dec2017 at  6:17: 2 

     This program is part of the open-source Quantum ESPRESSO suite
     for quantum simulation of materials; please cite
         "P. Giannozzi et al., J. Phys.:Condens. Matter 21 395502 (2009);
          URL http://www.quantum-espresso.org", 
     in publications or presentations arising from this work. More details at
     http://www.quantum-espresso.org/quote

     Parallel version (MPI), running on     8 processors
     R & G space division:  proc/nbgrp/npool/nimage =       8
     Waiting for input...
     Reading input from standard input

     Current dimensions of program PWSCF are:
     Max number of different atomic species (ntypx) = 10
     Max number of k-points (npk) =  40000
     Max angular momentum in pseudopotentials (lmaxx) =  3
               file C.pbe-n-kjpaw_psl.0.1.UPF: wavefunction(s)  2P renormalized
               file N.pbe-n-kjpaw_psl.0.1.UPF: wavefunction(s)  2P renormalized
               file H.pbe-kjpaw_psl.0.1.UPF: wavefunction(s)  1S renormalized
               file O.pbe-n-kjpaw_psl.0.1.UPF: wavefunction(s)  2P renormalized

     -------------------------------------
     Parameters for Dispersion Correction:
     -------------------------------------
       atom      VdW radius       C_6     

        C          2.744         60.710
        N          2.640         42.670
        H          1.892          4.857
        O          2.536         24.284

     Subspace diagonalization in iterative solution of the eigenvalue problem:
     a serial algorithm will be used

 
     Parallelization info
     --------------------
     sticks:   dense  smooth     PW     G-vecs:    dense   smooth      PW
     Min        1411    1411    369               142700   142700   19221
     Max        1412    1412    370               142702   142702   19225
     Sum       11295   11295   2955              1141609  1141609  153779
 


     bravais-lattice index     =            0
     lattice parameter (alat)  =      30.6158  a.u.
     unit-cell volume          =    8449.2654 (a.u.)^3
     number of atoms/cell      =          144
     number of atomic types    =            4
     number of electrons       =       400.00
     number of Kohn-Sham states=          240
     kinetic-energy cutoff     =     100.0000  Ry
     charge density cutoff     =     400.0000  Ry
     convergence threshold     =      1.0E-08
     mixing beta               =       0.5000
     number of iterations used =            8  plain     mixing
     Exchange-correlation      =  SLA  PW   PBX  PBC ( 1  4  3  4 0 0)

     celldm(1)=  30.615831  celldm(2)=   0.000000  celldm(3)=   0.000000
     celldm(4)=   0.000000  celldm(5)=   0.000000  celldm(6)=   0.000000

     crystal axes: (cart. coord. in units of alat)
               a(1) = (   1.000000   0.000000   0.000000 )  
               a(2) = (   0.000000   0.378565   0.000000 )  
               a(3) = (  -0.101330   0.000000   0.777751 )  

     reciprocal axes: (cart. coord. in units 2 pi/alat)
               b(1) = (  1.000000  0.000000  0.130286 )  
               b(2) = (  0.000000  2.641557  0.000000 )  
               b(3) = (  0.000000  0.000000  1.285758 )  


     PseudoPot. # 1 for  C read from file:
     /scratch/ahofstet/pseudo/C.pbe-n-kjpaw_psl.0.1.UPF
     MD5 check sum: 430fe95172b1e11ef3f8ed03bac87931
     Pseudo is Projector augmented-wave + core cor, Zval =  4.0
     Generated using "atomic" code by A. Dal Corso  v.5.0.99 svn rev. 10869
     Shape of augmentation charge: BESSEL
     Using radial grid of 1073 points,  4 beta functions with: 
                l(1) =   0
                l(2) =   0
                l(3) =   1
                l(4) =   1
     Q(r) pseudized with 0 coefficients 


     PseudoPot. # 2 for  N read from file:
     /scratch/ahofstet/pseudo/N.pbe-n-kjpaw_psl.0.1.UPF
     MD5 check sum: f73187c8b701007e77325f868c9291d7
     Pseudo is Projector augmented-wave + core cor, Zval =  5.0
     Generated using "atomic" code by A. Dal Corso  v.5.0.99 svn rev. 10869
     Shape of augmentation charge: PSQ
     Using radial grid of 1085 points,  4 beta functions with: 
                l(1) =   0
                l(2) =   0
                l(3) =   1
                l(4) =   1
     Q(r) pseudized with 0 coefficients 


     PseudoPot. # 3 for  H read from file:
     /scratch/ahofstet/pseudo/H.pbe-kjpaw_psl.0.1.UPF
     MD5 check sum: 94e484f906d9e9773b2f6e52662335b2
     Pseudo is Projector augmented-wave, Zval =  1.0
     Generated using "atomic" code by A. Dal Corso  v.5.0.99 svn rev. 10869
     Shape of augmentation charge: PSQ
     Using radial grid of  929 points,  2 beta functions with: 
                l(1) =   0
                l(2) =   0
     Q(r) pseudized with 0 coefficients 


     PseudoPot. # 4 for  O read from file:
     /scratch/ahofstet/pseudo/O.pbe-n-kjpaw_psl.0.1.UPF
     MD5 check sum: 3f94a2996a3169367d6eb21d9b593f20
     Pseudo is Projector augmented-wave + core cor, Zval =  6.0
     Generated using "atomic" code by A. Dal Corso  v.5.0.99 svn rev. 10869
     Shape of augmentation charge: BESSEL
     Using radial grid of 1095 points,  4 beta functions with: 
                l(1) =   0
                l(2) =   0
                l(3) =   1
                l(4) =   1
     Q(r) pseudized with 0 coefficients 


     atomic species   valence    mass     pseudopotential
        C              4.00    12.01070      C( 1.00)
        N              5.00    14.00670      N( 1.00)
        H              1.00     1.00794      H( 1.00)
        O              6.00    15.99940      O( 1.00)

      2 Sym. Ops., with inversion, found



   Cartesian axes

     site n.     atom                  positions (alat units)
         1           N   tau(   1) = (   0.6502337   0.1531560   0.0465912  )
         2           N   tau(   2) = (   0.2990991   0.1531490   0.3422877  )
         3           N   tau(   3) = (   0.1502274   0.3424588   0.0465867  )
         4           N   tau(   4) = (   0.7990971   0.3424906   0.3422859  )
         5           N   tau(   5) = (   0.2484365   0.2254085   0.7311603  )
         6           N   tau(   6) = (   0.5995711   0.2254155   0.4354638  )
         7           N   tau(   7) = (   0.7484429   0.0361058   0.7311648  )
         8           N   tau(   8) = (   0.0995731   0.0360739   0.4354656  )
         9           N   tau(   9) = (   0.5316569   0.0907341   0.0736745  )
        10           N   tau(  10) = (   0.4176810   0.0907374   0.3151977  )
        11           N   tau(  11) = (   0.0316704   0.2800063   0.0736569  )
        12           N   tau(  12) = (   0.9176385   0.2800043   0.3152324  )
        13           N   tau(  13) = (   0.3670133   0.2878305   0.7040770  )
        14           N   tau(  14) = (   0.4809892   0.2878271   0.4625538  )
        15           N   tau(  15) = (   0.8669998   0.0985583   0.7040945  )
        16           N   tau(  16) = (  -0.0189683   0.0985603   0.4625191  )
        17           H   tau(  17) = (   0.4402817   0.0429980   0.0735481  )
        18           H   tau(  18) = (   0.5090410   0.0430102   0.3153273  )
        19           H   tau(  19) = (  -0.0597459   0.2322580   0.0735444  )
        20           H   tau(  20) = (   1.0091227   0.2322258   0.3153336  )
        21           H   tau(  21) = (   0.4583885   0.3355665   0.7042034  )
        22           H   tau(  22) = (   0.3896292   0.3355543   0.4624242  )
        23           H   tau(  23) = (   0.9584161   0.1463066   0.7042071  )
        24           H   tau(  24) = (  -0.1104525   0.1463388   0.4624179  )
        25           N   tau(  25) = (   0.5258576   0.1711093   0.0953878  )
        26           N   tau(  26) = (   0.4234763   0.1711116   0.2934878  )
        27           N   tau(  27) = (   0.0258454   0.3603767   0.0953798  )
        28           N   tau(  28) = (   0.9234933   0.3603623   0.2934928  )
        29           N   tau(  29) = (   0.3728126   0.2074552   0.6823637  )
        30           N   tau(  30) = (   0.4751939   0.2074530   0.4842637  )
        31           N   tau(  31) = (   0.8728248   0.0181879   0.6823717  )
        32           N   tau(  32) = (  -0.0248231   0.0182022   0.4842587  )
        33           C   tau(  33) = (   0.6085640   0.0814836   0.0438696  )
        34           C   tau(  34) = (   0.3407837   0.0814727   0.3450024  )
        35           C   tau(  35) = (   0.1085745   0.2707875   0.0438586  )
        36           C   tau(  36) = (   0.8407497   0.2708035   0.3450226  )
        37           C   tau(  37) = (   0.2901062   0.2970809   0.7338819  )
        38           C   tau(  38) = (   0.5578866   0.2970918   0.4327491  )
        39           C   tau(  39) = (   0.7900958   0.1077771   0.7338928  )
        40           C   tau(  40) = (   0.0579205   0.1077610   0.4327289  )
        41           N   tau(  41) = (   0.5201884   0.3609201   0.7024127  )
        42           N   tau(  42) = (   0.3278247   0.3609145   0.4642108  )
        43           N   tau(  43) = (   0.0202072   0.1716465   0.7024027  )
        44           N   tau(  44) = (   0.8277696   0.1716608   0.4642332  )
        45           N   tau(  45) = (   0.3784818   0.0176444   0.0753388  )
        46           N   tau(  46) = (   0.5708455   0.0176501   0.3135407  )
        47           N   tau(  47) = (   0.8784631   0.2069180   0.0753488  )
        48           N   tau(  48) = (   0.0709007   0.2069037   0.3135183  )
        49           N   tau(  49) = (   0.5966206   0.2075475   0.0789190  )
        50           N   tau(  50) = (   0.3527123   0.2075447   0.3099601  )
        51           N   tau(  51) = (   0.0966009   0.0182708   0.0789192  )
        52           N   tau(  52) = (   0.8527475   0.0182823   0.3099404  )
        53           N   tau(  53) = (   0.3020497   0.1710171   0.6988325  )
        54           N   tau(  54) = (   0.5459579   0.1710198   0.4677914  )
        55           N   tau(  55) = (   0.8020693   0.3602938   0.6988323  )
        56           N   tau(  56) = (   0.0459227   0.3602823   0.4678111  )
        57           C   tau(  57) = (   0.5762306   0.2947362   0.6713930  )
        58           C   tau(  58) = (   0.2717688   0.2947443   0.4952315  )
        59           C   tau(  59) = (   0.0762213   0.1054354   0.6713828  )
        60           C   tau(  60) = (   0.7717897   0.1054162   0.4952502  )
        61           C   tau(  61) = (   0.3224397   0.0838284   0.1063585  )
        62           C   tau(  62) = (   0.6269014   0.0838202   0.2825200  )
        63           C   tau(  63) = (   0.8224489   0.2731291   0.1063687  )
        64           C   tau(  64) = (   0.1268805   0.2731483   0.2825013  )
        65           H   tau(  65) = (   0.5511196   0.2712370   0.6131090  )
        66           H   tau(  66) = (   0.2968759   0.2712350   0.5535134  )
        67           H   tau(  67) = (   0.0511002   0.0819567   0.6130934  )
        68           H   tau(  68) = (   0.7969224   0.0819583   0.5535447  )
        69           H   tau(  69) = (   0.3475507   0.1073276   0.1646425  )
        70           H   tau(  70) = (   0.6017943   0.1073295   0.2242381  )
        71           H   tau(  71) = (   0.8475701   0.2966078   0.1646581  )
        72           H   tau(  72) = (   0.1017478   0.2966062   0.2242068  )
        73           H   tau(  73) = (   0.5783443   0.2451201   0.7171421  )
        74           H   tau(  74) = (   0.2696515   0.2451258   0.4494882  )
        75           H   tau(  75) = (   0.0783239   0.0558237   0.7171413  )
        76           H   tau(  76) = (   0.7697001   0.0558147   0.4494755  )
        77           H   tau(  77) = (   0.3203260   0.1334445   0.0606094  )
        78           H   tau(  78) = (   0.6290187   0.1334387   0.3282633  )
        79           H   tau(  79) = (   0.8203463   0.3227408   0.0606101  )
        80           H   tau(  80) = (   0.1289702   0.3227499   0.3282760  )
        81           H   tau(  81) = (   0.6378340   0.3215995   0.6628562  )
        82           H   tau(  82) = (   0.2101702   0.3216158   0.5037679  )
        83           H   tau(  83) = (   0.1378347   0.1322799   0.6628399  )
        84           H   tau(  84) = (   0.7101640   0.1322382   0.5037966  )
        85           H   tau(  85) = (   0.2608362   0.0569650   0.1148953  )
        86           H   tau(  86) = (   0.6885000   0.0569487   0.2739836  )
        87           H   tau(  87) = (   0.7608356   0.2462847   0.1149116  )
        88           H   tau(  88) = (   0.1885062   0.2463264   0.2739549  )
        89           C   tau(  89) = (   0.5197634   0.0534210   0.6442715  )
        90           C   tau(  90) = (   0.3282330   0.0534175   0.5223481  )
        91           C   tau(  91) = (   0.0197450   0.2427095   0.6442589  )
        92           C   tau(  92) = (   0.8282769   0.2427204   0.5223817  )
        93           C   tau(  93) = (   0.3789068   0.3251436   0.1334800  )
        94           C   tau(  94) = (   0.5704372   0.3251470   0.2554034  )
        95           C   tau(  95) = (   0.8789253   0.1358550   0.1334926  )
        96           C   tau(  96) = (   0.0703933   0.1358441   0.2553698  )
        97           H   tau(  97) = (   0.5815043   0.0813128   0.6434340  )
        98           H   tau(  98) = (   0.2664904   0.0813017   0.5231831  )
        99           H   tau(  99) = (   0.0814806   0.2706171   0.6434119  )
       100           H   tau( 100) = (   0.7665500   0.2706479   0.5232400  )
       101           H   tau( 101) = (   0.3171659   0.2972518   0.1343175  )
       102           H   tau( 102) = (   0.6321798   0.2972628   0.2545684  )
       103           H   tau( 103) = (   0.8171897   0.1079475   0.1343395  )
       104           H   tau( 104) = (   0.1321202   0.1079166   0.2545115  )
       105           H   tau( 105) = (   0.4737192   0.0990886   0.6634141  )
       106           H   tau( 106) = (   0.3742736   0.0990892   0.5032125  )
       107           H   tau( 107) = (  -0.0263065   0.2883661   0.6634194  )
       108           H   tau( 108) = (   0.8743380   0.2883621   0.5032062  )
       109           H   tau( 109) = (   0.4249510   0.2794759   0.1143374  )
       110           H   tau( 110) = (   0.5243966   0.2794753   0.2745390  )
       111           H   tau( 111) = (   0.9249767   0.0901984   0.1143321  )
       112           H   tau( 112) = (   0.0243323   0.0902024   0.2745453  )
       113           H   tau( 113) = (   0.5047442   0.0295213   0.5827625  )
       114           H   tau( 114) = (   0.3432557   0.0295248   0.5838599  )
       115           H   tau( 115) = (   0.0047351   0.2187980   0.5827521  )
       116           H   tau( 116) = (   0.8432771   0.2187897   0.5838878  )
       117           H   tau( 117) = (   0.3939260   0.3490433   0.1949889  )
       118           H   tau( 118) = (   0.5554146   0.3490397   0.1938916  )
       119           H   tau( 119) = (   0.8939351   0.1597665   0.1949994  )
       120           H   tau( 120) = (   0.0553931   0.1597749   0.1938637  )
       121           C   tau( 121) = (   0.6456033   0.0041484   0.0126697  )
       122           C   tau( 122) = (   0.3037245   0.0041501   0.3762078  )
       123           C   tau( 123) = (   0.1456023   0.1934284   0.0126661  )
       124           C   tau( 124) = (   0.8037274   0.1934338   0.3762077  )
       125           C   tau( 125) = (   0.2530669   0.3744162   0.7650818  )
       126           C   tau( 126) = (   0.5949457   0.3744145   0.4015437  )
       127           C   tau( 127) = (   0.7530679   0.1851362   0.7650854  )
       128           C   tau( 128) = (   0.0949428   0.1851307   0.4015438  )
       129           H   tau( 129) = (   0.6270842   0.3285622   0.0500291  )
       130           H   tau( 130) = (   0.3222278   0.3285563   0.3388436  )
       131           H   tau( 131) = (   0.1270431   0.1392952   0.0500224  )
       132           H   tau( 132) = (   0.8223473   0.1393120   0.3388571  )
       133           H   tau( 133) = (   0.2715860   0.0500024   0.7277224  )
       134           H   tau( 134) = (   0.5764424   0.0500083   0.4389079  )
       135           H   tau( 135) = (   0.7716271   0.2392694   0.7277291  )
       136           H   tau( 136) = (   0.0763229   0.2392525   0.4388944  )
       137           H   tau( 137) = (   0.7130568   0.0107066   0.0123987  )
       138           H   tau( 138) = (   0.2362770   0.0107237   0.3764911  )
       139           H   tau( 139) = (   0.2130587   0.1999560   0.0124196  )
       140           H   tau( 140) = (   0.7362704   0.1999067   0.3764189  )
       141           H   tau( 141) = (   0.1856134   0.3678579   0.7653528  )
       142           H   tau( 142) = (   0.6623933   0.3678409   0.4012604  )
       143           H   tau( 143) = (   0.6856115   0.1786085   0.7653319  )
       144           H   tau( 144) = (   0.1623999   0.1786579   0.4013326  )

     number of k points=     8
                       cart. coord. in units 2pi/alat
        k(    1) = (   0.0000000   0.0000000   0.0000000), wk =   0.1666667
        k(    2) = (   0.0000000   0.0000000  -0.6428789), wk =   0.1666667
        k(    3) = (   0.0000000   0.8805191   0.0000000), wk =   0.3333333
        k(    4) = (   0.0000000   0.8805191  -0.6428789), wk =   0.3333333
        k(    5) = (  -0.5000000   0.0000000  -0.0651428), wk =   0.1666667
        k(    6) = (  -0.5000000   0.0000000  -0.7080216), wk =   0.1666667
        k(    7) = (  -0.5000000   0.8805191  -0.0651428), wk =   0.3333333
        k(    8) = (  -0.5000000   0.8805191  -0.7080216), wk =   0.3333333

     Dense  grid:  1141609 G-vectors     FFT dimensions: ( 200,  75, 160)

     Estimated max dynamical RAM per process >    1421.33MB

     Estimated total allocated dynamical RAM >   11370.61MB

     Check: negative/imaginary core charge=   -0.000002    0.000000

     Initial potential from superposition of free atoms

     starting charge  399.99769, renormalised to  400.00000
     Starting wfc are  360 randomized atomic wfcs
     Checking if some PAW data can be deallocated... 

     total cpu time spent up to now is      102.1 secs

     per-process dynamical memory:   942.3 Mb

     Self-consistent Calculation

     iteration #  1     ecut=   100.00 Ry     beta=0.50
     Davidson diagonalization with overlap
     ethr =  1.00E-02,  avg # of iterations =  4.0

     total cpu time spent up to now is      404.8 secs

     total energy              =   -1802.52477609 Ry
     Harris-Foulkes estimate   =   -1807.92791299 Ry
     estimated scf accuracy    <      11.41023037 Ry

     iteration #  2     ecut=   100.00 Ry     beta=0.50
     Davidson diagonalization with overlap
     ethr =  2.85E-03,  avg # of iterations =  2.0

     total cpu time spent up to now is      558.6 secs

     total energy              =   -1802.93046514 Ry
     Harris-Foulkes estimate   =   -1803.48055490 Ry
     estimated scf accuracy    <       1.34038753 Ry

     iteration #  3     ecut=   100.00 Ry     beta=0.50
     Davidson diagonalization with overlap
     ethr =  3.35E-04,  avg # of iterations =  5.2

     total cpu time spent up to now is      905.0 secs

     total energy              =   -1803.90387071 Ry
     Harris-Foulkes estimate   =   -1804.29301805 Ry
     estimated scf accuracy    <       1.15523521 Ry

     iteration #  4     ecut=   100.00 Ry     beta=0.50
     Davidson diagonalization with overlap
     ethr =  2.89E-04,  avg # of iterations =  4.4

     total cpu time spent up to now is     1062.2 secs

     total energy              =   -1803.62725219 Ry
     Harris-Foulkes estimate   =   -1803.94209270 Ry
     estimated scf accuracy    <       0.44529124 Ry

     iteration #  5     ecut=   100.00 Ry     beta=0.50
     Davidson diagonalization with overlap
     ethr =  1.11E-04,  avg # of iterations =  4.9

     total cpu time spent up to now is     1403.4 secs

     total energy              =   -1803.93063522 Ry
     Harris-Foulkes estimate   =   -1804.35167173 Ry
     estimated scf accuracy    <       1.31801125 Ry

     iteration #  6     ecut=   100.00 Ry     beta=0.50
     Davidson diagonalization with overlap
     ethr =  1.11E-04,  avg # of iterations =  3.8

     total cpu time spent up to now is     1561.7 secs

     total energy              =   -1803.82700418 Ry
     Harris-Foulkes estimate   =   -1803.96684026 Ry
     estimated scf accuracy    <       0.52585444 Ry

     iteration #  7     ecut=   100.00 Ry     beta=0.50
     Davidson diagonalization with overlap
     ethr =  1.11E-04,  avg # of iterations =  3.1

     total cpu time spent up to now is     1747.8 secs

     total energy              =   -1803.90061143 Ry
     Harris-Foulkes estimate   =   -1803.92513950 Ry
     estimated scf accuracy    <       0.05293345 Ry

     iteration #  8     ecut=   100.00 Ry     beta=0.50
     Davidson diagonalization with overlap
     ethr =  1.32E-05,  avg # of iterations =  9.5

     total cpu time spent up to now is     2048.2 secs

     total energy              =   -1803.92130219 Ry
     Harris-Foulkes estimate   =   -1803.92140518 Ry
     estimated scf accuracy    <       0.00119279 Ry

     iteration #  9     ecut=   100.00 Ry     beta=0.50
     Davidson diagonalization with overlap
     ethr =  2.98E-07,  avg # of iterations =  4.1

     total cpu time spent up to now is     2303.9 secs

     total energy              =   -1803.92106545 Ry
     Harris-Foulkes estimate   =   -1803.92189678 Ry
     estimated scf accuracy    <       0.00126250 Ry

     iteration # 10     ecut=   100.00 Ry     beta=0.50
     Davidson diagonalization with overlap
     ethr =  2.98E-07,  avg # of iterations =  4.0

     total cpu time spent up to now is     2533.3 secs

     total energy              =   -1803.92143584 Ry
     Harris-Foulkes estimate   =   -1803.92176010 Ry
     estimated scf accuracy    <       0.00075598 Ry

     iteration # 11     ecut=   100.00 Ry     beta=0.50
     Davidson diagonalization with overlap
     ethr =  1.89E-07,  avg # of iterations =  2.0

     total cpu time spent up to now is     2683.3 secs

     total energy              =   -1803.92140482 Ry
     Harris-Foulkes estimate   =   -1803.92147957 Ry
     estimated scf accuracy    <       0.00017763 Ry

     iteration # 12     ecut=   100.00 Ry     beta=0.50
     Davidson diagonalization with overlap
     ethr =  4.44E-08,  avg # of iterations =  4.0

     total cpu time spent up to now is     2943.5 secs

     total energy              =   -1803.92153246 Ry
     Harris-Foulkes estimate   =   -1803.92154103 Ry
     estimated scf accuracy    <       0.00003193 Ry

     iteration # 13     ecut=   100.00 Ry     beta=0.50
     Davidson diagonalization with overlap
     ethr =  7.98E-09,  avg # of iterations =  1.0

     total cpu time spent up to now is     3087.4 secs

     total energy              =   -1803.92152603 Ry
     Harris-Foulkes estimate   =   -1803.92153320 Ry
     estimated scf accuracy    <       0.00001673 Ry

     iteration # 14     ecut=   100.00 Ry     beta=0.50
     Davidson diagonalization with overlap
     ethr =  4.18E-09,  avg # of iterations =  3.0

     total cpu time spent up to now is     3297.2 secs

     total energy              =   -1803.92153118 Ry
     Harris-Foulkes estimate   =   -1803.92153132 Ry
     estimated scf accuracy    <       0.00000045 Ry

     iteration # 15     ecut=   100.00 Ry     beta=0.50
     Davidson diagonalization with overlap
     ethr =  1.13E-10,  avg # of iterations =  3.9

     total cpu time spent up to now is     3538.5 secs

     total energy              =   -1803.92153132 Ry
     Harris-Foulkes estimate   =   -1803.92153133 Ry
     estimated scf accuracy    <       0.00000010 Ry

     iteration # 16     ecut=   100.00 Ry     beta=0.50
     Davidson diagonalization with overlap
     ethr =  2.56E-11,  avg # of iterations =  3.9

     total cpu time spent up to now is     3779.5 secs

     total energy              =   -1803.92153131 Ry
     Harris-Foulkes estimate   =   -1803.92153136 Ry
     estimated scf accuracy    <       0.00000010 Ry

     iteration # 17     ecut=   100.00 Ry     beta=0.50
     Davidson diagonalization with overlap
     ethr =  2.56E-11,  avg # of iterations =  1.0

     total cpu time spent up to now is     3923.5 secs

     total energy              =   -1803.92153132 Ry
     Harris-Foulkes estimate   =   -1803.92153132 Ry
     estimated scf accuracy    <       0.00000002 Ry

     iteration # 18     ecut=   100.00 Ry     beta=0.50
     Davidson diagonalization with overlap
     ethr =  4.49E-12,  avg # of iterations =  4.0

     total cpu time spent up to now is     4214.9 secs

     total energy              =   -1803.92153134 Ry
     Harris-Foulkes estimate   =   -1803.92153134 Ry
     estimated scf accuracy    <       0.00000001 Ry

     iteration # 19     ecut=   100.00 Ry     beta=0.50
     Davidson diagonalization with overlap
     ethr =  2.81E-12,  avg # of iterations =  1.0

     total cpu time spent up to now is     4358.4 secs

     End of self-consistent calculation

          k = 0.0000 0.0000 0.0000 (142747 PWs)   bands (ev):

   -21.0496 -21.0477 -21.0458 -21.0442 -21.0044 -21.0031 -21.0023 -21.0009
   -18.2371 -18.2343 -18.2309 -18.2284 -18.2276 -18.2269 -18.2221 -18.2202
   -15.8390 -15.8335 -15.8270 -15.8270 -15.8263 -15.8225 -15.8224 -15.8222
   -14.6696 -14.6623 -14.6566 -14.6494 -14.6349 -14.6345 -14.6250 -14.6247
   -11.9734 -11.9523 -11.9207 -11.8952 -11.8899 -11.8844 -11.8656 -11.8577
   -11.6227 -11.5985 -11.5818 -11.5698 -11.5616 -11.5604 -11.5301 -11.5295
    -9.9839  -9.9144  -9.9067  -9.8831  -9.7996  -9.7340  -9.6754  -9.6491
    -8.8129  -8.7835  -8.7717  -8.7682  -8.7463  -8.7422  -8.7322  -8.7079
    -8.5195  -8.5036  -8.4490  -8.4290  -8.1282  -8.1188  -7.9969  -7.9786
    -7.3251  -7.2793  -7.1625  -7.1296  -6.8663  -6.8640  -6.7817  -6.7536
    -6.2112  -6.1484  -6.1264  -6.0873  -6.0097  -5.9716  -5.9315  -5.9233
    -5.7449  -5.6840  -5.6765  -5.6355  -5.6258  -5.6244  -5.5984  -5.5689
    -4.8547  -4.8518  -4.8205  -4.7993  -4.6398  -4.6343  -4.6138  -4.5650
    -4.4917  -4.3529  -4.2090  -4.1960  -4.1920  -4.1810  -4.1456  -4.1088
    -3.9445  -3.8966  -3.8212  -3.7602  -3.6963  -3.6729  -3.6594  -3.6059
    -3.5841  -3.5697  -3.5662  -3.5526  -3.5488  -3.5150  -3.4843  -3.4186
    -3.4179  -3.3514  -3.3038  -3.3036  -3.3002  -3.2141  -3.1762  -3.1273
    -3.1051  -3.0358  -3.0344  -3.0056  -3.0017  -2.9656  -2.9351  -2.9173
    -2.8438  -2.8393  -2.8181  -2.7913  -2.7707  -2.7607  -2.7413  -2.6909
    -2.5990  -2.4955  -2.4728  -2.4696  -2.4409  -2.2396  -2.1069  -2.0765
    -0.7673  -0.7416  -0.7325  -0.7162  -0.7114  -0.6652  -0.6238  -0.6191
    -0.4862  -0.4827  -0.4716  -0.4004  -0.3864  -0.2923  -0.2832  -0.2656
    -0.2542  -0.2513  -0.2493  -0.2450  -0.2448  -0.2364  -0.1283  -0.1123
    -0.0369  -0.0322  -0.0189   0.0011   0.0144   0.0310   0.0339   0.0356
     0.0456   0.0460   0.0872   0.1278   0.1301   0.1488   0.2121   0.2782
     5.5217   5.5864   5.6262   5.6642   5.6779   5.6821   5.7104   5.7225
     5.7282   5.7601   5.8106   5.8225   5.8287   5.8404   5.8476   5.9895
     6.6318   6.6692   6.7287   6.8229   7.3000   7.5244   7.6444   7.6884
     7.6947   7.7667   7.9294   7.9557   7.9998   8.0017   8.0275   8.1375
     8.2148   8.3197   8.4663   8.4967   8.5212   8.5279   8.5695   8.7285

          k = 0.0000 0.0000-0.6429 (142754 PWs)   bands (ev):

   -21.0479 -21.0476 -21.0461 -21.0459 -21.0035 -21.0031 -21.0020 -21.0018
   -18.2351 -18.2348 -18.2325 -18.2321 -18.2243 -18.2241 -18.2224 -18.2222
   -15.8370 -15.8365 -15.8267 -15.8267 -15.8244 -15.8241 -15.8223 -15.8223
   -14.6661 -14.6659 -14.6533 -14.6530 -14.6346 -14.6345 -14.6249 -14.6247
   -11.9370 -11.9370 -11.9167 -11.9167 -11.8996 -11.8996 -11.8709 -11.8708
   -11.6016 -11.6014 -11.5880 -11.5879 -11.5446 -11.5445 -11.5402 -11.5399
    -9.9442  -9.9440  -9.8983  -9.8979  -9.7668  -9.7667  -9.6624  -9.6624
    -8.7800  -8.7798  -8.7789  -8.7789  -8.7372  -8.7370  -8.7369  -8.7368
    -8.5121  -8.5115  -8.4392  -8.4388  -8.1236  -8.1232  -7.9875  -7.9872
    -7.2535  -7.2534  -7.2141  -7.2140  -6.8121  -6.8120  -6.7999  -6.7998
    -6.1729  -6.1728  -6.1242  -6.1240  -5.9726  -5.9725  -5.9490  -5.9490
    -5.7137  -5.7137  -5.6651  -5.6650  -5.6154  -5.6154  -5.5926  -5.5926
    -4.8281  -4.8279  -4.8255  -4.8254  -4.5841  -4.5838  -4.5666  -4.5665
    -4.5000  -4.4999  -4.2496  -4.2495  -4.1307  -4.1307  -4.1005  -4.1005
    -3.9214  -3.9212  -3.7904  -3.7904  -3.6837  -3.6837  -3.6235  -3.6234
    -3.5976  -3.5975  -3.5859  -3.5858  -3.5311  -3.5309  -3.4961  -3.4960
    -3.3346  -3.3339  -3.2392  -3.2387  -3.2381  -3.2381  -3.1582  -3.1581
    -3.0921  -3.0921  -3.0465  -3.0465  -2.9770  -2.9763  -2.9545  -2.9541
    -2.8451  -2.8445  -2.8166  -2.8163  -2.7893  -2.7890  -2.7324  -2.7319
    -2.5053  -2.5053  -2.4737  -2.4735  -2.3365  -2.3364  -2.0866  -2.0864
    -0.7341  -0.7339  -0.7337  -0.7332  -0.6748  -0.6744  -0.6505  -0.6500
    -0.4829  -0.4827  -0.4290  -0.4286  -0.3475  -0.3471  -0.2762  -0.2761
    -0.2541  -0.2541  -0.2514  -0.2512  -0.2405  -0.2404  -0.0718  -0.0716
    -0.0642  -0.0642  -0.0097  -0.0096   0.0125   0.0126   0.0328   0.0328
     0.0386   0.0386   0.0956   0.0956   0.1751   0.1751   0.2361   0.2362
     5.5860   5.5863   5.6393   5.6396   5.6675   5.6680   5.7035   5.7042
     5.7564   5.7565   5.8201   5.8208   5.8309   5.8317   5.9010   5.9010
     6.6484   6.6485   6.7533   6.7533   7.5282   7.5283   7.6512   7.6513
     7.7089   7.7090   7.8084   7.8085   8.0575   8.0577   8.1194   8.1196
     8.3862   8.3863   8.4467   8.4468   8.4708   8.4709   8.6414   8.6419

          k = 0.0000 0.8805 0.0000 (142659 PWs)   bands (ev):

   -21.0422 -21.0411 -21.0392 -21.0382 -21.0056 -21.0048 -21.0030 -21.0021
   -18.2414 -18.2396 -18.2332 -18.2321 -18.2300 -18.2267 -18.2239 -18.2216
   -15.8407 -15.8367 -15.8362 -15.8329 -15.8271 -15.8252 -15.8226 -15.8206
   -14.6902 -14.6835 -14.6820 -14.6695 -14.6653 -14.6582 -14.6542 -14.6531
   -11.9257 -11.9052 -11.8725 -11.8628 -11.8553 -11.8478 -11.8415 -11.8248
   -11.6311 -11.6255 -11.5998 -11.5867 -11.5811 -11.5796 -11.5711 -11.5663
    -9.9367  -9.9321  -9.9029  -9.9014  -9.7191  -9.7029  -9.6926  -9.6694
    -8.7505  -8.7380  -8.7342  -8.7184  -8.6916  -8.6768  -8.6736  -8.6630
    -8.4631  -8.4500  -8.4226  -8.4082  -8.0335  -8.0060  -7.9516  -7.9311
    -7.1992  -7.1847  -7.0120  -7.0060  -6.7680  -6.7527  -6.7404  -6.7337
    -6.0809  -6.0634  -6.0494  -5.9991  -5.9940  -5.9712  -5.9401  -5.9199
    -5.8851  -5.8811  -5.8466  -5.8350  -5.8143  -5.7558  -5.7353  -5.7299
    -4.9502  -4.9248  -4.8800  -4.8676  -4.7631  -4.6885  -4.6691  -4.6506
    -4.5485  -4.5294  -4.4851  -4.4783  -4.2784  -4.2572  -4.2111  -4.2052
    -3.9832  -3.9388  -3.9041  -3.8966  -3.7766  -3.7679  -3.7477  -3.6886
    -3.6244  -3.5833  -3.5593  -3.5211  -3.5086  -3.4990  -3.4868  -3.4330
    -3.2947  -3.2802  -3.2755  -3.2665  -3.2619  -3.2415  -3.1937  -3.1548
    -3.1028  -3.0877  -3.0854  -3.0563  -3.0503  -2.9274  -2.9227  -2.8934
    -2.8727  -2.8702  -2.8629  -2.8515  -2.8378  -2.8151  -2.7943  -2.7880
    -2.3951  -2.3347  -2.3150  -2.2817  -2.2787  -2.2284  -2.1294  -2.0725
    -0.8076  -0.8029  -0.7949  -0.7847  -0.6909  -0.6778  -0.6146  -0.6130
    -0.5150  -0.4706  -0.4637  -0.4527  -0.4201  -0.4025  -0.4017  -0.3243
    -0.2660  -0.2573  -0.2307  -0.2018  -0.1527  -0.1448  -0.1235  -0.0893
    -0.0326   0.0395   0.0434   0.0700   0.0869   0.1217   0.1414   0.1562
     0.1865   0.1890   0.2001   0.2697   0.2810   0.3118   0.3212   0.3473
     5.4382   5.5194   5.5257   5.5422   5.5473   5.6181   5.6372   5.7093
     5.8233   5.8501   5.8537   5.8871   5.9125   5.9651   6.0023   6.0276
     6.6758   6.8207   6.8574   6.9416   7.0227   7.2119   7.2263   7.3365
     7.6547   7.7115   7.7637   7.9114   7.9568   7.9590   8.0825   8.1560
     8.2581   8.3147   8.4094   8.4302   8.5018   8.6153   8.6289   8.6561

          k = 0.0000 0.8805-0.6429 (142730 PWs)   bands (ev):

   -21.0410 -21.0406 -21.0398 -21.0396 -21.0045 -21.0040 -21.0034 -21.0033
   -18.2385 -18.2378 -18.2369 -18.2367 -18.2263 -18.2258 -18.2233 -18.2232
   -15.8392 -15.8388 -15.8351 -15.8347 -15.8248 -15.8244 -15.8228 -15.8224
   -14.6855 -14.6852 -14.6764 -14.6762 -14.6620 -14.6618 -14.6545 -14.6544
   -11.8962 -11.8961 -11.8936 -11.8935 -11.8417 -11.8417 -11.8392 -11.8392
   -11.6161 -11.6160 -11.6054 -11.6052 -11.5765 -11.5763 -11.5704 -11.5703
    -9.9192  -9.9190  -9.9168  -9.9165  -9.7118  -9.7118  -9.6812  -9.6811
    -8.7365  -8.7361  -8.7348  -8.7344  -8.6771  -8.6768  -8.6749  -8.6747
    -8.4573  -8.4563  -8.4161  -8.4152  -8.0195  -8.0190  -7.9412  -7.9407
    -7.1105  -7.1104  -7.1040  -7.1039  -6.7472  -6.7471  -6.7384  -6.7384
    -6.0434  -6.0433  -6.0266  -6.0264  -6.0048  -6.0047  -5.9426  -5.9426
    -5.8762  -5.8761  -5.8617  -5.8616  -5.7783  -5.7782  -5.7312  -5.7312
    -4.9225  -4.9224  -4.9009  -4.9009  -4.7237  -4.7237  -4.6600  -4.6597
    -4.4556  -4.4555  -4.4411  -4.4410  -4.3057  -4.3054  -4.2815  -4.2813
    -3.9411  -3.9409  -3.9345  -3.9343  -3.7608  -3.7605  -3.7338  -3.7335
    -3.5795  -3.5792  -3.5647  -3.5644  -3.4891  -3.4890  -3.4770  -3.4770
    -3.2983  -3.2982  -3.2482  -3.2481  -3.1880  -3.1873  -3.1457  -3.1451
    -3.0547  -3.0545  -3.0511  -3.0510  -2.9938  -2.9937  -2.9848  -2.9848
    -2.9359  -2.9358  -2.8532  -2.8529  -2.8376  -2.8374  -2.7780  -2.7777
    -2.3619  -2.3618  -2.3002  -2.3001  -2.2537  -2.2534  -2.1003  -2.1002
    -0.8009  -0.8009  -0.7927  -0.7927  -0.6588  -0.6583  -0.6525  -0.6520
    -0.4804  -0.4802  -0.4322  -0.4319  -0.4315  -0.4312  -0.3807  -0.3804
    -0.2572  -0.2571  -0.1887  -0.1884  -0.1572  -0.1570  -0.1146  -0.1143
    -0.0283  -0.0281   0.0573   0.0575   0.1347   0.1347   0.1434   0.1435
     0.2087   0.2089   0.2240   0.2241   0.3018   0.3019   0.3218   0.3219
     5.4743   5.4749   5.5289   5.5294   5.5954   5.5961   5.6654   5.6662
     5.8310   5.8315   5.8629   5.8633   5.9651   5.9656   6.0035   6.0039
     6.7517   6.7517   6.8871   6.8872   7.1411   7.1411   7.2895   7.2895
     7.6736   7.6738   7.7739   7.7739   8.0372   8.0375   8.0676   8.0679
     8.3781   8.3782   8.3902   8.3903   8.5160   8.5161   8.6112   8.6115

          k =-0.5000 0.0000-0.0651 (142794 PWs)   bands (ev):

   -21.0488 -21.0485 -21.0452 -21.0448 -21.0039 -21.0035 -21.0017 -21.0015
   -18.2344 -18.2338 -18.2333 -18.2329 -18.2237 -18.2237 -18.2229 -18.2228
   -15.8338 -15.8337 -15.8299 -15.8298 -15.8247 -15.8247 -15.8218 -15.8217
   -14.6641 -14.6640 -14.6570 -14.6569 -14.6291 -14.6290 -14.6285 -14.6284
   -11.9660 -11.9654 -11.9000 -11.8998 -11.8928 -11.8928 -11.8614 -11.8613
   -11.6142 -11.6129 -11.5796 -11.5789 -11.5430 -11.5423 -11.5417 -11.5415
    -9.9593  -9.9589  -9.8986  -9.8979  -9.7278  -9.7278  -9.6882  -9.6882
    -8.8023  -8.8018  -8.7631  -8.7627  -8.7512  -8.7509  -8.7163  -8.7157
    -8.4920  -8.4910  -8.4746  -8.4736  -8.0553  -8.0553  -8.0409  -8.0408
    -7.3038  -7.3036  -7.1474  -7.1471  -6.8640  -6.8638  -6.7657  -6.7656
    -6.1829  -6.1827  -6.1076  -6.1075  -5.9896  -5.9893  -5.9309  -5.9307
    -5.7059  -5.7054  -5.6612  -5.6611  -5.6224  -5.6221  -5.5839  -5.5834
    -4.8541  -4.8536  -4.8172  -4.8167  -4.6028  -4.6023  -4.5889  -4.5888
    -4.4219  -4.4216  -4.3163  -4.3162  -4.1137  -4.1135  -4.1111  -4.1110
    -3.9124  -3.9120  -3.8157  -3.8148  -3.7057  -3.7053  -3.6717  -3.6714
    -3.5969  -3.5968  -3.5800  -3.5796  -3.5038  -3.5034  -3.4485  -3.4480
    -3.3521  -3.3515  -3.2629  -3.2621  -3.2342  -3.2329  -3.1508  -3.1505
    -3.0965  -3.0956  -2.9980  -2.9969  -2.9852  -2.9842  -2.9052  -2.9037
    -2.8355  -2.8346  -2.8341  -2.8333  -2.7479  -2.7469  -2.7270  -2.7251
    -2.5555  -2.5552  -2.4050  -2.4045  -2.3009  -2.3002  -2.2399  -2.2394
    -0.7612  -0.7609  -0.7171  -0.7166  -0.6862  -0.6859  -0.6174  -0.6171
    -0.4483  -0.4478  -0.3861  -0.3858  -0.3269  -0.3267  -0.2911  -0.2904
    -0.2514  -0.2513  -0.2437  -0.2437  -0.2023  -0.2022  -0.1972  -0.1972
    -0.0850  -0.0849  -0.0442  -0.0441   0.0227   0.0227   0.0253   0.0256
     0.0865   0.0865   0.0950   0.0950   0.2046   0.2048   0.2184   0.2184
     5.5473   5.5479   5.6390   5.6391   5.6730   5.6735   5.7193   5.7194
     5.7817   5.7827   5.7831   5.7836   5.8303   5.8315   5.9341   5.9352
     6.6968   6.6968   6.7135   6.7138   7.4079   7.4080   7.7030   7.7032
     7.7789   7.7794   7.8593   7.8603   8.0296   8.0299   8.0700   8.0716
     8.2033   8.2047   8.4884   8.4890   8.5403   8.5412   8.6689   8.6699

          k =-0.5000 0.0000-0.7080 (142762 PWs)   bands (ev):

   -21.0474 -21.0467 -21.0467 -21.0467 -21.0031 -21.0025 -21.0025 -21.0024
   -18.2357 -18.2356 -18.2297 -18.2295 -18.2274 -18.2272 -18.2212 -18.2212
   -15.8333 -15.8331 -15.8309 -15.8303 -15.8247 -15.8242 -15.8219 -15.8217
   -14.6612 -14.6609 -14.6603 -14.6599 -14.6293 -14.6290 -14.6283 -14.6281
   -11.9328 -11.9327 -11.9265 -11.9262 -11.8907 -11.8905 -11.8745 -11.8745
   -11.6019 -11.6017 -11.5822 -11.5816 -11.5618 -11.5612 -11.5290 -11.5288
    -9.9342  -9.9340  -9.9200  -9.9198  -9.7189  -9.7187  -9.6989  -9.6988
    -8.7838  -8.7838  -8.7739  -8.7738  -8.7425  -8.7425  -8.7321  -8.7320
    -8.4839  -8.4836  -8.4825  -8.4816  -8.0482  -8.0481  -8.0476  -8.0474
    -7.2355  -7.2353  -7.2348  -7.2347  -6.8056  -6.8055  -6.8031  -6.8030
    -6.1545  -6.1544  -6.1452  -6.1451  -5.9717  -5.9715  -5.9522  -5.9521
    -5.7035  -5.7033  -5.6673  -5.6671  -5.6110  -5.6107  -5.5997  -5.5995
    -4.8299  -4.8296  -4.8257  -4.8256  -4.5989  -4.5986  -4.5402  -4.5399
    -4.4469  -4.4467  -4.3478  -4.3477  -4.1333  -4.1332  -4.0658  -4.0658
    -3.8795  -3.8791  -3.8635  -3.8632  -3.6904  -3.6903  -3.6662  -3.6661
    -3.5992  -3.5991  -3.5845  -3.5845  -3.5517  -3.5517  -3.4286  -3.4285
    -3.3303  -3.3298  -3.2321  -3.2316  -3.1846  -3.1843  -3.1722  -3.1721
    -3.0646  -3.0645  -3.0455  -3.0453  -3.0144  -3.0142  -2.9101  -2.9095
    -2.8732  -2.8721  -2.8595  -2.8589  -2.7561  -2.7552  -2.7206  -2.7197
    -2.4887  -2.4884  -2.4213  -2.4209  -2.2771  -2.2769  -2.2696  -2.2693
    -0.7504  -0.7500  -0.7149  -0.7144  -0.6701  -0.6695  -0.6488  -0.6484
    -0.4307  -0.4305  -0.3823  -0.3823  -0.3415  -0.3413  -0.3005  -0.3005
    -0.2520  -0.2519  -0.2476  -0.2475  -0.1992  -0.1990  -0.1885  -0.1884
    -0.0975  -0.0974  -0.0276  -0.0275   0.0121   0.0123   0.0360   0.0361
     0.0938   0.0939   0.1215   0.1216   0.1394   0.1394   0.2474   0.2474
     5.6064   5.6065   5.6069   5.6077   5.6636   5.6639   5.6958   5.6958
     5.8030   5.8030   5.8089   5.8095   5.8374   5.8376   5.8844   5.8844
     6.6965   6.6967   6.6993   6.6997   7.5210   7.5215   7.6336   7.6342
     7.7449   7.7450   7.8537   7.8540   8.0244   8.0250   8.0913   8.0914
     8.2831   8.2838   8.5121   8.5121   8.5557   8.5559   8.5710   8.5713

          k =-0.5000 0.8805-0.0651 (142686 PWs)   bands (ev):

   -21.0419 -21.0415 -21.0388 -21.0385 -21.0055 -21.0051 -21.0026 -21.0023
   -18.2418 -18.2407 -18.2312 -18.2309 -18.2290 -18.2287 -18.2236 -18.2225
   -15.8416 -15.8412 -15.8310 -15.8306 -15.8267 -15.8267 -15.8222 -15.8221
   -14.6886 -14.6884 -14.6748 -14.6746 -14.6617 -14.6615 -14.6533 -14.6531
   -11.9172 -11.9166 -11.8612 -11.8611 -11.8592 -11.8590 -11.8311 -11.8309
   -11.6287 -11.6275 -11.5928 -11.5916 -11.5782 -11.5769 -11.5731 -11.5719
    -9.9619  -9.9616  -9.8514  -9.8510  -9.7554  -9.7554  -9.6603  -9.6603
    -8.7488  -8.7484  -8.7180  -8.7175  -8.6931  -8.6927  -8.6646  -8.6642
    -8.4620  -8.4609  -8.4119  -8.4111  -8.0017  -8.0012  -7.9580  -7.9576
    -7.1936  -7.1935  -7.0061  -7.0057  -6.7708  -6.7706  -6.7283  -6.7282
    -6.0805  -6.0799  -6.0204  -6.0198  -5.9939  -5.9939  -5.9029  -5.9028
    -5.8866  -5.8866  -5.8636  -5.8634  -5.7596  -5.7595  -5.7446  -5.7445
    -4.9394  -4.9387  -4.8714  -4.8708  -4.7255  -4.7253  -4.6730  -4.6730
    -4.5315  -4.5315  -4.4893  -4.4890  -4.2490  -4.2486  -4.2030  -4.2029
    -3.9526  -3.9524  -3.9192  -3.9190  -3.7702  -3.7700  -3.7127  -3.7123
    -3.5782  -3.5774  -3.5399  -3.5397  -3.4979  -3.4973  -3.4420  -3.4419
    -3.3811  -3.3805  -3.3063  -3.3055  -3.2405  -3.2395  -3.1362  -3.1358
    -3.1036  -3.1028  -3.0743  -3.0733  -2.9450  -2.9431  -2.9174  -2.9163
    -2.8769  -2.8759  -2.8628  -2.8615  -2.8441  -2.8429  -2.7780  -2.7758
    -2.4234  -2.4232  -2.2859  -2.2857  -2.2189  -2.2188  -2.0745  -2.0743
    -0.8064  -0.8062  -0.7873  -0.7870  -0.6824  -0.6820  -0.6169  -0.6165
    -0.5514  -0.5510  -0.4348  -0.4344  -0.3874  -0.3871  -0.3485  -0.3484
    -0.2632  -0.2629  -0.1996  -0.1994  -0.1917  -0.1916  -0.1153  -0.1150
     0.0007   0.0008   0.0498   0.0499   0.1187   0.1189   0.1560   0.1562
     0.1910   0.1912   0.2496   0.2498   0.3064   0.3064   0.3159   0.3160
     5.4674   5.4682   5.5247   5.5252   5.5925   5.5934   5.6850   5.6862
     5.8308   5.8312   5.8681   5.8684   5.9466   5.9468   6.0146   6.0150
     6.7546   6.7548   6.8537   6.8538   7.1382   7.1384   7.2924   7.2926
     7.6821   7.6823   7.8296   7.8297   8.0368   8.0373   8.0853   8.0854
     8.2083   8.2088   8.3745   8.3756   8.6175   8.6182   8.6650   8.6651

          k =-0.5000 0.8805-0.7080 (142662 PWs)   bands (ev):

   -21.0409 -21.0405 -21.0398 -21.0397 -21.0046 -21.0042 -21.0033 -21.0031
   -18.2408 -18.2404 -18.2330 -18.2327 -18.2283 -18.2278 -18.2229 -18.2227
   -15.8415 -15.8411 -15.8318 -15.8314 -15.8246 -15.8243 -15.8238 -15.8235
   -14.6860 -14.6857 -14.6752 -14.6750 -14.6632 -14.6630 -14.6540 -14.6539
   -11.9062 -11.9061 -11.8792 -11.8791 -11.8526 -11.8525 -11.8322 -11.8322
   -11.6191 -11.6186 -11.6056 -11.6055 -11.5761 -11.5757 -11.5685 -11.5684
    -9.9596  -9.9593  -9.8523  -9.8519  -9.7561  -9.7560  -9.6613  -9.6613
    -8.7458  -8.7455  -8.7181  -8.7176  -8.6936  -8.6933  -8.6664  -8.6661
    -8.4614  -8.4603  -8.4130  -8.4122  -7.9978  -7.9973  -7.9610  -7.9606
    -7.1258  -7.1257  -7.0874  -7.0873  -6.7621  -6.7621  -6.7248  -6.7248
    -6.0548  -6.0547  -6.0266  -6.0265  -5.9967  -5.9964  -5.9374  -5.9374
    -5.8925  -5.8925  -5.8509  -5.8508  -5.7613  -5.7612  -5.7454  -5.7454
    -4.9296  -4.9296  -4.8906  -4.8906  -4.7225  -4.7223  -4.6686  -4.6685
    -4.4974  -4.4973  -4.3875  -4.3874  -4.3445  -4.3442  -4.2317  -4.2316
    -3.9670  -3.9669  -3.9103  -3.9101  -3.7928  -3.7927  -3.7096  -3.7093
    -3.5687  -3.5685  -3.5324  -3.5321  -3.5049  -3.5048  -3.4457  -3.4454
    -3.3793  -3.3788  -3.2828  -3.2827  -3.2099  -3.2095  -3.0866  -3.0862
    -3.0805  -3.0802  -3.0332  -3.0327  -2.9902  -2.9900  -2.9784  -2.9782
    -2.9060  -2.9056  -2.8619  -2.8611  -2.8397  -2.8391  -2.7948  -2.7946
    -2.4169  -2.4167  -2.2836  -2.2835  -2.2261  -2.2259  -2.0739  -2.0737
    -0.8017  -0.8015  -0.7901  -0.7899  -0.6658  -0.6654  -0.6450  -0.6444
    -0.5419  -0.5416  -0.4130  -0.4127  -0.3883  -0.3879  -0.3739  -0.3735
    -0.2567  -0.2565  -0.2083  -0.2081  -0.1970  -0.1968  -0.1081  -0.1080
     0.0258   0.0259   0.0505   0.0505   0.1212   0.1212   0.1459   0.1459
     0.1735   0.1737   0.2601   0.2602   0.2995   0.2996   0.3197   0.3198
     5.4826   5.4831   5.5085   5.5093   5.6071   5.6078   5.6696   5.6704
     5.8262   5.8267   5.8641   5.8646   5.9727   5.9729   5.9985   5.9989
     6.7659   6.7662   6.8512   6.8516   7.1596   7.1601   7.2919   7.2923
     7.6853   7.6855   7.7690   7.7690   8.0420   8.0424   8.1244   8.1247
     8.1813   8.1817   8.4381   8.4382   8.5598   8.5600   8.6466   8.6467

     highest occupied, lowest unoccupied level (ev):     0.3473    5.4382

!    total energy              =   -1803.92153133 Ry
     Harris-Foulkes estimate   =   -1803.92153134 Ry
     estimated scf accuracy    <          7.1E-09 Ry

     total all-electron energy =     -6904.324510 Ry

     The total energy is the sum of the following terms:

     one-electron contribution =   -1031.24476690 Ry
     hartree contribution      =     665.23978984 Ry
     xc contribution           =    -400.75781469 Ry
     ewald contribution        =    -492.36170537 Ry
     Dispersion Correction     =      -0.68680032 Ry
     one-center paw contrib.   =    -544.11023390 Ry

     convergence has been achieved in  19 iterations

     Forces acting on atoms (cartesian axes, Ry/au):

     atom    1 type  2   force =    -0.00154885   -0.00393905    0.00105131
     atom    2 type  2   force =     0.00177109   -0.00404395   -0.00110818
     atom    3 type  2   force =    -0.00141665   -0.00379422    0.00104838
     atom    4 type  2   force =     0.00170692   -0.00395251   -0.00112817
     atom    5 type  2   force =     0.00154885    0.00393905   -0.00105131
     atom    6 type  2   force =    -0.00177109    0.00404395    0.00110818
     atom    7 type  2   force =     0.00141665    0.00379422   -0.00104838
     atom    8 type  2   force =    -0.00170692    0.00395251    0.00112817
     atom    9 type  2   force =    -0.00004534    0.00430669    0.00249905
     atom   10 type  2   force =     0.00018087    0.00418685   -0.00252112
     atom   11 type  2   force =    -0.00030131    0.00436284    0.00259984
     atom   12 type  2   force =     0.00081750    0.00419627   -0.00273828
     atom   13 type  2   force =     0.00004534   -0.00430669   -0.00249905
     atom   14 type  2   force =    -0.00018087   -0.00418685    0.00252112
     atom   15 type  2   force =     0.00030131   -0.00436284   -0.00259984
     atom   16 type  2   force =    -0.00081750   -0.00419627    0.00273828
     atom   17 type  3   force =    -0.00042043   -0.00140734    0.00045468
     atom   18 type  3   force =     0.00047974   -0.00144491   -0.00044531
     atom   19 type  3   force =    -0.00033013   -0.00135266    0.00046805
     atom   20 type  3   force =     0.00019721   -0.00126946   -0.00046125
     atom   21 type  3   force =     0.00042043    0.00140734   -0.00045468
     atom   22 type  3   force =    -0.00047974    0.00144491    0.00044531
     atom   23 type  3   force =     0.00033013    0.00135266   -0.00046805
     atom   24 type  3   force =    -0.00019721    0.00126946    0.00046125
     atom   25 type  2   force =    -0.00262677   -0.00638684   -0.00398683
     atom   26 type  2   force =     0.00261654   -0.00631824    0.00397821
     atom   27 type  2   force =    -0.00260165   -0.00634025   -0.00397699
     atom   28 type  2   force =     0.00254773   -0.00620880    0.00396125
     atom   29 type  2   force =     0.00262677    0.00638684    0.00398683
     atom   30 type  2   force =    -0.00261654    0.00631824   -0.00397821
     atom   31 type  2   force =     0.00260165    0.00634025    0.00397699
     atom   32 type  2   force =    -0.00254773    0.00620880   -0.00396125
     atom   33 type  1   force =    -0.00025015    0.00426662   -0.00370240
     atom   34 type  1   force =    -0.00011090    0.00453477    0.00376356
     atom   35 type  1   force =    -0.00012822    0.00371854   -0.00386949
     atom   36 type  1   force =    -0.00044758    0.00386085    0.00404292
     atom   37 type  1   force =     0.00025015   -0.00426662    0.00370240
     atom   38 type  1   force =     0.00011090   -0.00453477   -0.00376356
     atom   39 type  1   force =     0.00012822   -0.00371854    0.00386949
     atom   40 type  1   force =     0.00044758   -0.00386085   -0.00404292
     atom   41 type  2   force =     0.00083567   -0.00069914    0.00272623
     atom   42 type  2   force =    -0.00093453   -0.00065681   -0.00271146
     atom   43 type  2   force =     0.00065366   -0.00079453    0.00278366
     atom   44 type  2   force =    -0.00042939   -0.00086781   -0.00283913
     atom   45 type  2   force =    -0.00083567    0.00069914   -0.00272623
     atom   46 type  2   force =     0.00093453    0.00065681    0.00271146
     atom   47 type  2   force =    -0.00065366    0.00079453   -0.00278366
     atom   48 type  2   force =     0.00042939    0.00086781    0.00283913
     atom   49 type  2   force =    -0.00111146    0.00178206    0.00961622
     atom   50 type  2   force =     0.00103014    0.00174964   -0.00958284
     atom   51 type  2   force =    -0.00115108    0.00182061    0.00962002
     atom   52 type  2   force =     0.00100981    0.00175324   -0.00952851
     atom   53 type  2   force =     0.00111146   -0.00178206   -0.00961622
     atom   54 type  2   force =    -0.00103014   -0.00174964    0.00958284
     atom   55 type  2   force =     0.00115108   -0.00182061   -0.00962002
     atom   56 type  2   force =    -0.00100981   -0.00175324    0.00952851
     atom   57 type  1   force =    -0.00182344   -0.00000045   -0.00186558
     atom   58 type  1   force =     0.00188165   -0.00007671    0.00189516
     atom   59 type  1   force =    -0.00173234    0.00013931   -0.00187839
     atom   60 type  1   force =     0.00160321    0.00032158    0.00188037
     atom   61 type  1   force =     0.00182344    0.00000045    0.00186558
     atom   62 type  1   force =    -0.00188165    0.00007671   -0.00189516
     atom   63 type  1   force =     0.00173234   -0.00013931    0.00187839
     atom   64 type  1   force =    -0.00160321   -0.00032158   -0.00188037
     atom   65 type  3   force =     0.00013232    0.00078789    0.00016184
     atom   66 type  3   force =    -0.00013315    0.00081014   -0.00014763
     atom   67 type  3   force =     0.00013177    0.00075303    0.00021442
     atom   68 type  3   force =    -0.00013732    0.00071502   -0.00027906
     atom   69 type  3   force =    -0.00013232   -0.00078789   -0.00016184
     atom   70 type  3   force =     0.00013315   -0.00081014    0.00014763
     atom   71 type  3   force =    -0.00013177   -0.00075303   -0.00021442
     atom   72 type  3   force =     0.00013732   -0.00071502    0.00027906
     atom   73 type  3   force =    -0.00184147   -0.00162404    0.00076804
     atom   74 type  3   force =     0.00182865   -0.00164642   -0.00080790
     atom   75 type  3   force =    -0.00186420   -0.00159174    0.00070241
     atom   76 type  3   force =     0.00190043   -0.00156654   -0.00062344
     atom   77 type  3   force =     0.00184147    0.00162404   -0.00076804
     atom   78 type  3   force =    -0.00182865    0.00164642    0.00080790
     atom   79 type  3   force =     0.00186420    0.00159174   -0.00070241
     atom   80 type  3   force =    -0.00190043    0.00156654    0.00062344
     atom   81 type  3   force =    -0.00048148   -0.00036156    0.00044844
     atom   82 type  3   force =     0.00046992   -0.00035109   -0.00045166
     atom   83 type  3   force =    -0.00050823   -0.00037669    0.00045863
     atom   84 type  3   force =     0.00054299   -0.00039737   -0.00045588
     atom   85 type  3   force =     0.00048148    0.00036156   -0.00044844
     atom   86 type  3   force =    -0.00046992    0.00035109    0.00045166
     atom   87 type  3   force =     0.00050823    0.00037669   -0.00045863
     atom   88 type  3   force =    -0.00054299    0.00039737    0.00045588
     atom   89 type  1   force =     0.00288246    0.00078383   -0.00035366
     atom   90 type  1   force =    -0.00278160    0.00076230    0.00041977
     atom   91 type  1   force =     0.00307434    0.00079689   -0.00031280
     atom   92 type  1   force =    -0.00328086    0.00073587    0.00035044
     atom   93 type  1   force =    -0.00288246   -0.00078383    0.00035366
     atom   94 type  1   force =     0.00278160   -0.00076230   -0.00041977
     atom   95 type  1   force =    -0.00307434   -0.00079689    0.00031280
     atom   96 type  1   force =     0.00328086   -0.00073587   -0.00035044
     atom   97 type  3   force =    -0.00086384   -0.00080449    0.00052035
     atom   98 type  3   force =     0.00083380   -0.00080209   -0.00053250
     atom   99 type  3   force =    -0.00089727   -0.00079518    0.00051145
     atom  100 type  3   force =     0.00090670   -0.00077501   -0.00049712
     atom  101 type  3   force =     0.00086384    0.00080449   -0.00052035
     atom  102 type  3   force =    -0.00083380    0.00080209    0.00053250
     atom  103 type  3   force =     0.00089727    0.00079518   -0.00051145
     atom  104 type  3   force =    -0.00090670    0.00077501    0.00049712
     atom  105 type  3   force =    -0.00078084    0.00191905    0.00017636
     atom  106 type  3   force =     0.00079711    0.00194773   -0.00020025
     atom  107 type  3   force =    -0.00075503    0.00187132    0.00012684
     atom  108 type  3   force =     0.00075734    0.00184211   -0.00009443
     atom  109 type  3   force =     0.00078084   -0.00191905   -0.00017636
     atom  110 type  3   force =    -0.00079711   -0.00194773    0.00020025
     atom  111 type  3   force =     0.00075503   -0.00187132   -0.00012684
     atom  112 type  3   force =    -0.00075734   -0.00184211    0.00009443
     atom  113 type  3   force =     0.00014914    0.00105286    0.00070140
     atom  114 type  3   force =    -0.00016661    0.00104929   -0.00071188
     atom  115 type  3   force =     0.00010877    0.00107299    0.00071536
     atom  116 type  3   force =    -0.00008256    0.00112611   -0.00079632
     atom  117 type  3   force =    -0.00014914   -0.00105286   -0.00070140
     atom  118 type  3   force =     0.00016661   -0.00104929    0.00071188
     atom  119 type  3   force =    -0.00010877   -0.00107299   -0.00071536
     atom  120 type  3   force =     0.00008256   -0.00112611    0.00079632
     atom  121 type  1   force =     0.00349281   -0.00771193   -0.00300456
     atom  122 type  1   force =    -0.00325056   -0.00786680    0.00293960
     atom  123 type  1   force =     0.00356335   -0.00737727   -0.00299644
     atom  124 type  1   force =    -0.00345450   -0.00739932    0.00294065
     atom  125 type  1   force =    -0.00349281    0.00771193    0.00300456
     atom  126 type  1   force =     0.00325056    0.00786680   -0.00293960
     atom  127 type  1   force =    -0.00356335    0.00737727    0.00299644
     atom  128 type  1   force =     0.00345450    0.00739932   -0.00294065
     atom  129 type  3   force =     0.00277110    0.00530113   -0.00504000
     atom  130 type  3   force =    -0.00279959    0.00535471    0.00507936
     atom  131 type  3   force =     0.00276817    0.00522887   -0.00501171
     atom  132 type  3   force =    -0.00283052    0.00526248    0.00506204
     atom  133 type  3   force =    -0.00277110   -0.00530113    0.00504000
     atom  134 type  3   force =     0.00279959   -0.00535471   -0.00507936
     atom  135 type  3   force =    -0.00276817   -0.00522887    0.00501171
     atom  136 type  3   force =     0.00283052   -0.00526248   -0.00506204
     atom  137 type  3   force =    -0.00024334    0.00155366   -0.00181841
     atom  138 type  3   force =     0.00017049    0.00157255    0.00181844
     atom  139 type  3   force =    -0.00024662    0.00156409   -0.00181879
     atom  140 type  3   force =     0.00018380    0.00163425    0.00182243
     atom  141 type  3   force =     0.00024334   -0.00155366    0.00181841
     atom  142 type  3   force =    -0.00017049   -0.00157255   -0.00181844
     atom  143 type  3   force =     0.00024662   -0.00156409    0.00181879
     atom  144 type  3   force =    -0.00018380   -0.00163425   -0.00182243

     Total force =     0.058173     Total SCF correction =     0.000131


     Computing stress (Cartesian axis) and pressure

          total   stress  (Ry/bohr**3)                   (kbar)     P=   -1.82
  -0.00002162  -0.00000001  -0.00001139         -3.18     -0.00     -1.68
  -0.00000001   0.00003236   0.00000003         -0.00      4.76      0.00
  -0.00001139   0.00000003  -0.00004791         -1.68      0.00     -7.05


     Writing output data file scf.save
 
     init_run     :     97.91s CPU    101.40s WALL (       1 calls)
     electrons    :   4107.90s CPU   4256.52s WALL (       1 calls)
     forces       :     49.00s CPU     49.35s WALL (       1 calls)
     stress       :    228.21s CPU    228.76s WALL (       1 calls)

     Called by init_run:
     wfcinit      :     83.46s CPU     86.76s WALL (       1 calls)
     potinit      :      4.97s CPU      5.00s WALL (       1 calls)

     Called by electrons:
     c_bands      :   3735.11s CPU   3861.23s WALL (      19 calls)
     sum_band     :    348.04s CPU    367.84s WALL (      19 calls)
     v_of_rho     :      3.28s CPU      3.62s WALL (      20 calls)
     newd         :      9.42s CPU     11.77s WALL (      20 calls)
     PAW_pot      :     11.10s CPU     11.10s WALL (      20 calls)
     mix_rho      :      0.83s CPU      0.90s WALL (      19 calls)

     Called by c_bands:
     init_us_2    :     16.31s CPU     16.44s WALL (     328 calls)
     cegterg      :   3672.15s CPU   3797.76s WALL (     152 calls)

     Called by sum_band:
     sum_band:bec :      0.17s CPU      0.17s WALL (     152 calls)
     addusdens    :     10.01s CPU     12.21s WALL (      19 calls)

     Called by *egterg:
     h_psi        :   1867.33s CPU   1969.71s WALL (     710 calls)
     s_psi        :    487.51s CPU    487.64s WALL (     710 calls)
     g_psi        :      8.05s CPU      8.06s WALL (     550 calls)
     cdiaghg      :    177.40s CPU    177.47s WALL (     702 calls)

     Called by h_psi:
     h_psi:pot    :   1855.33s CPU   1957.53s WALL (     710 calls)
     h_psi:calbec :    479.36s CPU    479.90s WALL (     710 calls)
     vloc_psi     :    887.96s CPU    989.43s WALL (     710 calls)
     add_vuspsi   :    488.01s CPU    488.20s WALL (     710 calls)

     General routines
     calbec       :    682.00s CPU    682.75s WALL (     902 calls)
     fft          :      2.60s CPU      3.16s WALL (     284 calls)
     fftw         :    923.66s CPU   1042.04s WALL (  250348 calls)
 
     Parallel routines
     fft_scatter  :    178.66s CPU    295.20s WALL (  250632 calls)
 
     PWSCF        :     1h15m CPU        1h18m WALL

 
   This run was terminated on:   7:35:28  13Dec2017            

=------------------------------------------------------------------------------=
   JOB DONE.
=------------------------------------------------------------------------------=
