
     Program PWSCF v.6.1 (svn rev. 13369) starts on  7Dec2017 at  6:41:55 

     This program is part of the open-source Quantum ESPRESSO suite
     for quantum simulation of materials; please cite
         "P. Giannozzi et al., J. Phys.:Condens. Matter 21 395502 (2009);
          URL http://www.quantum-espresso.org", 
     in publications or presentations arising from this work. More details at
     http://www.quantum-espresso.org/quote

     Parallel version (MPI), running on     8 processors
     R & G space division:  proc/nbgrp/npool/nimage =       8
     Waiting for input...
     Reading input from standard input

     Current dimensions of program PWSCF are:
     Max number of different atomic species (ntypx) = 10
     Max number of k-points (npk) =  40000
     Max angular momentum in pseudopotentials (lmaxx) =  3
               file C.pbe-n-kjpaw_psl.0.1.UPF: wavefunction(s)  2P renormalized
               file N.pbe-n-kjpaw_psl.0.1.UPF: wavefunction(s)  2P renormalized
               file H.pbe-kjpaw_psl.0.1.UPF: wavefunction(s)  1S renormalized
               file O.pbe-n-kjpaw_psl.0.1.UPF: wavefunction(s)  2P renormalized

     -------------------------------------
     Parameters for Dispersion Correction:
     -------------------------------------
       atom      VdW radius       C_6     

        C          2.744         60.710
        N          2.640         42.670
        H          1.892          4.857
        O          2.536         24.284

     Subspace diagonalization in iterative solution of the eigenvalue problem:
     a serial algorithm will be used

 
     Parallelization info
     --------------------
     sticks:   dense  smooth     PW     G-vecs:    dense   smooth      PW
     Min        2831    2831    742               182492   182492   24474
     Max        2833    2833    743               182493   182493   24475
     Sum       22657   22657   5943              1459941  1459941  195799
 


     bravais-lattice index     =            0
     lattice parameter (alat)  =      43.7831  a.u.
     unit-cell volume          =   10805.1063 (a.u.)^3
     number of atoms/cell      =          160
     number of atomic types    =            4
     number of electrons       =       624.00
     number of Kohn-Sham states=          374
     kinetic-energy cutoff     =     100.0000  Ry
     charge density cutoff     =     400.0000  Ry
     convergence threshold     =      1.0E-08
     mixing beta               =       0.5000
     number of iterations used =            8  plain     mixing
     Exchange-correlation      =  SLA  PW   PBX  PBC ( 1  4  3  4 0 0)

     celldm(1)=  43.783065  celldm(2)=   0.000000  celldm(3)=   0.000000
     celldm(4)=   0.000000  celldm(5)=   0.000000  celldm(6)=   0.000000

     crystal axes: (cart. coord. in units of alat)
               a(1) = (   1.000000   0.000000   0.000000 )  
               a(2) = (   0.000000   0.371281   0.000000 )  
               a(3) = (   0.000000   0.000000   0.346743 )  

     reciprocal axes: (cart. coord. in units 2 pi/alat)
               b(1) = (  1.000000  0.000000  0.000000 )  
               b(2) = (  0.000000  2.693381  0.000000 )  
               b(3) = (  0.000000  0.000000  2.883976 )  


     PseudoPot. # 1 for  C read from file:
     /scratch/ahofstet/pseudo/C.pbe-n-kjpaw_psl.0.1.UPF
     MD5 check sum: 430fe95172b1e11ef3f8ed03bac87931
     Pseudo is Projector augmented-wave + core cor, Zval =  4.0
     Generated using "atomic" code by A. Dal Corso  v.5.0.99 svn rev. 10869
     Shape of augmentation charge: BESSEL
     Using radial grid of 1073 points,  4 beta functions with: 
                l(1) =   0
                l(2) =   0
                l(3) =   1
                l(4) =   1
     Q(r) pseudized with 0 coefficients 


     PseudoPot. # 2 for  N read from file:
     /scratch/ahofstet/pseudo/N.pbe-n-kjpaw_psl.0.1.UPF
     MD5 check sum: f73187c8b701007e77325f868c9291d7
     Pseudo is Projector augmented-wave + core cor, Zval =  5.0
     Generated using "atomic" code by A. Dal Corso  v.5.0.99 svn rev. 10869
     Shape of augmentation charge: PSQ
     Using radial grid of 1085 points,  4 beta functions with: 
                l(1) =   0
                l(2) =   0
                l(3) =   1
                l(4) =   1
     Q(r) pseudized with 0 coefficients 


     PseudoPot. # 3 for  H read from file:
     /scratch/ahofstet/pseudo/H.pbe-kjpaw_psl.0.1.UPF
     MD5 check sum: 94e484f906d9e9773b2f6e52662335b2
     Pseudo is Projector augmented-wave, Zval =  1.0
     Generated using "atomic" code by A. Dal Corso  v.5.0.99 svn rev. 10869
     Shape of augmentation charge: PSQ
     Using radial grid of  929 points,  2 beta functions with: 
                l(1) =   0
                l(2) =   0
     Q(r) pseudized with 0 coefficients 


     PseudoPot. # 4 for  O read from file:
     /scratch/ahofstet/pseudo/O.pbe-n-kjpaw_psl.0.1.UPF
     MD5 check sum: 3f94a2996a3169367d6eb21d9b593f20
     Pseudo is Projector augmented-wave + core cor, Zval =  6.0
     Generated using "atomic" code by A. Dal Corso  v.5.0.99 svn rev. 10869
     Shape of augmentation charge: BESSEL
     Using radial grid of 1095 points,  4 beta functions with: 
                l(1) =   0
                l(2) =   0
                l(3) =   1
                l(4) =   1
     Q(r) pseudized with 0 coefficients 


     atomic species   valence    mass     pseudopotential
        C              4.00    12.01070      C( 1.00)
        N              5.00    14.00670      N( 1.00)
        H              1.00     1.00794      H( 1.00)
        O              6.00    15.99940      O( 1.00)

      2 Sym. Ops., with inversion, found



   Cartesian axes

     site n.     atom                  positions (alat units)
         1           N   tau(   1) = (   0.3589760   0.2376505   0.0516087  )
         2           N   tau(   2) = (   0.1410255   0.3192635   0.2249585  )
         3           N   tau(   3) = (   0.6410231   0.2376526   0.1217836  )
         4           N   tau(   4) = (   0.8589716   0.3192698   0.2951356  )
         5           N   tau(   5) = (   0.6410240   0.1336301   0.2951348  )
         6           N   tau(   6) = (   0.8589745   0.0520171   0.1217850  )
         7           N   tau(   7) = (   0.3589769   0.1336280   0.2249598  )
         8           N   tau(   8) = (   0.1410284   0.0520108   0.0516079  )
         9           N   tau(   9) = (   0.3816260   0.1853606   0.0638987  )
        10           N   tau(  10) = (   0.1183727   0.3715504   0.2372498  )
        11           N   tau(  11) = (   0.6183699   0.1853652   0.1094941  )
        12           N   tau(  12) = (   0.8816239   0.3715580   0.2828405  )
        13           N   tau(  13) = (   0.6183740   0.1859199   0.2828448  )
        14           N   tau(  14) = (   0.8816273  -0.0002699   0.1094937  )
        15           N   tau(  15) = (   0.3816301   0.1859154   0.2372494  )
        16           N   tau(  16) = (   0.1183761  -0.0002774   0.0639030  )
        17           N   tau(  17) = (   0.4228460   0.1931821   0.1002216  )
        18           N   tau(  18) = (   0.0771594   0.3637347   0.2735748  )
        19           N   tau(  19) = (   0.5771545   0.1931832   0.0731668  )
        20           N   tau(  20) = (   0.9228448   0.3637375   0.2465209  )
        21           N   tau(  21) = (   0.5771540   0.1780985   0.2465219  )
        22           N   tau(  22) = (   0.9228406   0.0075458   0.0731687  )
        23           N   tau(  23) = (   0.4228455   0.1780974   0.2735767  )
        24           N   tau(  24) = (   0.0771552   0.0075431   0.1002226  )
        25           N   tau(  25) = (   0.4270490   0.2502222   0.1125121  )
        26           N   tau(  26) = (   0.0729532   0.3066957   0.2858747  )
        27           N   tau(  27) = (   0.5729536   0.2502206   0.0608697  )
        28           N   tau(  28) = (   0.9270497   0.3066982   0.2342339  )
        29           N   tau(  29) = (   0.5729510   0.1210584   0.2342314  )
        30           N   tau(  30) = (   0.9270468   0.0645849   0.0608688  )
        31           N   tau(  31) = (   0.4270464   0.1210600   0.2858737  )
        32           N   tau(  32) = (   0.0729503   0.0645824   0.1125096  )
        33           H   tau(  33) = (   0.4605730   0.2634573   0.1418047  )
        34           H   tau(  34) = (   0.0394326   0.2934597   0.3151593  )
        35           H   tau(  35) = (   0.5394304   0.2634600   0.0315827  )
        36           H   tau(  36) = (   0.9605756   0.2934633   0.2049398  )
        37           H   tau(  37) = (   0.5394270   0.1078233   0.2049387  )
        38           H   tau(  38) = (   0.9605674   0.0778209   0.0315842  )
        39           H   tau(  39) = (   0.4605696   0.1078205   0.3151608  )
        40           H   tau(  40) = (   0.0394244   0.0778173   0.1418037  )
        41           C   tau(  41) = (   0.3872815   0.2795935   0.0816447  )
        42           C   tau(  42) = (   0.1127251   0.2773099   0.2550059  )
        43           C   tau(  43) = (   0.6127221   0.2796042   0.0917352  )
        44           C   tau(  44) = (   0.8872844   0.2773207   0.2650981  )
        45           C   tau(  45) = (   0.6127185   0.0916871   0.2650988  )
        46           C   tau(  46) = (   0.8872749   0.0939707   0.0917376  )
        47           C   tau(  47) = (   0.3872779   0.0916764   0.2550083  )
        48           C   tau(  48) = (   0.1127156   0.0939599   0.0816454  )
        49           C   tau(  49) = (   0.3075415   0.2446719   0.0167977  )
        50           C   tau(  50) = (   0.1924495   0.3122380   0.1901425  )
        51           C   tau(  51) = (   0.6924478   0.2446796   0.1565997  )
        52           C   tau(  52) = (   0.8075385   0.3122480   0.3299391  )
        53           C   tau(  53) = (   0.6924585   0.1266087   0.3299458  )
        54           C   tau(  54) = (   0.8075505   0.0590425   0.1566010  )
        55           C   tau(  55) = (   0.3075522   0.1266010   0.1901438  )
        56           C   tau(  56) = (   0.1924615   0.0590326   0.0168044  )
        57           H   tau(  57) = (   0.3069908   0.2114311   0.3297275  )
        58           H   tau(  58) = (   0.1929956   0.3454799   0.1563258  )
        59           H   tau(  59) = (   0.6929885   0.2114443   0.1904223  )
        60           H   tau(  60) = (   0.8069794   0.3454952   0.0170055  )
        61           H   tau(  61) = (   0.6930092   0.1598495   0.0170160  )
        62           H   tau(  62) = (   0.8070044   0.0258007   0.1904177  )
        63           H   tau(  63) = (   0.3070115   0.1598363   0.1563212  )
        64           H   tau(  64) = (   0.1930206   0.0257854   0.3297380  )
        65           H   tau(  65) = (   0.3085238   0.2873187   0.3430499  )
        66           H   tau(  66) = (   0.1914618   0.2695930   0.1696495  )
        67           H   tau(  67) = (   0.6914648   0.2873292   0.1770836  )
        68           H   tau(  68) = (   0.8085248   0.2696058   0.0036963  )
        69           H   tau(  69) = (   0.6914762   0.0839619   0.0036936  )
        70           H   tau(  70) = (   0.8085382   0.1016876   0.1770940  )
        71           H   tau(  71) = (   0.3085352   0.0839514   0.1696599  )
        72           H   tau(  72) = (   0.1914752   0.1016748   0.3430472  )
        73           C   tau(  73) = (   0.2535034   0.2375667   0.0541240  )
        74           C   tau(  74) = (   0.2464935   0.3193339   0.2274558  )
        75           C   tau(  75) = (   0.7464934   0.2375690   0.1192958  )
        76           C   tau(  76) = (   0.7535015   0.3193280   0.2926187  )
        77           C   tau(  77) = (   0.7464966   0.1337139   0.2926195  )
        78           C   tau(  78) = (   0.7535065   0.0519467   0.1192877  )
        79           C   tau(  79) = (   0.2535066   0.1337115   0.2274476  )
        80           C   tau(  80) = (   0.2464985   0.0519526   0.0541248  )
        81           O   tau(  81) = (   0.2070494   0.2574313   0.0273141  )
        82           O   tau(  82) = (   0.2929495   0.2994795   0.2006382  )
        83           O   tau(  83) = (   0.7929485   0.2574050   0.1461143  )
        84           O   tau(  84) = (   0.7070524   0.2994552   0.3194106  )
        85           O   tau(  85) = (   0.7929506   0.1138493   0.3194294  )
        86           O   tau(  86) = (   0.7070505   0.0718011   0.1461053  )
        87           O   tau(  87) = (   0.2070515   0.1138756   0.2006292  )
        88           O   tau(  88) = (   0.2929476   0.0718254   0.0273329  )
        89           O   tau(  89) = (   0.2543491   0.2156310   0.1019963  )
        90           O   tau(  90) = (   0.2456549   0.3412639   0.2753351  )
        91           O   tau(  91) = (   0.7456501   0.2156441   0.0714026  )
        92           O   tau(  92) = (   0.7543461   0.3412792   0.2447270  )
        93           O   tau(  93) = (   0.7456509   0.1556496   0.2447472  )
        94           O   tau(  94) = (   0.7543451   0.0300167   0.0714084  )
        95           O   tau(  95) = (   0.2543499   0.1556365   0.2753409  )
        96           O   tau(  96) = (   0.2456539   0.0300014   0.1020165  )
        97           N   tau(  97) = (   0.3715778   0.3347764   0.0741801  )
        98           N   tau(  98) = (   0.1284242   0.2221400   0.2475409  )
        99           N   tau(  99) = (   0.6284280   0.3347749   0.0992034  )
       100           N   tau( 100) = (   0.8715821   0.2221416   0.2725649  )
       101           N   tau( 101) = (   0.6284222   0.0365042   0.2725634  )
       102           N   tau( 102) = (   0.8715758   0.1491406   0.0992026  )
       103           N   tau( 103) = (   0.3715720   0.0365057   0.2475401  )
       104           N   tau( 104) = (   0.1284179   0.1491390   0.0741786  )
       105           N   tau( 105) = (   0.4024557   0.0037325   0.1011373  )
       106           N   tau( 106) = (   0.0975574   0.1818972   0.2744983  )
       107           N   tau( 107) = (   0.5975494   0.0037287   0.0722396  )
       108           N   tau( 108) = (   0.9024577   0.1819065   0.2456066  )
       109           N   tau( 109) = (   0.5975443   0.3675481   0.2456062  )
       110           N   tau( 110) = (   0.9024426   0.1893834   0.0722452  )
       111           N   tau( 111) = (   0.4024506   0.3675519   0.2745039  )
       112           N   tau( 112) = (   0.0975423   0.1893741   0.1011369  )
       113           O   tau( 113) = (   0.3866309   0.0551889   0.0930641  )
       114           O   tau( 114) = (   0.1133772   0.1304443   0.2664189  )
       115           O   tau( 115) = (   0.6133816   0.0551984   0.0803283  )
       116           O   tau( 116) = (   0.8866324   0.1304488   0.2536799  )
       117           O   tau( 117) = (   0.6133691   0.3160917   0.2536794  )
       118           O   tau( 118) = (   0.8866228   0.2408363   0.0803246  )
       119           O   tau( 119) = (   0.3866184   0.3160822   0.2664151  )
       120           O   tau( 120) = (   0.1133676   0.2408318   0.0930636  )
       121           O   tau( 121) = (   0.4451494   0.3636754   0.1327208  )
       122           O   tau( 122) = (   0.0548634   0.1932360   0.3060987  )
       123           O   tau( 123) = (   0.5548719   0.3636836   0.0406516  )
       124           O   tau( 124) = (   0.9451528   0.1932426   0.2140199  )
       125           O   tau( 125) = (   0.5548506   0.0076052   0.2140227  )
       126           O   tau( 126) = (   0.9451366   0.1780446   0.0406448  )
       127           O   tau( 127) = (   0.4451281   0.0075970   0.3060919  )
       128           O   tau( 128) = (   0.0548472   0.1780380   0.1327236  )
       129           O   tau( 129) = (   0.5156725   0.2685495   0.1799553  )
       130           O   tau( 130) = (   0.9843094   0.2883710   0.0065542  )
       131           O   tau( 131) = (   0.4843075   0.2685469   0.3401885  )
       132           O   tau( 132) = (   0.0156728   0.2883724   0.1667884  )
       133           O   tau( 133) = (   0.4843275   0.1027311   0.1667882  )
       134           O   tau( 134) = (   0.0156906   0.0829096   0.3401893  )
       135           O   tau( 135) = (   0.5156925   0.1027337   0.0065550  )
       136           O   tau( 136) = (   0.9843272   0.0829082   0.1799551  )
       137           H   tau( 137) = (   0.5329914   0.2407644   0.2068444  )
       138           H   tau( 138) = (   0.9669990   0.3161517   0.0334581  )
       139           H   tau( 139) = (   0.4670019   0.2407714   0.3132877  )
       140           H   tau( 140) = (   0.0329945   0.3161567   0.1398983  )
       141           H   tau( 141) = (   0.4670086   0.1305162   0.1398990  )
       142           H   tau( 142) = (   0.0330010   0.0551288   0.3132854  )
       143           H   tau( 143) = (   0.5329981   0.1305092   0.0334558  )
       144           H   tau( 144) = (   0.9670055   0.0551239   0.2068452  )
       145           H   tau( 145) = (   0.5269413   0.3073081   0.1933805  )
       146           H   tau( 146) = (   0.9730427   0.2496136   0.0199774  )
       147           H   tau( 147) = (   0.4730396   0.3073119   0.3267634  )
       148           H   tau( 148) = (   0.0269389   0.2496138   0.1533651  )
       149           H   tau( 149) = (   0.4730587   0.0639725   0.1533630  )
       150           H   tau( 150) = (   0.0269573   0.1216670   0.3267661  )
       151           H   tau( 151) = (   0.5269604   0.0639687   0.0199801  )
       152           H   tau( 152) = (   0.9730611   0.1216668   0.1933784  )
       153           H   tau( 153) = (   0.1719700   0.2492609   0.0519636  )
       154           H   tau( 154) = (   0.3280234   0.3076442   0.2252902  )
       155           H   tau( 155) = (   0.8280251   0.2492457   0.1214582  )
       156           H   tau( 156) = (   0.6719700   0.3076275   0.2947662  )
       157           H   tau( 157) = (   0.8280300   0.1220197   0.2947799  )
       158           H   tau( 158) = (   0.6719766   0.0636364   0.1214533  )
       159           H   tau( 159) = (   0.1719749   0.1220349   0.2252853  )
       160           H   tau( 160) = (   0.3280300   0.0636531   0.0519773  )

     number of k points=     4
                       cart. coord. in units 2pi/alat
        k(    1) = (   0.0000000   0.0000000   0.0000000), wk =   0.3333333
        k(    2) = (   0.0000000   0.0000000   0.9613254), wk =   0.6666667
        k(    3) = (   0.0000000  -1.3466904   0.0000000), wk =   0.3333333
        k(    4) = (   0.0000000  -1.3466904   0.9613254), wk =   0.6666667

     Dense  grid:  1459941 G-vectors     FFT dimensions: ( 288, 108, 100)

     Estimated max dynamical RAM per process >    2220.50MB

     Estimated total allocated dynamical RAM >   17763.99MB

     Check: negative/imaginary core charge=   -0.000002    0.000000

     Initial potential from superposition of free atoms

     starting charge  623.99813, renormalised to  624.00000
     Starting wfc are  496 randomized atomic wfcs
     Checking if some PAW data can be deallocated... 

     total cpu time spent up to now is      110.2 secs

     per-process dynamical memory:  1186.2 Mb

     Self-consistent Calculation

     iteration #  1     ecut=   100.00 Ry     beta=0.50
     Davidson diagonalization with overlap
     ethr =  1.00E-02,  avg # of iterations =  3.0

     total cpu time spent up to now is      482.1 secs

     total energy              =   -3514.90073019 Ry
     Harris-Foulkes estimate   =   -3523.49566110 Ry
     estimated scf accuracy    <      15.44726185 Ry

     iteration #  2     ecut=   100.00 Ry     beta=0.50
     Davidson diagonalization with overlap
     ethr =  2.48E-03,  avg # of iterations =  3.0

     total cpu time spent up to now is      745.2 secs

     total energy              =   -3518.01389797 Ry
     Harris-Foulkes estimate   =   -3519.61412802 Ry
     estimated scf accuracy    <       3.50185340 Ry

     iteration #  3     ecut=   100.00 Ry     beta=0.50
     Davidson diagonalization with overlap
     ethr =  5.61E-04,  avg # of iterations =  4.2

     total cpu time spent up to now is     1011.0 secs

     total energy              =   -3518.72963884 Ry
     Harris-Foulkes estimate   =   -3518.86247014 Ry
     estimated scf accuracy    <       0.39755064 Ry

     iteration #  4     ecut=   100.00 Ry     beta=0.50
     Davidson diagonalization with overlap
     ethr =  6.37E-05,  avg # of iterations = 10.5

     total cpu time spent up to now is     1355.7 secs

     total energy              =   -3518.78154788 Ry
     Harris-Foulkes estimate   =   -3518.81843006 Ry
     estimated scf accuracy    <       0.09861275 Ry

     iteration #  5     ecut=   100.00 Ry     beta=0.50
     Davidson diagonalization with overlap
     ethr =  1.58E-05,  avg # of iterations =  4.5

     total cpu time spent up to now is     1612.9 secs

     total energy              =   -3518.79931846 Ry
     Harris-Foulkes estimate   =   -3518.80660891 Ry
     estimated scf accuracy    <       0.02012270 Ry

     iteration #  6     ecut=   100.00 Ry     beta=0.50
     Davidson diagonalization with overlap
     ethr =  3.22E-06,  avg # of iterations =  6.0

     total cpu time spent up to now is     1877.8 secs

     total energy              =   -3518.80320652 Ry
     Harris-Foulkes estimate   =   -3518.80528498 Ry
     estimated scf accuracy    <       0.00561413 Ry

     iteration #  7     ecut=   100.00 Ry     beta=0.50
     Davidson diagonalization with overlap
     ethr =  9.00E-07,  avg # of iterations =  2.0

     total cpu time spent up to now is     2092.3 secs

     total energy              =   -3518.80435566 Ry
     Harris-Foulkes estimate   =   -3518.80455587 Ry
     estimated scf accuracy    <       0.00066616 Ry

     iteration #  8     ecut=   100.00 Ry     beta=0.50
     Davidson diagonalization with overlap
     ethr =  1.07E-07,  avg # of iterations =  3.0

     total cpu time spent up to now is     2372.8 secs

     total energy              =   -3518.80454382 Ry
     Harris-Foulkes estimate   =   -3518.80459931 Ry
     estimated scf accuracy    <       0.00016760 Ry

     iteration #  9     ecut=   100.00 Ry     beta=0.50
     Davidson diagonalization with overlap
     ethr =  2.69E-08,  avg # of iterations =  2.0

     total cpu time spent up to now is     2584.9 secs

     total energy              =   -3518.80457626 Ry
     Harris-Foulkes estimate   =   -3518.80458104 Ry
     estimated scf accuracy    <       0.00002042 Ry

     iteration # 10     ecut=   100.00 Ry     beta=0.50
     Davidson diagonalization with overlap
     ethr =  3.27E-09,  avg # of iterations =  4.0

     total cpu time spent up to now is     2896.9 secs

     total energy              =   -3518.80458316 Ry
     Harris-Foulkes estimate   =   -3518.80458387 Ry
     estimated scf accuracy    <       0.00000382 Ry

     iteration # 11     ecut=   100.00 Ry     beta=0.50
     Davidson diagonalization with overlap
     ethr =  6.13E-10,  avg # of iterations =  3.0

     total cpu time spent up to now is     3109.9 secs

     total energy              =   -3518.80458377 Ry
     Harris-Foulkes estimate   =   -3518.80458398 Ry
     estimated scf accuracy    <       0.00000073 Ry

     iteration # 12     ecut=   100.00 Ry     beta=0.50
     Davidson diagonalization with overlap
     ethr =  1.17E-10,  avg # of iterations =  3.0

     total cpu time spent up to now is     3385.9 secs

     total energy              =   -3518.80458399 Ry
     Harris-Foulkes estimate   =   -3518.80458400 Ry
     estimated scf accuracy    <       0.00000012 Ry

     iteration # 13     ecut=   100.00 Ry     beta=0.50
     Davidson diagonalization with overlap
     ethr =  1.86E-11,  avg # of iterations =  2.0

     total cpu time spent up to now is     3614.6 secs

     total energy              =   -3518.80458401 Ry
     Harris-Foulkes estimate   =   -3518.80458402 Ry
     estimated scf accuracy    <       0.00000003 Ry

     iteration # 14     ecut=   100.00 Ry     beta=0.50
     Davidson diagonalization with overlap
     ethr =  4.62E-12,  avg # of iterations =  2.0

     total cpu time spent up to now is     3834.4 secs

     End of self-consistent calculation

          k = 0.0000 0.0000 0.0000 (182377 PWs)   bands (ev):

   -24.0171 -24.0161 -24.0091 -24.0081 -23.9910 -23.9900 -23.9882 -23.9872
   -22.6714 -22.6707 -22.6644 -22.6637 -22.6468 -22.6461 -22.6410 -22.6403
   -20.4208 -20.4204 -20.3916 -20.3915 -20.3790 -20.3788 -20.3745 -20.3745
   -19.1640 -19.1620 -19.1614 -19.1598 -19.1582 -19.1578 -19.1373 -19.1346
   -18.2731 -18.2625 -18.2618 -18.2432 -18.2324 -18.2237 -18.2053 -18.1983
   -18.1597 -18.1547 -18.1352 -18.1230 -18.1216 -18.1010 -18.0975 -18.0959
   -17.9234 -17.9198 -17.8940 -17.8749 -17.8368 -17.8280 -17.8265 -17.8245
   -17.6670 -17.6562 -17.6376 -17.6370 -17.6085 -17.6015 -17.6010 -17.6007
   -15.8471 -15.8467 -15.8395 -15.8391 -15.8286 -15.8272 -15.8269 -15.8256
   -12.6220 -12.6103 -12.5762 -12.5648 -12.5635 -12.5529 -12.5483 -12.5354
   -11.5052 -11.4901 -11.4847 -11.4751 -11.4710 -11.4702 -11.4556 -11.4507
   -10.1508 -10.1279 -10.1263 -10.1215 -10.0413 -10.0352 -10.0210 -10.0012
    -9.5501  -9.5177  -9.5124  -9.4903  -9.3519  -9.3389  -9.3248  -9.2801
    -8.2807  -8.2723  -8.2436  -8.2256  -8.1264  -8.1255  -8.0758  -8.0656
    -7.4149  -7.3683  -7.2806  -7.2567  -7.2253  -7.1656  -7.1244  -7.1105
    -7.0934  -7.0642  -7.0163  -7.0122  -6.9588  -6.9378  -6.9316  -6.8929
    -6.8822  -6.8654  -6.8278  -6.8113  -6.5437  -6.5420  -6.5046  -6.4845
    -6.4828  -6.4689  -6.3971  -6.3236  -6.3095  -6.2857  -6.2274  -6.2172
    -6.1711  -6.1434  -6.1350  -6.1287  -6.1002  -6.0756  -6.0444  -5.9966
    -5.7668  -5.7434  -5.6548  -5.6035  -5.6033  -5.5867  -5.5522  -5.5269
    -5.4938  -5.4932  -5.4567  -5.4385  -5.4023  -5.3812  -5.2843  -5.2559
    -5.1156  -5.1098  -5.0584  -5.0342  -4.9953  -4.9848  -4.7620  -4.7316
    -4.7116  -4.7007  -4.5342  -4.5310  -4.4366  -4.4182  -4.3672  -4.3613
    -4.2458  -4.2311  -4.0627  -4.0502  -4.0500  -4.0489  -3.9665  -3.9557
    -3.1507  -3.1444  -3.0017  -2.9885  -2.9197  -2.8785  -2.8747  -2.8623
    -2.7866  -2.7582  -2.7016  -2.6906  -2.6812  -2.6437  -2.6308  -2.6231
    -2.5577  -2.5468  -2.5458  -2.4065  -2.3858  -2.3795  -2.3776  -2.3676
    -2.3310  -2.2945  -2.2945  -2.2708  -2.2694  -2.2668  -2.2493  -2.2185
    -2.2046  -2.1730  -2.1416  -2.1363  -2.0451  -1.9283  -1.8968  -1.8847
    -1.8756  -1.8319  -1.8219  -1.8048  -1.7771  -1.7756  -1.7643  -1.7263
    -1.5717  -1.5375  -1.5170  -1.4994  -1.4979  -1.4518  -1.3960  -1.3687
    -1.0187  -0.9702  -0.9692  -0.9461  -0.9143  -0.8800  -0.8703  -0.8661
    -0.8330  -0.8114  -0.7174  -0.7068  -0.6875  -0.6807  -0.6079  -0.5916
    -0.5906  -0.5758  -0.5627  -0.5531  -0.5160  -0.5126  -0.5039  -0.4512
    -0.4512  -0.4146  -0.4030  -0.3898  -0.3774  -0.3755  -0.3020  -0.3017
    -0.2875  -0.2810  -0.2764  -0.2654  -0.2414  -0.2405  -0.2176  -0.2174
     0.2979   0.3159   0.3300   0.3335   0.3358   0.3477   0.3537   0.3872
     0.3919   0.4163   0.4188   0.4398   0.4821   0.5038   0.5060   0.5156
     0.5257   0.5323   0.6957   0.6962   0.7022   0.7124   0.9199   0.9314
     3.9274   3.9392   3.9964   4.0036   4.0479   4.0498   4.0675   4.0783
     4.6369   4.6453   4.7443   4.7529   4.7583   4.7638   4.8965   4.9057
     5.9627   5.9692   6.1907   6.1962   6.2499   6.2529   6.3586   6.3659
     6.6960   6.7242   6.7707   6.7748   6.8154   6.8308   6.8852   6.8875
     7.1042   7.2268   7.5529   7.9866   8.3025   8.5042   8.5097   8.5637
     8.5642   8.7141   8.8064   8.8657   8.9270   8.9536   8.9708   8.9852
     9.0076   9.0368   9.0411   9.0490   9.0779   9.1591   9.2063   9.2275
     9.2296   9.2325   9.2892   9.2960   9.2996   9.3460

          k = 0.0000 0.0000 0.9613 (182442 PWs)   bands (ev):

   -24.0108 -24.0098 -24.0037 -24.0027 -23.9978 -23.9968 -23.9931 -23.9922
   -22.6653 -22.6646 -22.6586 -22.6579 -22.6529 -22.6523 -22.6468 -22.6462
   -20.4094 -20.4091 -20.3885 -20.3884 -20.3863 -20.3861 -20.3822 -20.3820
   -19.1653 -19.1634 -19.1624 -19.1599 -19.1524 -19.1502 -19.1420 -19.1394
   -18.2700 -18.2643 -18.2573 -18.2479 -18.2242 -18.2184 -18.2094 -18.2069
   -18.1449 -18.1439 -18.1345 -18.1223 -18.1159 -18.1145 -18.1097 -18.1040
   -17.9180 -17.9089 -17.9035 -17.8865 -17.8346 -17.8305 -17.8256 -17.8248
   -17.6594 -17.6508 -17.6445 -17.6413 -17.6061 -17.6026 -17.5998 -17.5996
   -15.8425 -15.8425 -15.8356 -15.8356 -15.8337 -15.8328 -15.8292 -15.8283
   -12.6041 -12.5924 -12.5736 -12.5678 -12.5673 -12.5611 -12.5559 -12.5549
   -11.5020 -11.4946 -11.4825 -11.4778 -11.4705 -11.4697 -11.4535 -11.4511
   -10.1457 -10.1340 -10.1261 -10.1226 -10.0353 -10.0251 -10.0242 -10.0077
    -9.5473  -9.5331  -9.5068  -9.4978  -9.3505  -9.3459  -9.3093  -9.2888
    -8.2721  -8.2604  -8.2534  -8.2372  -8.1152  -8.1080  -8.0889  -8.0789
    -7.4073  -7.3853  -7.2746  -7.2630  -7.2176  -7.1905  -7.1258  -7.1241
    -7.0586  -7.0460  -7.0244  -7.0131  -6.9242  -6.9159  -6.9101  -6.8937
    -6.8309  -6.8046  -6.7682  -6.7350  -6.6384  -6.6334  -6.5899  -6.5857
    -6.4935  -6.4832  -6.3651  -6.3232  -6.2837  -6.2809  -6.2501  -6.2078
    -6.1620  -6.1196  -6.1122  -6.0957  -6.0813  -6.0811  -6.0665  -6.0273
    -5.7628  -5.7510  -5.6428  -5.6152  -5.5844  -5.5773  -5.5651  -5.5249
    -5.5026  -5.4929  -5.4645  -5.4116  -5.4097  -5.3498  -5.3181  -5.2604
    -5.0965  -5.0582  -5.0368  -5.0086  -4.9942  -4.9565  -4.8792  -4.8359
    -4.6896  -4.6772  -4.5614  -4.5419  -4.4806  -4.4647  -4.4189  -4.3960
    -4.1462  -4.1359  -4.0865  -4.0847  -4.0825  -4.0802  -4.0051  -3.9966
    -3.1047  -3.0956  -3.0324  -3.0199  -2.9194  -2.8817  -2.8527  -2.8506
    -2.7687  -2.7122  -2.6449  -2.6321  -2.6197  -2.6096  -2.5971  -2.5719
    -2.5313  -2.5054  -2.4976  -2.4544  -2.4427  -2.4253  -2.4028  -2.3653
    -2.3398  -2.3208  -2.3190  -2.3087  -2.2412  -2.2252  -2.2174  -2.2105
    -2.1848  -2.1828  -2.1731  -2.1701  -1.9896  -1.9323  -1.9226  -1.9156
    -1.9017  -1.8812  -1.8569  -1.8157  -1.8146  -1.7954  -1.7732  -1.7660
    -1.4984  -1.4809  -1.4750  -1.4739  -1.4625  -1.4308  -1.3992  -1.3873
    -1.0124  -0.9844  -0.9797  -0.9772  -0.9038  -0.8862  -0.8814  -0.8810
    -0.7869  -0.7704  -0.7111  -0.7086  -0.6671  -0.6505  -0.6135  -0.5956
    -0.5733  -0.5671  -0.5590  -0.5337  -0.5204  -0.5111  -0.5022  -0.4931
    -0.4614  -0.4355  -0.4060  -0.3981  -0.3927  -0.3819  -0.3424  -0.3258
    -0.3152  -0.3003  -0.2975  -0.2728  -0.2302  -0.2290  -0.2279  -0.2198
     0.3030   0.3112   0.3192   0.3283   0.3417   0.3466   0.3607   0.3705
     0.4194   0.4327   0.4592   0.4635   0.4761   0.4795   0.5019   0.5239
     0.6201   0.6285   0.6837   0.6845   0.6914   0.6942   0.8201   0.8308
     3.9363   3.9397   3.9649   3.9652   4.0555   4.0584   4.0652   4.0666
     4.6750   4.6830   4.7318   4.7398   4.7912   4.8033   4.8661   4.8753
     6.0650   6.0691   6.2046   6.2109   6.2326   6.2353   6.2637   6.2691
     6.7008   6.7308   6.7406   6.7544   6.8164   6.8359   6.8570   6.8675
     7.4017   7.5216   7.8121   8.1114   8.1552   8.1836   8.3874   8.4366
     8.4934   8.6617   8.6625   8.8501   8.8972   8.9436   8.9529   8.9929
     9.0033   9.0125   9.0269   9.0376   9.0624   9.0694   9.1209   9.1346
     9.1779   9.2069   9.2124   9.2418   9.2778   9.3181

          k = 0.0000-1.3467 0.0000 (182496 PWs)   bands (ev):

   -24.0165 -24.0155 -24.0085 -24.0076 -23.9905 -23.9896 -23.9878 -23.9868
   -22.6743 -22.6737 -22.6669 -22.6662 -22.6468 -22.6462 -22.6414 -22.6408
   -20.4085 -20.4083 -20.4082 -20.4080 -20.3745 -20.3745 -20.3743 -20.3743
   -19.1610 -19.1602 -19.1584 -19.1579 -19.1566 -19.1560 -19.1340 -19.1333
   -18.2508 -18.2500 -18.2434 -18.2430 -18.2231 -18.2223 -18.2150 -18.2146
   -18.1401 -18.1393 -18.1111 -18.1100 -18.1084 -18.1076 -18.0959 -18.0950
   -17.9007 -17.9003 -17.8909 -17.8904 -17.8829 -17.8824 -17.8584 -17.8578
   -17.6548 -17.6543 -17.6459 -17.6454 -17.6012 -17.6006 -17.5777 -17.5771
   -15.8687 -15.8687 -15.8556 -15.8556 -15.8483 -15.8483 -15.8329 -15.8329
   -12.5971 -12.5971 -12.5818 -12.5817 -12.5575 -12.5575 -12.5491 -12.5491
   -11.4845 -11.4844 -11.4675 -11.4674 -11.4421 -11.4420 -11.4394 -11.4392
   -10.0706 -10.0702 -10.0661 -10.0657 -10.0391 -10.0387 -10.0164 -10.0160
    -9.4322  -9.4322  -9.4278  -9.4278  -9.4112  -9.4111  -9.3942  -9.3942
    -8.2528  -8.2528  -8.2477  -8.2475  -8.1869  -8.1868  -8.1736  -8.1735
    -7.3270  -7.3266  -7.3077  -7.3074  -7.2632  -7.2632  -7.2215  -7.2214
    -7.0872  -7.0868  -7.0555  -7.0552  -6.9227  -6.9225  -6.8836  -6.8833
    -6.8032  -6.8028  -6.7420  -6.7418  -6.6930  -6.6926  -6.6504  -6.6502
    -6.3257  -6.3253  -6.2807  -6.2803  -6.2304  -6.2296  -6.2177  -6.2169
    -6.1543  -6.1540  -6.1011  -6.1007  -6.0608  -6.0604  -6.0118  -6.0116
    -5.8824  -5.8820  -5.7394  -5.7390  -5.6405  -5.6402  -5.5812  -5.5807
    -5.4415  -5.4413  -5.4268  -5.4263  -5.2964  -5.2963  -5.2843  -5.2842
    -5.1017  -5.1017  -5.0480  -5.0479  -4.8970  -4.8970  -4.8682  -4.8681
    -4.6692  -4.6689  -4.6525  -4.6521  -4.4036  -4.4030  -4.3901  -4.3896
    -4.1343  -4.1342  -4.1284  -4.1283  -4.0112  -4.0107  -4.0043  -4.0038
    -3.2510  -3.2505  -3.1125  -3.1121  -2.9110  -2.9105  -2.8641  -2.8638
    -2.7944  -2.7943  -2.7112  -2.7109  -2.6602  -2.6600  -2.6139  -2.6138
    -2.5283  -2.5282  -2.5111  -2.5106  -2.4003  -2.4001  -2.3442  -2.3442
    -2.3396  -2.3395  -2.2864  -2.2861  -2.2040  -2.2039  -2.1952  -2.1951
    -2.1514  -2.1512  -2.1178  -2.1178  -1.8636  -1.8633  -1.7965  -1.7960
    -1.7941  -1.7940  -1.7251  -1.7248  -1.6696  -1.6696  -1.6117  -1.6114
    -1.5239  -1.5239  -1.4492  -1.4487  -1.4171  -1.4168  -1.3927  -1.3922
    -1.0671  -1.0661  -0.9708  -0.9700  -0.9636  -0.9627  -0.9448  -0.9439
    -0.8179  -0.8171  -0.7056  -0.7047  -0.6981  -0.6975  -0.6025  -0.6022
    -0.5754  -0.5754  -0.5476  -0.5474  -0.5321  -0.5320  -0.4737  -0.4735
    -0.4574  -0.4569  -0.4113  -0.4110  -0.3922  -0.3921  -0.3733  -0.3724
    -0.2913  -0.2909  -0.2828  -0.2824  -0.2536  -0.2530  -0.1917  -0.1909
     0.3198   0.3202   0.3335   0.3338   0.3492   0.3495   0.3687   0.3687
     0.3884   0.3888   0.3983   0.3984   0.4432   0.4435   0.4590   0.4595
     0.6303   0.6304   0.6362   0.6362   0.8265   0.8266   0.8274   0.8274
     3.9281   3.9281   4.0786   4.0787   4.0843   4.0843   4.1292   4.1292
     4.6377   4.6385   4.7509   4.7517   4.7572   4.7580   4.8983   4.8991
     6.0602   6.0605   6.0666   6.0669   6.3200   6.3206   6.3277   6.3283
     6.6585   6.6588   6.7586   6.7589   6.7783   6.7786   6.8852   6.8855
     7.3670   7.3674   7.7547   7.7553   8.0573   8.0576   8.3938   8.3940
     8.4804   8.4806   8.7164   8.7166   8.7873   8.7877   8.8036   8.8040
     9.0465   9.0467   9.0504   9.0507   9.0898   9.0901   9.1364   9.1365
     9.2533   9.2534   9.2581   9.2584   9.4618   9.4619

          k = 0.0000-1.3467 0.9613 (182524 PWs)   bands (ev):

   -24.0103 -24.0093 -24.0032 -24.0022 -23.9974 -23.9964 -23.9927 -23.9917
   -22.6675 -22.6669 -22.6605 -22.6599 -22.6537 -22.6531 -22.6478 -22.6471
   -20.4001 -20.3999 -20.3999 -20.3997 -20.3831 -20.3830 -20.3829 -20.3828
   -19.1621 -19.1613 -19.1599 -19.1593 -19.1493 -19.1486 -19.1387 -19.1380
   -18.2453 -18.2444 -18.2410 -18.2403 -18.2239 -18.2230 -18.2203 -18.2196
   -18.1334 -18.1325 -18.1197 -18.1187 -18.1040 -18.1031 -18.0988 -18.0979
   -17.8987 -17.8982 -17.8940 -17.8935 -17.8768 -17.8762 -17.8644 -17.8638
   -17.6534 -17.6528 -17.6489 -17.6483 -17.5947 -17.5940 -17.5830 -17.5823
   -15.8650 -15.8650 -15.8584 -15.8584 -15.8446 -15.8446 -15.8369 -15.8368
   -12.5883 -12.5882 -12.5758 -12.5755 -12.5663 -12.5658 -12.5568 -12.5566
   -11.4747 -11.4745 -11.4602 -11.4600 -11.4539 -11.4538 -11.4455 -11.4454
   -10.0645 -10.0640 -10.0535 -10.0529 -10.0469 -10.0463 -10.0280 -10.0275
    -9.4323  -9.4322  -9.4299  -9.4299  -9.4066  -9.4065  -9.3983  -9.3982
    -8.2390  -8.2390  -8.2314  -8.2312  -8.2040  -8.2037  -8.1926  -8.1925
    -7.3205  -7.3201  -7.3104  -7.3100  -7.2574  -7.2573  -7.2385  -7.2384
    -7.0707  -7.0704  -7.0535  -7.0532  -6.9106  -6.9104  -6.8915  -6.8912
    -6.7485  -6.7480  -6.6960  -6.6956  -6.6912  -6.6910  -6.6509  -6.6507
    -6.3376  -6.3371  -6.3189  -6.3184  -6.2624  -6.2616  -6.2584  -6.2577
    -6.1260  -6.1256  -6.0932  -6.0929  -6.0882  -6.0877  -6.0451  -6.0449
    -5.8324  -5.8320  -5.7640  -5.7635  -5.6118  -5.6115  -5.5786  -5.5782
    -5.4241  -5.4239  -5.4086  -5.4083  -5.3405  -5.3403  -5.3401  -5.3400
    -5.0403  -5.0403  -4.9992  -4.9991  -4.9381  -4.9380  -4.9038  -4.9037
    -4.6142  -4.6138  -4.6040  -4.6036  -4.4948  -4.4942  -4.4694  -4.4689
    -4.1131  -4.1127  -4.1080  -4.1075  -4.0489  -4.0484  -4.0432  -4.0427
    -3.2039  -3.2034  -3.1349  -3.1344  -2.9051  -2.9046  -2.8595  -2.8591
    -2.7547  -2.7542  -2.6517  -2.6513  -2.5899  -2.5897  -2.5454  -2.5453
    -2.5182  -2.5181  -2.4956  -2.4953  -2.4279  -2.4277  -2.3851  -2.3851
    -2.3455  -2.3453  -2.3202  -2.3201  -2.2270  -2.2268  -2.1814  -2.1813
    -2.1565  -2.1563  -2.1306  -2.1304  -1.8781  -1.8778  -1.8426  -1.8425
    -1.7406  -1.7405  -1.7288  -1.7287  -1.6740  -1.6739  -1.6453  -1.6452
    -1.4997  -1.4997  -1.4602  -1.4600  -1.4170  -1.4169  -1.4137  -1.4135
    -1.0264  -1.0255  -0.9805  -0.9796  -0.9509  -0.9499  -0.9346  -0.9337
    -0.7792  -0.7785  -0.7183  -0.7176  -0.6526  -0.6519  -0.6041  -0.6038
    -0.5913  -0.5911  -0.5622  -0.5621  -0.5328  -0.5324  -0.5048  -0.5042
    -0.4506  -0.4501  -0.4189  -0.4183  -0.3859  -0.3854  -0.3830  -0.3829
    -0.3335  -0.3331  -0.3252  -0.3249  -0.2295  -0.2288  -0.2051  -0.2044
     0.3038   0.3041   0.3184   0.3186   0.3392   0.3394   0.3518   0.3520
     0.4265   0.4267   0.4362   0.4364   0.4484   0.4486   0.4592   0.4596
     0.6767   0.6768   0.6845   0.6845   0.7768   0.7769   0.7789   0.7790
     3.9565   3.9565   4.0301   4.0301   4.0905   4.0906   4.1190   4.1190
     4.6693   4.6700   4.7287   4.7295   4.7909   4.7917   4.8646   4.8653
     6.1298   6.1302   6.1342   6.1346   6.2610   6.2615   6.2644   6.2649
     6.6787   6.6791   6.7254   6.7257   6.7933   6.7936   6.8402   6.8405
     7.6429   7.6435   7.8607   7.8614   8.2406   8.2411   8.3098   8.3102
     8.4736   8.4742   8.6016   8.6019   8.7602   8.7605   8.8200   8.8203
     8.9520   8.9522   9.0394   9.0396   9.0796   9.0801   9.1357   9.1362
     9.1901   9.1905   9.2527   9.2532   9.3012   9.3020

     highest occupied, lowest unoccupied level (ev):     0.9314    3.9274

!    total energy              =   -3518.80458402 Ry
     Harris-Foulkes estimate   =   -3518.80458402 Ry
     estimated scf accuracy    <          6.2E-09 Ry

     total all-electron energy =    -13161.360960 Ry

     The total energy is the sum of the following terms:

     one-electron contribution =   -1771.55570529 Ry
     hartree contribution      =    1140.93736424 Ry
     xc contribution           =    -689.17602530 Ry
     ewald contribution        =   -1260.68116933 Ry
     Dispersion Correction     =      -0.69216305 Ry
     one-center paw contrib.   =    -937.63688528 Ry

     convergence has been achieved in  14 iterations

     Forces acting on atoms (cartesian axes, Ry/au):

     atom    1 type  2   force =     0.00060026   -0.00076223    0.00016637
     atom    2 type  2   force =    -0.00084827    0.00044869    0.00042320
     atom    3 type  2   force =    -0.00082924   -0.00051485   -0.00042042
     atom    4 type  2   force =     0.00086985    0.00062303   -0.00042508
     atom    5 type  2   force =    -0.00060026    0.00076223   -0.00016637
     atom    6 type  2   force =     0.00084827   -0.00044869   -0.00042320
     atom    7 type  2   force =     0.00082924    0.00051485    0.00042042
     atom    8 type  2   force =    -0.00086985   -0.00062303    0.00042508
     atom    9 type  2   force =    -0.00112521    0.00126078    0.00093913
     atom   10 type  2   force =     0.00127232   -0.00120516    0.00082098
     atom   11 type  2   force =     0.00118998    0.00122948   -0.00089581
     atom   12 type  2   force =    -0.00122324   -0.00121065   -0.00084680
     atom   13 type  2   force =     0.00112521   -0.00126078   -0.00093913
     atom   14 type  2   force =    -0.00127232    0.00120516   -0.00082098
     atom   15 type  2   force =    -0.00118998   -0.00122948    0.00089581
     atom   16 type  2   force =     0.00122324    0.00121065    0.00084680
     atom   17 type  2   force =    -0.00024192    0.00164486    0.00022443
     atom   18 type  2   force =     0.00010101   -0.00173471    0.00035368
     atom   19 type  2   force =     0.00022555    0.00164202   -0.00022807
     atom   20 type  2   force =    -0.00026263   -0.00166897   -0.00020647
     atom   21 type  2   force =     0.00024192   -0.00164486   -0.00022443
     atom   22 type  2   force =    -0.00010101    0.00173471   -0.00035368
     atom   23 type  2   force =    -0.00022555   -0.00164202    0.00022807
     atom   24 type  2   force =     0.00026263    0.00166897    0.00020647
     atom   25 type  2   force =     0.00040793   -0.00229522   -0.00046315
     atom   26 type  2   force =    -0.00004213    0.00209629   -0.00073235
     atom   27 type  2   force =    -0.00028910   -0.00203644    0.00051623
     atom   28 type  2   force =     0.00048244    0.00215323    0.00037559
     atom   29 type  2   force =    -0.00040793    0.00229522    0.00046315
     atom   30 type  2   force =     0.00004213   -0.00209629    0.00073235
     atom   31 type  2   force =     0.00028910    0.00203644   -0.00051623
     atom   32 type  2   force =    -0.00048244   -0.00215323   -0.00037559
     atom   33 type  3   force =    -0.00012169    0.00090972    0.00038421
     atom   34 type  3   force =     0.00004533   -0.00091408    0.00044761
     atom   35 type  3   force =     0.00011133    0.00086548   -0.00038890
     atom   36 type  3   force =    -0.00015000   -0.00089214   -0.00034941
     atom   37 type  3   force =     0.00012169   -0.00090972   -0.00038421
     atom   38 type  3   force =    -0.00004533    0.00091408   -0.00044761
     atom   39 type  3   force =    -0.00011133   -0.00086548    0.00038890
     atom   40 type  3   force =     0.00015000    0.00089214    0.00034941
     atom   41 type  1   force =    -0.00100118    0.00353766   -0.00108451
     atom   42 type  1   force =     0.00076585   -0.00263545   -0.00106134
     atom   43 type  1   force =     0.00097941    0.00274051    0.00121886
     atom   44 type  1   force =    -0.00111321   -0.00317386    0.00122488
     atom   45 type  1   force =     0.00100118   -0.00353766    0.00108451
     atom   46 type  1   force =    -0.00076585    0.00263545    0.00106134
     atom   47 type  1   force =    -0.00097941   -0.00274051   -0.00121886
     atom   48 type  1   force =     0.00111321    0.00317386   -0.00122488
     atom   49 type  1   force =    -0.00001934   -0.00043259    0.00069691
     atom   50 type  1   force =     0.00008015    0.00048431    0.00055527
     atom   51 type  1   force =     0.00004941   -0.00052315   -0.00053926
     atom   52 type  1   force =    -0.00006320    0.00040788   -0.00054706
     atom   53 type  1   force =     0.00001934    0.00043259   -0.00069691
     atom   54 type  1   force =    -0.00008015   -0.00048431   -0.00055527
     atom   55 type  1   force =    -0.00004941    0.00052315    0.00053926
     atom   56 type  1   force =     0.00006320   -0.00040788    0.00054706
     atom   57 type  3   force =    -0.00089847   -0.00064591   -0.00001427
     atom   58 type  3   force =     0.00092800    0.00059696    0.00004194
     atom   59 type  3   force =     0.00091584   -0.00059071   -0.00003245
     atom   60 type  3   force =    -0.00090516    0.00061948   -0.00001449
     atom   61 type  3   force =     0.00089847    0.00064591    0.00001427
     atom   62 type  3   force =    -0.00092800   -0.00059696   -0.00004194
     atom   63 type  3   force =    -0.00091584    0.00059071    0.00003245
     atom   64 type  3   force =     0.00090516   -0.00061948    0.00001449
     atom   65 type  3   force =    -0.00045035    0.00026022    0.00013421
     atom   66 type  3   force =     0.00044011   -0.00028516    0.00013195
     atom   67 type  3   force =     0.00044278    0.00028705   -0.00012332
     atom   68 type  3   force =    -0.00043530   -0.00027056   -0.00011338
     atom   69 type  3   force =     0.00045035   -0.00026022   -0.00013421
     atom   70 type  3   force =    -0.00044011    0.00028516   -0.00013195
     atom   71 type  3   force =    -0.00044278   -0.00028705    0.00012332
     atom   72 type  3   force =     0.00043530    0.00027056    0.00011338
     atom   73 type  1   force =     0.00039680   -0.00001919   -0.00056423
     atom   74 type  1   force =    -0.00029229    0.00016910   -0.00032862
     atom   75 type  1   force =    -0.00044009   -0.00044273   -0.00036696
     atom   76 type  1   force =     0.00047696    0.00077827   -0.00093067
     atom   77 type  1   force =    -0.00039680    0.00001919    0.00056423
     atom   78 type  1   force =     0.00029229   -0.00016910    0.00032862
     atom   79 type  1   force =     0.00044009    0.00044273    0.00036696
     atom   80 type  1   force =    -0.00047696   -0.00077827    0.00093067
     atom   81 type  4   force =    -0.00008025   -0.00112081    0.00006387
     atom   82 type  4   force =    -0.00008710    0.00109896    0.00002307
     atom   83 type  4   force =     0.00016048   -0.00107329   -0.00001709
     atom   84 type  4   force =    -0.00018217    0.00102935    0.00008945
     atom   85 type  4   force =     0.00008025    0.00112081   -0.00006387
     atom   86 type  4   force =     0.00008710   -0.00109896   -0.00002307
     atom   87 type  4   force =    -0.00016048    0.00107329    0.00001709
     atom   88 type  4   force =     0.00018217   -0.00102935   -0.00008945
     atom   89 type  4   force =    -0.00063100    0.00038354    0.00065373
     atom   90 type  4   force =     0.00061987   -0.00047992    0.00048668
     atom   91 type  4   force =     0.00064651    0.00074414    0.00009846
     atom   92 type  4   force =    -0.00064244   -0.00100470    0.00065782
     atom   93 type  4   force =     0.00063100   -0.00038354   -0.00065373
     atom   94 type  4   force =    -0.00061987    0.00047992   -0.00048668
     atom   95 type  4   force =    -0.00064651   -0.00074414   -0.00009846
     atom   96 type  4   force =     0.00064244    0.00100470   -0.00065782
     atom   97 type  2   force =     0.00081787   -0.00311118    0.00087276
     atom   98 type  2   force =    -0.00068969    0.00277650    0.00081088
     atom   99 type  2   force =    -0.00086908   -0.00281628   -0.00095394
     atom  100 type  2   force =     0.00079982    0.00308388   -0.00087497
     atom  101 type  2   force =    -0.00081787    0.00311118   -0.00087276
     atom  102 type  2   force =     0.00068969   -0.00277650   -0.00081088
     atom  103 type  2   force =     0.00086908    0.00281628    0.00095394
     atom  104 type  2   force =    -0.00079982   -0.00308388    0.00087497
     atom  105 type  2   force =    -0.00144849    0.00216644    0.00008778
     atom  106 type  2   force =     0.00099415   -0.00208467    0.00042074
     atom  107 type  2   force =     0.00203723    0.00306781    0.00029859
     atom  108 type  2   force =    -0.00132157   -0.00232299   -0.00017661
     atom  109 type  2   force =     0.00144849   -0.00216644   -0.00008778
     atom  110 type  2   force =    -0.00099415    0.00208467   -0.00042074
     atom  111 type  2   force =    -0.00203723   -0.00306781   -0.00029859
     atom  112 type  2   force =     0.00132157    0.00232299    0.00017661
     atom  113 type  4   force =     0.00275053   -0.00154769    0.00025682
     atom  114 type  4   force =    -0.00268609    0.00152204    0.00021886
     atom  115 type  4   force =    -0.00297050   -0.00219833   -0.00038443
     atom  116 type  4   force =     0.00276352    0.00164295   -0.00026670
     atom  117 type  4   force =    -0.00275053    0.00154769   -0.00025682
     atom  118 type  4   force =     0.00268609   -0.00152204   -0.00021886
     atom  119 type  4   force =     0.00297050    0.00219833    0.00038443
     atom  120 type  4   force =    -0.00276352   -0.00164295    0.00026670
     atom  121 type  4   force =    -0.00103723    0.00030648    0.00007575
     atom  122 type  4   force =     0.00139673   -0.00037455   -0.00018081
     atom  123 type  4   force =     0.00073017    0.00014955   -0.00030972
     atom  124 type  4   force =    -0.00115903   -0.00030148    0.00000860
     atom  125 type  4   force =     0.00103723   -0.00030648   -0.00007575
     atom  126 type  4   force =    -0.00139673    0.00037455    0.00018081
     atom  127 type  4   force =    -0.00073017   -0.00014955    0.00030972
     atom  128 type  4   force =     0.00115903    0.00030148   -0.00000860
     atom  129 type  4   force =     0.00023692   -0.00013222    0.00024550
     atom  130 type  4   force =    -0.00028620    0.00032147    0.00033441
     atom  131 type  4   force =    -0.00022083    0.00019683   -0.00021989
     atom  132 type  4   force =     0.00023467    0.00021303   -0.00025788
     atom  133 type  4   force =    -0.00023692    0.00013222   -0.00024550
     atom  134 type  4   force =     0.00028620   -0.00032147   -0.00033441
     atom  135 type  4   force =     0.00022083   -0.00019683    0.00021989
     atom  136 type  4   force =    -0.00023467   -0.00021303    0.00025788
     atom  137 type  3   force =    -0.00006999    0.00061526    0.00014041
     atom  138 type  3   force =     0.00012771   -0.00070161    0.00006120
     atom  139 type  3   force =     0.00000087    0.00051083   -0.00025641
     atom  140 type  3   force =    -0.00009221   -0.00064485   -0.00011138
     atom  141 type  3   force =     0.00006999   -0.00061526   -0.00014041
     atom  142 type  3   force =    -0.00012771    0.00070161   -0.00006120
     atom  143 type  3   force =    -0.00000087   -0.00051083    0.00025641
     atom  144 type  3   force =     0.00009221    0.00064485    0.00011138
     atom  145 type  3   force =    -0.00012813   -0.00043087   -0.00029224
     atom  146 type  3   force =     0.00010009    0.00032774   -0.00024473
     atom  147 type  3   force =     0.00017445   -0.00065099    0.00033922
     atom  148 type  3   force =    -0.00010905    0.00037941    0.00027161
     atom  149 type  3   force =     0.00012813    0.00043087    0.00029224
     atom  150 type  3   force =    -0.00010009   -0.00032774    0.00024473
     atom  151 type  3   force =    -0.00017445    0.00065099   -0.00033922
     atom  152 type  3   force =     0.00010905   -0.00037941   -0.00027161
     atom  153 type  3   force =     0.00029385   -0.00018140    0.00042051
     atom  154 type  3   force =    -0.00019599    0.00023033    0.00050386
     atom  155 type  3   force =    -0.00031254   -0.00018742   -0.00043445
     atom  156 type  3   force =     0.00028478    0.00022428   -0.00047176
     atom  157 type  3   force =    -0.00029385    0.00018140   -0.00042051
     atom  158 type  3   force =     0.00019599   -0.00023033   -0.00050386
     atom  159 type  3   force =     0.00031254    0.00018742    0.00043445
     atom  160 type  3   force =    -0.00028478   -0.00022428    0.00047176

     Total force =     0.022340     Total SCF correction =     0.000175


     Computing stress (Cartesian axis) and pressure

          total   stress  (Ry/bohr**3)                   (kbar)     P=   -4.86
  -0.00003766   0.00000003   0.00000018         -5.54      0.00      0.03
   0.00000003  -0.00003583   0.00000008          0.00     -5.27      0.01
   0.00000018   0.00000008  -0.00002554          0.03      0.01     -3.76


     Writing output data file scf.save
 
     init_run     :    106.45s CPU    109.47s WALL (       1 calls)
     electrons    :   3636.45s CPU   3724.47s WALL (       1 calls)
     forces       :     58.64s CPU     59.09s WALL (       1 calls)
     stress       :    307.48s CPU    308.00s WALL (       1 calls)

     Called by init_run:
     wfcinit      :     95.79s CPU     98.57s WALL (       1 calls)
     potinit      :      3.70s CPU      3.74s WALL (       1 calls)

     Called by electrons:
     c_bands      :   3279.60s CPU   3354.26s WALL (      14 calls)
     sum_band     :    334.37s CPU    345.16s WALL (      14 calls)
     v_of_rho     :      3.47s CPU      3.77s WALL (      15 calls)
     newd         :      9.07s CPU     11.38s WALL (      15 calls)
     PAW_pot      :      9.39s CPU      9.40s WALL (      15 calls)
     mix_rho      :      0.80s CPU      0.88s WALL (      14 calls)

     Called by c_bands:
     init_us_2    :     10.06s CPU     10.15s WALL (     124 calls)
     cegterg      :   3233.91s CPU   3308.48s WALL (      56 calls)

     Called by sum_band:
     sum_band:bec :      0.16s CPU      0.16s WALL (      56 calls)
     addusdens    :      9.45s CPU     11.65s WALL (      14 calls)

     Called by *egterg:
     h_psi        :   1624.04s CPU   1681.50s WALL (     269 calls)
     s_psi        :    436.03s CPU    436.06s WALL (     269 calls)
     g_psi        :      5.05s CPU      5.05s WALL (     209 calls)
     cdiaghg      :    190.80s CPU    190.81s WALL (     265 calls)

     Called by h_psi:
     h_psi:pot    :   1616.21s CPU   1673.54s WALL (     269 calls)
     h_psi:calbec :    435.00s CPU    435.33s WALL (     269 calls)
     vloc_psi     :    745.14s CPU    802.15s WALL (     269 calls)
     add_vuspsi   :    436.07s CPU    436.06s WALL (     269 calls)

     General routines
     calbec       :    662.23s CPU    662.72s WALL (     345 calls)
     fft          :      4.04s CPU      4.55s WALL (     219 calls)
     fftw         :    763.55s CPU    828.71s WALL (  133142 calls)
 
     Parallel routines
     fft_scatter  :    160.77s CPU    226.53s WALL (  133361 calls)
 
     PWSCF        :     1h 8m CPU        1h10m WALL

 
   This run was terminated on:   7:52:51   7Dec2017            

=------------------------------------------------------------------------------=
   JOB DONE.
=------------------------------------------------------------------------------=
