
     Program PWSCF v.6.1 (svn rev. 13369) starts on 20Dec2017 at 15:25:22 

     This program is part of the open-source Quantum ESPRESSO suite
     for quantum simulation of materials; please cite
         "P. Giannozzi et al., J. Phys.:Condens. Matter 21 395502 (2009);
          URL http://www.quantum-espresso.org", 
     in publications or presentations arising from this work. More details at
     http://www.quantum-espresso.org/quote

     Parallel version (MPI), running on     8 processors
     R & G space division:  proc/nbgrp/npool/nimage =       8
     Waiting for input...
     Reading input from standard input

     Current dimensions of program PWSCF are:
     Max number of different atomic species (ntypx) = 10
     Max number of k-points (npk) =  40000
     Max angular momentum in pseudopotentials (lmaxx) =  3
               file C.pbe-n-kjpaw_psl.0.1.UPF: wavefunction(s)  2P renormalized
               file N.pbe-n-kjpaw_psl.0.1.UPF: wavefunction(s)  2P renormalized
               file H.pbe-kjpaw_psl.0.1.UPF: wavefunction(s)  1S renormalized
               file O.pbe-n-kjpaw_psl.0.1.UPF: wavefunction(s)  2P renormalized

     -------------------------------------
     Parameters for Dispersion Correction:
     -------------------------------------
       atom      VdW radius       C_6     

        C          2.744         60.710
        N          2.640         42.670
        H          1.892          4.857
        O          2.536         24.284

     Subspace diagonalization in iterative solution of the eigenvalue problem:
     a serial algorithm will be used

 
     Parallelization info
     --------------------
     sticks:   dense  smooth     PW     G-vecs:    dense   smooth      PW
     Min        1502    1502    393               127714   127714   17174
     Max        1503    1503    394               127716   127716   17176
     Sum       12017   12017   3151              1021719  1021719  137405
 


     bravais-lattice index     =            0
     lattice parameter (alat)  =      25.7872  a.u.
     unit-cell volume          =    7563.1976 (a.u.)^3
     number of atoms/cell      =           96
     number of atomic types    =            4
     number of electrons       =       368.00
     number of Kohn-Sham states=          220
     kinetic-energy cutoff     =     100.0000  Ry
     charge density cutoff     =     400.0000  Ry
     convergence threshold     =      1.0E-08
     mixing beta               =       0.5000
     number of iterations used =            8  plain     mixing
     Exchange-correlation      =  SLA  PW   PBX  PBC ( 1  4  3  4 0 0)

     celldm(1)=  25.787203  celldm(2)=   0.000000  celldm(3)=   0.000000
     celldm(4)=   0.000000  celldm(5)=   0.000000  celldm(6)=   0.000000

     crystal axes: (cart. coord. in units of alat)
               a(1) = (   1.000000   0.000000   0.000000 )  
               a(2) = (   0.000000   0.567492   0.000000 )  
               a(3) = (  -0.026855   0.000000   0.777200 )  

     reciprocal axes: (cart. coord. in units 2 pi/alat)
               b(1) = (  1.000000  0.000000  0.034554 )  
               b(2) = (  0.000000  1.762138  0.000000 )  
               b(3) = (  0.000000  0.000000  1.286670 )  


     PseudoPot. # 1 for  C read from file:
     /scratch/ahofstet/pseudo/C.pbe-n-kjpaw_psl.0.1.UPF
     MD5 check sum: 430fe95172b1e11ef3f8ed03bac87931
     Pseudo is Projector augmented-wave + core cor, Zval =  4.0
     Generated using "atomic" code by A. Dal Corso  v.5.0.99 svn rev. 10869
     Shape of augmentation charge: BESSEL
     Using radial grid of 1073 points,  4 beta functions with: 
                l(1) =   0
                l(2) =   0
                l(3) =   1
                l(4) =   1
     Q(r) pseudized with 0 coefficients 


     PseudoPot. # 2 for  N read from file:
     /scratch/ahofstet/pseudo/N.pbe-n-kjpaw_psl.0.1.UPF
     MD5 check sum: f73187c8b701007e77325f868c9291d7
     Pseudo is Projector augmented-wave + core cor, Zval =  5.0
     Generated using "atomic" code by A. Dal Corso  v.5.0.99 svn rev. 10869
     Shape of augmentation charge: PSQ
     Using radial grid of 1085 points,  4 beta functions with: 
                l(1) =   0
                l(2) =   0
                l(3) =   1
                l(4) =   1
     Q(r) pseudized with 0 coefficients 


     PseudoPot. # 3 for  H read from file:
     /scratch/ahofstet/pseudo/H.pbe-kjpaw_psl.0.1.UPF
     MD5 check sum: 94e484f906d9e9773b2f6e52662335b2
     Pseudo is Projector augmented-wave, Zval =  1.0
     Generated using "atomic" code by A. Dal Corso  v.5.0.99 svn rev. 10869
     Shape of augmentation charge: PSQ
     Using radial grid of  929 points,  2 beta functions with: 
                l(1) =   0
                l(2) =   0
     Q(r) pseudized with 0 coefficients 


     PseudoPot. # 4 for  O read from file:
     /scratch/ahofstet/pseudo/O.pbe-n-kjpaw_psl.0.1.UPF
     MD5 check sum: 3f94a2996a3169367d6eb21d9b593f20
     Pseudo is Projector augmented-wave + core cor, Zval =  6.0
     Generated using "atomic" code by A. Dal Corso  v.5.0.99 svn rev. 10869
     Shape of augmentation charge: BESSEL
     Using radial grid of 1095 points,  4 beta functions with: 
                l(1) =   0
                l(2) =   0
                l(3) =   1
                l(4) =   1
     Q(r) pseudized with 0 coefficients 


     atomic species   valence    mass     pseudopotential
        C              4.00    12.01070      C( 1.00)
        N              5.00    14.00670      N( 1.00)
        H              1.00     1.00794      H( 1.00)
        O              6.00    15.99940      O( 1.00)

      2 Sym. Ops., with inversion, found



   Cartesian axes

     site n.     atom                  positions (alat units)
         1           O   tau(   1) = (   0.8511224   0.5002496   0.6475206  )
         2           O   tau(   2) = (   0.1086136   0.2164978   0.5182841  )
         3           O   tau(   3) = (   0.1220224   0.0672427   0.1296794  )
         4           O   tau(   4) = (   0.8645311   0.3509945   0.2589158  )
         5           O   tau(   5) = (   0.5520115   0.0873255   0.6758469  )
         6           O   tau(   6) = (   0.4077128   0.3710564   0.4899506  )
         7           O   tau(   7) = (   0.4211333   0.4801668   0.1013530  )
         8           O   tau(   8) = (   0.5654320   0.1964359   0.2872494  )
         9           N   tau(   9) = (   0.7066862   0.0140697   0.6929728  )
        10           N   tau(  10) = (   0.2530320   0.2978121   0.4728289  )
        11           N   tau(  11) = (   0.2664586   0.5534226   0.0842271  )
        12           N   tau(  12) = (   0.7201127   0.2696802   0.3043710  )
        13           N   tau(  13) = (   0.7728510   0.5108988   0.4438476  )
        14           N   tau(  14) = (   0.1868646   0.2271561   0.7219543  )
        15           N   tau(  15) = (   0.2002937   0.0565936   0.3333524  )
        16           N   tau(  16) = (   0.7862802   0.3403363   0.0552456  )
        17           N   tau(  17) = (   0.8601855   0.4848350   0.4463403  )
        18           N   tau(  18) = (   0.0995289   0.2010888   0.7194621  )
        19           N   tau(  19) = (   0.1129593   0.0826573   0.3308597  )
        20           N   tau(  20) = (   0.8736158   0.3664035   0.0577378  )
        21           N   tau(  21) = (   0.9385831   0.4598557   0.4319592  )
        22           N   tau(  22) = (   0.0211336   0.1761127   0.7338427  )
        23           N   tau(  23) = (   0.0345617   0.1076366   0.3452407  )
        24           N   tau(  24) = (   0.9520112   0.3913796   0.0433573  )
        25           N   tau(  25) = (   0.5758686   0.0416469   0.4611216  )
        26           N   tau(  26) = (   0.3838515   0.3253847   0.7046748  )
        27           N   tau(  27) = (   0.3972762   0.5258454   0.3160783  )
        28           N   tau(  28) = (   0.5892933   0.2421076   0.0725252  )
        29           N   tau(  29) = (   0.5020574   0.0926228   0.4755088  )
        30           N   tau(  30) = (   0.4576620   0.3763659   0.6902912  )
        31           N   tau(  31) = (   0.4710874   0.4748695   0.3016912  )
        32           N   tau(  32) = (   0.5154828   0.1911264   0.0869088  )
        33           N   tau(  33) = (   0.4316294   0.1375895   0.4721787  )
        34           N   tau(  34) = (   0.5280842   0.4213386   0.6936181  )
        35           N   tau(  35) = (   0.5415154   0.4299028   0.3050212  )
        36           N   tau(  36) = (   0.4450606   0.1461537   0.0835818  )
        37           C   tau(  37) = (   0.7725972   0.5374785   0.6272492  )
        38           C   tau(  38) = (   0.1871040   0.2537209   0.5385472  )
        39           C   tau(  39) = (   0.2005476   0.0300138   0.1499508  )
        40           C   tau(  40) = (   0.7860408   0.3137714   0.2386528  )
        41           C   tau(  41) = (   0.7285955   0.5443762   0.5277929  )
        42           C   tau(  42) = (   0.2311181   0.2606361   0.6380102  )
        43           C   tau(  43) = (   0.2445493   0.0231161   0.2494070  )
        44           C   tau(  44) = (   0.7420267   0.3068562   0.1391897  )
        45           C   tau(  45) = (   0.6396819   0.0211492   0.5360848  )
        46           C   tau(  46) = (   0.3200342   0.3049009   0.6297163  )
        47           C   tau(  47) = (   0.3334628   0.5463431   0.2411151  )
        48           C   tau(  48) = (   0.6531106   0.2625914   0.1474837  )
        49           C   tau(  49) = (   0.6233603   0.0461932   0.6415739  )
        50           C   tau(  50) = (   0.3363561   0.3299318   0.5242270  )
        51           C   tau(  51) = (   0.3497844   0.5212991   0.1356260  )
        52           C   tau(  52) = (   0.6367887   0.2375605   0.2529729  )
        53           C   tau(  53) = (   0.7525578   0.0273761   0.0175068  )
        54           C   tau(  54) = (   0.2340153   0.3111219   0.3710944  )
        55           C   tau(  55) = (   0.2205870   0.5401162   0.7596931  )
        56           C   tau(  56) = (   0.7391295   0.2563704   0.4061056  )
        57           C   tau(  57) = (   0.8442137   0.0633470   0.0458317  )
        58           C   tau(  58) = (   0.1423622   0.3470956   0.3427692  )
        59           C   tau(  59) = (   0.1289311   0.5041453   0.7313682  )
        60           C   tau(  60) = (   0.8307825   0.2203967   0.4344308  )
        61           H   tau(  61) = (   0.8721618   0.0804318   0.7678484  )
        62           H   tau(  62) = (   0.0875577   0.3641798   0.3979517  )
        63           H   tau(  63) = (   0.1009829   0.4870605   0.0093515  )
        64           H   tau(  64) = (   0.8855871   0.2033125   0.3792482  )
        65           C   tau(  65) = (   0.8656203   0.0749710   0.1450953  )
        66           C   tau(  66) = (   0.1209555   0.3587203   0.2435054  )
        67           C   tau(  67) = (   0.1075245   0.4925213   0.6321046  )
        68           C   tau(  68) = (   0.8521892   0.2087720   0.5336946  )
        69           H   tau(  69) = (   0.9379962   0.1011083   0.1665294  )
        70           H   tau(  70) = (   0.0485817   0.3848636   0.2220710  )
        71           H   tau(  71) = (   0.0351485   0.4663840   0.6106705  )
        72           H   tau(  72) = (   0.9245630   0.1826288   0.5551290  )
        73           C   tau(  73) = (   0.7953715   0.0513580   0.2156011  )
        74           C   tau(  74) = (   0.1912014   0.3350974   0.1729996  )
        75           C   tau(  75) = (   0.1777732   0.5161343   0.5615989  )
        76           C   tau(  76) = (   0.7819434   0.2323949   0.6042003  )
        77           H   tau(  77) = (   0.8116095   0.0598334   0.2933169  )
        78           H   tau(  78) = (   0.1749611   0.3435651   0.0952831  )
        79           H   tau(  79) = (   0.1615353   0.5076589   0.4838830  )
        80           H   tau(  80) = (   0.7981836   0.2239273   0.6819169  )
        81           C   tau(  81) = (   0.7037073   0.0162241   0.1865656  )
        82           C   tau(  82) = (   0.2828642   0.2999611   0.2020353  )
        83           C   tau(  83) = (   0.2694375   0.5512682   0.5906344  )
        84           C   tau(  84) = (   0.6902806   0.2675312   0.5751647  )
        85           H   tau(  85) = (   0.6494504  -0.0024683   0.2419098  )
        86           H   tau(  86) = (   0.3371183   0.2812588   0.1466916  )
        87           H   tau(  87) = (   0.3236944   0.5699606   0.5352901  )
        88           H   tau(  88) = (   0.6360264   0.2862335   0.6305083  )
        89           C   tau(  89) = (   0.6816469   0.0032226   0.0874582  )
        90           C   tau(  90) = (   0.3049262   0.2869650   0.3011436  )
        91           C   tau(  91) = (   0.2914979   0.5642697   0.6897417  )
        92           C   tau(  92) = (   0.6682186   0.2805273   0.4760563  )
        93           H   tau(  93) = (   0.6109413   0.5415347   0.0645651  )
        94           H   tau(  94) = (   0.3756303   0.2577825   0.3240363  )
        95           H   tau(  95) = (   0.3622035   0.0259576   0.7126349  )
        96           H   tau(  96) = (   0.5975144   0.3097099   0.4531636  )

     number of k points=     8
                       cart. coord. in units 2pi/alat
        k(    1) = (   0.0000000   0.0000000   0.0000000), wk =   0.1666667
        k(    2) = (   0.0000000   0.0000000  -0.6433351), wk =   0.1666667
        k(    3) = (   0.0000000   0.5873795   0.0000000), wk =   0.3333333
        k(    4) = (   0.0000000   0.5873795  -0.6433351), wk =   0.3333333
        k(    5) = (  -0.5000000   0.0000000  -0.0172769), wk =   0.1666667
        k(    6) = (  -0.5000000   0.0000000  -0.6606120), wk =   0.1666667
        k(    7) = (  -0.5000000   0.5873795  -0.0172769), wk =   0.3333333
        k(    8) = (  -0.5000000   0.5873795  -0.6606120), wk =   0.3333333

     Dense  grid:  1021719 G-vectors     FFT dimensions: ( 180,  96, 128)

     Estimated max dynamical RAM per process >    1170.67MB

     Estimated total allocated dynamical RAM >    9365.38MB

     Check: negative/imaginary core charge=   -0.000002    0.000000

     Initial potential from superposition of free atoms

     starting charge  367.99793, renormalised to  368.00000
     Starting wfc are  324 randomized atomic wfcs
     Checking if some PAW data can be deallocated... 

     total cpu time spent up to now is       82.4 secs

     per-process dynamical memory:   783.8 Mb

     Self-consistent Calculation

     iteration #  1     ecut=   100.00 Ry     beta=0.50
     Davidson diagonalization with overlap
     ethr =  1.00E-02,  avg # of iterations =  4.0

     total cpu time spent up to now is      325.9 secs

     total energy              =   -1881.60549156 Ry
     Harris-Foulkes estimate   =   -1887.09710645 Ry
     estimated scf accuracy    <      10.13582913 Ry

     iteration #  2     ecut=   100.00 Ry     beta=0.50
     Davidson diagonalization with overlap
     ethr =  2.75E-03,  avg # of iterations =  3.2

     total cpu time spent up to now is      465.7 secs

     total energy              =   -1882.49331922 Ry
     Harris-Foulkes estimate   =   -1883.35162158 Ry
     estimated scf accuracy    <       1.67439443 Ry

     iteration #  3     ecut=   100.00 Ry     beta=0.50
     Davidson diagonalization with overlap
     ethr =  4.55E-04,  avg # of iterations =  8.9

     total cpu time spent up to now is      733.6 secs

     total energy              =   -1883.28248971 Ry
     Harris-Foulkes estimate   =   -1883.69937231 Ry
     estimated scf accuracy    <       1.01836929 Ry

     iteration #  4     ecut=   100.00 Ry     beta=0.50
     Davidson diagonalization with overlap
     ethr =  2.77E-04,  avg # of iterations =  3.0

     total cpu time spent up to now is      860.4 secs

     total energy              =   -1883.30519978 Ry
     Harris-Foulkes estimate   =   -1883.43715655 Ry
     estimated scf accuracy    <       0.33659905 Ry

     iteration #  5     ecut=   100.00 Ry     beta=0.50
     Davidson diagonalization with overlap
     ethr =  9.15E-05,  avg # of iterations =  4.9

     total cpu time spent up to now is     1042.6 secs

     total energy              =   -1883.41647831 Ry
     Harris-Foulkes estimate   =   -1883.47126167 Ry
     estimated scf accuracy    <       0.22196472 Ry

     iteration #  6     ecut=   100.00 Ry     beta=0.50
     Davidson diagonalization with overlap
     ethr =  6.03E-05,  avg # of iterations =  2.8

     total cpu time spent up to now is     1166.7 secs

     total energy              =   -1883.43822963 Ry
     Harris-Foulkes estimate   =   -1883.44874192 Ry
     estimated scf accuracy    <       0.02573699 Ry

     iteration #  7     ecut=   100.00 Ry     beta=0.50
     Davidson diagonalization with overlap
     ethr =  6.99E-06,  avg # of iterations =  9.0

     total cpu time spent up to now is     1371.1 secs

     total energy              =   -1883.43999348 Ry
     Harris-Foulkes estimate   =   -1883.44494769 Ry
     estimated scf accuracy    <       0.01067176 Ry

     iteration #  8     ecut=   100.00 Ry     beta=0.50
     Davidson diagonalization with overlap
     ethr =  2.90E-06,  avg # of iterations =  3.5

     total cpu time spent up to now is     1529.7 secs

     total energy              =   -1883.44198603 Ry
     Harris-Foulkes estimate   =   -1883.44266589 Ry
     estimated scf accuracy    <       0.00156065 Ry

     iteration #  9     ecut=   100.00 Ry     beta=0.50
     Davidson diagonalization with overlap
     ethr =  4.24E-07,  avg # of iterations =  4.0

     total cpu time spent up to now is     1744.7 secs

     total energy              =   -1883.44260791 Ry
     Harris-Foulkes estimate   =   -1883.44312500 Ry
     estimated scf accuracy    <       0.00126410 Ry

     iteration # 10     ecut=   100.00 Ry     beta=0.50
     Davidson diagonalization with overlap
     ethr =  3.44E-07,  avg # of iterations =  2.0

     total cpu time spent up to now is     1862.8 secs

     total energy              =   -1883.44258495 Ry
     Harris-Foulkes estimate   =   -1883.44271915 Ry
     estimated scf accuracy    <       0.00023911 Ry

     iteration # 11     ecut=   100.00 Ry     beta=0.50
     Davidson diagonalization with overlap
     ethr =  6.50E-08,  avg # of iterations =  4.0

     total cpu time spent up to now is     2095.7 secs

     total energy              =   -1883.44281460 Ry
     Harris-Foulkes estimate   =   -1883.44290051 Ry
     estimated scf accuracy    <       0.00029086 Ry

     iteration # 12     ecut=   100.00 Ry     beta=0.50
     Davidson diagonalization with overlap
     ethr =  6.50E-08,  avg # of iterations =  1.0

     total cpu time spent up to now is     2211.8 secs

     total energy              =   -1883.44275476 Ry
     Harris-Foulkes estimate   =   -1883.44282309 Ry
     estimated scf accuracy    <       0.00012938 Ry

     iteration # 13     ecut=   100.00 Ry     beta=0.50
     Davidson diagonalization with overlap
     ethr =  3.52E-08,  avg # of iterations =  4.0

     total cpu time spent up to now is     2405.1 secs

     total energy              =   -1883.44280996 Ry
     Harris-Foulkes estimate   =   -1883.44281948 Ry
     estimated scf accuracy    <       0.00002733 Ry

     iteration # 14     ecut=   100.00 Ry     beta=0.50
     Davidson diagonalization with overlap
     ethr =  7.43E-09,  avg # of iterations =  1.0

     total cpu time spent up to now is     2521.6 secs

     total energy              =   -1883.44280851 Ry
     Harris-Foulkes estimate   =   -1883.44281204 Ry
     estimated scf accuracy    <       0.00000719 Ry

     iteration # 15     ecut=   100.00 Ry     beta=0.50
     Davidson diagonalization with overlap
     ethr =  1.95E-09,  avg # of iterations =  4.0

     total cpu time spent up to now is     2737.8 secs

     total energy              =   -1883.44281279 Ry
     Harris-Foulkes estimate   =   -1883.44281316 Ry
     estimated scf accuracy    <       0.00000154 Ry

     iteration # 16     ecut=   100.00 Ry     beta=0.50
     Davidson diagonalization with overlap
     ethr =  4.18E-10,  avg # of iterations =  1.0

     total cpu time spent up to now is     2850.3 secs

     total energy              =   -1883.44281263 Ry
     Harris-Foulkes estimate   =   -1883.44281288 Ry
     estimated scf accuracy    <       0.00000079 Ry

     iteration # 17     ecut=   100.00 Ry     beta=0.50
     Davidson diagonalization with overlap
     ethr =  2.14E-10,  avg # of iterations =  3.0

     total cpu time spent up to now is     2989.8 secs

     total energy              =   -1883.44281272 Ry
     Harris-Foulkes estimate   =   -1883.44281276 Ry
     estimated scf accuracy    <       0.00000011 Ry

     iteration # 18     ecut=   100.00 Ry     beta=0.50
     Davidson diagonalization with overlap
     ethr =  2.96E-11,  avg # of iterations =  4.0

     total cpu time spent up to now is     3197.3 secs

     total energy              =   -1883.44281278 Ry
     Harris-Foulkes estimate   =   -1883.44281278 Ry
     estimated scf accuracy    <       0.00000003 Ry

     iteration # 19     ecut=   100.00 Ry     beta=0.50
     Davidson diagonalization with overlap
     ethr =  9.04E-12,  avg # of iterations =  1.0

     total cpu time spent up to now is     3309.8 secs

     total energy              =   -1883.44281277 Ry
     Harris-Foulkes estimate   =   -1883.44281278 Ry
     estimated scf accuracy    <       0.00000001 Ry

     iteration # 20     ecut=   100.00 Ry     beta=0.50
     Davidson diagonalization with overlap
     ethr =  2.87E-12,  avg # of iterations =  3.2

     total cpu time spent up to now is     3462.6 secs

     End of self-consistent calculation

          k = 0.0000 0.0000 0.0000 (127745 PWs)   bands (ev):

   -22.3545 -22.3441 -22.3121 -22.3110 -22.2996 -22.2939 -22.2878 -22.2840
   -20.5013 -20.4957 -20.4902 -20.4856 -20.0168 -20.0127 -20.0056 -20.0028
   -18.6396 -18.6367 -18.6326 -18.6301 -18.4348 -18.4338 -18.4315 -18.4309
   -17.7548 -17.7526 -17.7513 -17.7509 -14.9982 -14.9957 -14.9494 -14.9489
   -14.1577 -14.1403 -14.0861 -14.0796 -12.1089 -12.1053 -12.1040 -12.0965
   -11.8108 -11.8078 -11.7991 -11.7986 -11.5562 -11.5404 -11.5377 -11.5361
   -10.2771 -10.2552 -10.2096 -10.2059  -9.6167  -9.5892  -9.5850  -9.5777
    -8.3118  -8.3005  -8.2911  -8.2828  -8.1155  -8.1046  -8.0974  -8.0744
    -7.3025  -7.2327  -7.2057  -7.1503  -7.1410  -7.1403  -7.0893  -7.0534
    -6.5980  -6.5941  -6.5881  -6.4845  -6.4564  -6.4538  -6.3628  -6.3471
    -6.2698  -6.2690  -6.1753  -6.1706  -6.0142  -5.9253  -5.8572  -5.7869
    -5.7507  -5.7028  -5.6592  -5.4739  -5.4018  -5.3932  -5.3405  -5.3357
    -5.2230  -5.1988  -5.0799  -5.0607  -4.6867  -4.6788  -4.6480  -4.6006
    -4.5992  -4.5796  -4.5650  -4.5276  -4.2941  -4.2756  -4.2120  -4.2082
    -4.1868  -4.1586  -4.1395  -4.0860  -4.0848  -4.0279  -4.0150  -3.9766
    -3.8192  -3.7471  -3.6936  -3.6363  -3.4600  -3.4387  -3.4378  -3.4195
    -3.3792  -3.3188  -3.2111  -3.2057  -2.7912  -2.7680  -2.4814  -2.4663
    -2.4197  -2.3782  -2.1910  -2.1847  -2.0848  -2.0599  -1.9601  -1.8983
    -1.7215  -1.7199  -1.7090  -1.6378  -1.6330  -1.5820  -1.5819  -1.5627
    -1.4535  -1.4084  -1.3545  -1.3509  -1.1130  -1.0489  -1.0178  -1.0014
    -0.8526  -0.8149  -0.7680  -0.7459  -0.3813  -0.3316  -0.2994  -0.2979
     0.1424   0.1617   0.1895   0.1915   0.2536   0.2644   0.3507   0.3858
     0.4056   0.4516   0.6470   0.6542   1.2257   1.2374   1.2728   1.3573
     3.1781   3.2047   3.2054   3.2780   4.2393   4.2587   4.4674   4.4887
     4.6061   4.6178   4.6209   4.6721   4.9658   5.0925   5.1816   5.1873
     5.1962   5.2679   5.2690   5.3880   5.4204   5.4337   5.5275   5.5315
     5.6392   5.7118   5.7856   5.9310   6.4220   7.2338   7.2573   7.2579
     7.3025   7.4233   7.4246   7.5257

          k = 0.0000 0.0000-0.6433 (127704 PWs)   bands (ev):

   -22.3495 -22.3494 -22.3113 -22.3113 -22.2969 -22.2966 -22.2861 -22.2859
   -20.4962 -20.4959 -20.4905 -20.4903 -20.0120 -20.0116 -20.0074 -20.0069
   -18.6383 -18.6382 -18.6312 -18.6311 -18.4333 -18.4332 -18.4324 -18.4323
   -17.7539 -17.7538 -17.7511 -17.7510 -14.9742 -14.9737 -14.9698 -14.9693
   -14.1211 -14.1207 -14.1145 -14.1142 -12.1147 -12.1143 -12.1029 -12.1025
   -11.8055 -11.8054 -11.8035 -11.8034 -11.5477 -11.5476 -11.5363 -11.5361
   -10.2284 -10.2282 -10.2143 -10.2141  -9.6031  -9.6027  -9.5833  -9.5828
    -8.2961  -8.2960  -8.2842  -8.2841  -8.1189  -8.1189  -8.0982  -8.0981
    -7.2455  -7.2452  -7.1872  -7.1872  -7.1310  -7.1310  -7.0899  -7.0896
    -6.6546  -6.6544  -6.6468  -6.6466  -6.4369  -6.4368  -6.3709  -6.3709
    -6.2519  -6.2519  -6.1651  -6.1651  -5.9233  -5.9232  -5.8429  -5.8428
    -5.6435  -5.6434  -5.4856  -5.4856  -5.3844  -5.3844  -5.3350  -5.3349
    -5.2389  -5.2388  -5.1747  -5.1746  -4.6645  -4.6644  -4.6161  -4.6159
    -4.5542  -4.5542  -4.5353  -4.5352  -4.2526  -4.2526  -4.2248  -4.2247
    -4.1753  -4.1753  -4.1052  -4.1049  -4.0710  -4.0710  -4.0202  -4.0197
    -3.7379  -3.7378  -3.6883  -3.6882  -3.4600  -3.4597  -3.4367  -3.4362
    -3.2887  -3.2879  -3.2380  -3.2375  -2.6905  -2.6904  -2.6687  -2.6686
    -2.2742  -2.2738  -2.2265  -2.2262  -1.9913  -1.9913  -1.9576  -1.9576
    -1.7411  -1.7409  -1.6618  -1.6616  -1.6345  -1.6345  -1.5979  -1.5975
    -1.4376  -1.4371  -1.3455  -1.3455  -1.0970  -1.0969  -1.0158  -1.0158
    -0.8314  -0.8313  -0.7839  -0.7836  -0.3571  -0.3571  -0.2946  -0.2944
     0.1695   0.1696   0.1850   0.1851   0.3490   0.3490   0.3681   0.3682
     0.4710   0.4712   0.5060   0.5062   1.2482   1.2483   1.3012   1.3013
     3.2013   3.2019   3.2300   3.2306   4.2497   4.2501   4.4649   4.4653
     4.6101   4.6101   4.6469   4.6469   5.0215   5.0217   5.1325   5.1326
     5.2663   5.2664   5.3094   5.3096   5.5096   5.5096   5.5148   5.5148
     5.7801   5.7802   5.8042   5.8043   6.8243   6.8244   7.2104   7.2108
     7.2615   7.2619   7.6629   7.6631

          k = 0.0000 0.5874 0.0000 (127692 PWs)   bands (ev):

   -22.3516 -22.3464 -22.3121 -22.3116 -22.2983 -22.2955 -22.2866 -22.2848
   -20.4982 -20.4953 -20.4908 -20.4887 -20.0139 -20.0116 -20.0067 -20.0057
   -18.6398 -18.6386 -18.6306 -18.6296 -18.4352 -18.4350 -18.4304 -18.4304
   -17.7561 -17.7547 -17.7501 -17.7489 -14.9945 -14.9932 -14.9529 -14.9527
   -14.1469 -14.1362 -14.0937 -14.0884 -12.1086 -12.1074 -12.1007 -12.0977
   -11.8124 -11.8102 -11.8010 -11.8001 -11.5494 -11.5403 -11.5365 -11.5362
   -10.2662 -10.2540 -10.2144 -10.2139  -9.6130  -9.6018  -9.5776  -9.5764
    -8.3120  -8.3033  -8.2857  -8.2750  -8.1183  -8.1118  -8.0902  -8.0800
    -7.2849  -7.2417  -7.2240  -7.1913  -7.1225  -7.1097  -7.0801  -7.0622
    -6.6117  -6.5966  -6.5449  -6.4920  -6.4555  -6.4447  -6.3441  -6.3337
    -6.2667  -6.2648  -6.1851  -6.1811  -5.9919  -5.9448  -5.8996  -5.8697
    -5.6618  -5.6333  -5.6322  -5.5251  -5.3817  -5.3619  -5.3225  -5.3152
    -5.2531  -5.2380  -5.0793  -5.0709  -4.7258  -4.7163  -4.6894  -4.6759
    -4.5339  -4.5316  -4.4994  -4.4499  -4.2871  -4.2675  -4.2438  -4.2343
    -4.1756  -4.1518  -4.1395  -4.1075  -4.0719  -4.0360  -3.9942  -3.9757
    -3.7891  -3.7277  -3.7105  -3.6591  -3.4466  -3.4402  -3.4052  -3.4009
    -3.3824  -3.3680  -3.2817  -3.2794  -2.7578  -2.7372  -2.5294  -2.5162
    -2.4312  -2.3770  -2.2455  -2.2307  -2.0618  -2.0503  -1.9508  -1.9145
    -1.7562  -1.7359  -1.6650  -1.6461  -1.6155  -1.5941  -1.5787  -1.5745
    -1.4579  -1.4263  -1.3551  -1.3441  -1.1062  -1.0928  -1.0315  -1.0065
    -0.8797  -0.8782  -0.7251  -0.7206  -0.3740  -0.3505  -0.2805  -0.2795
     0.1423   0.1513   0.2005   0.2039   0.3242   0.3300   0.4003   0.4045
     0.4174   0.4335   0.6351   0.6449   1.2192   1.2364   1.2721   1.3225
     3.1842   3.1888   3.2346   3.2621   4.2462   4.2467   4.4783   4.4904
     4.6058   4.6091   4.6224   4.6637   4.9895   5.0833   5.1211   5.1415
     5.1953   5.2192   5.2959   5.3489   5.4617   5.5255   5.5636   5.5797
     5.6939   5.6958   5.7994   5.8810   6.7954   7.2216   7.2522   7.2569
     7.3124   7.5438   7.6501   7.6915

          k = 0.0000 0.5874-0.6433 (127740 PWs)   bands (ev):

   -22.3489 -22.3489 -22.3117 -22.3117 -22.2968 -22.2966 -22.2863 -22.2861
   -20.4951 -20.4947 -20.4917 -20.4913 -20.0116 -20.0109 -20.0082 -20.0075
   -18.6383 -18.6383 -18.6310 -18.6309 -18.4331 -18.4331 -18.4325 -18.4325
   -17.7534 -17.7533 -17.7518 -17.7517 -14.9741 -14.9736 -14.9698 -14.9693
   -14.1213 -14.1209 -14.1157 -14.1153 -12.1159 -12.1155 -12.1030 -12.1026
   -11.8064 -11.8063 -11.8048 -11.8047 -11.5443 -11.5441 -11.5354 -11.5351
   -10.2260 -10.2257 -10.2171 -10.2168  -9.6028  -9.6022  -9.5841  -9.5836
    -8.2976  -8.2975  -8.2841  -8.2840  -8.1131  -8.1130  -8.1026  -8.1025
    -7.2463  -7.2461  -7.1911  -7.1910  -7.1256  -7.1255  -7.0931  -7.0928
    -6.6549  -6.6546  -6.6423  -6.6420  -6.4253  -6.4252  -6.3503  -6.3502
    -6.2548  -6.2548  -6.1716  -6.1716  -5.9295  -5.9293  -5.8450  -5.8449
    -5.6052  -5.6050  -5.5047  -5.5045  -5.3775  -5.3774  -5.3282  -5.3281
    -5.2378  -5.2376  -5.1829  -5.1828  -4.7059  -4.7057  -4.6645  -4.6643
    -4.5203  -4.5202  -4.4570  -4.4569  -4.2600  -4.2598  -4.2417  -4.2415
    -4.1806  -4.1800  -4.1401  -4.1395  -4.0289  -4.0288  -4.0039  -4.0030
    -3.7331  -3.7329  -3.6903  -3.6902  -3.4524  -3.4517  -3.4162  -3.4155
    -3.3277  -3.3270  -3.2931  -3.2925  -2.6732  -2.6731  -2.6571  -2.6570
    -2.3331  -2.3328  -2.2668  -2.2665  -1.9806  -1.9806  -1.9638  -1.9638
    -1.7601  -1.7599  -1.6493  -1.6493  -1.6232  -1.6230  -1.6006  -1.6002
    -1.4434  -1.4429  -1.3532  -1.3532  -1.0995  -1.0993  -1.0412  -1.0411
    -0.8316  -0.8314  -0.7930  -0.7928  -0.3502  -0.3502  -0.2926  -0.2924
     0.1683   0.1685   0.1768   0.1770   0.4025   0.4026   0.4097   0.4097
     0.4873   0.4873   0.5029   0.5030   1.2497   1.2499   1.2769   1.2771
     3.2069   3.2076   3.2241   3.2248   4.2491   4.2495   4.4710   4.4714
     4.6119   4.6120   4.6332   4.6333   5.0486   5.0489   5.1371   5.1373
     5.2077   5.2079   5.2998   5.3000   5.5072   5.5072   5.5412   5.5414
     5.8092   5.8094   5.8309   5.8310   7.0838   7.0840   7.2246   7.2252
     7.3395   7.3399   7.7434   7.7435

          k =-0.5000 0.0000-0.0173 (127772 PWs)   bands (ev):

   -22.3541 -22.3438 -22.3148 -22.3128 -22.2933 -22.2918 -22.2887 -22.2878
   -20.5009 -20.4962 -20.4903 -20.4855 -20.0165 -20.0129 -20.0057 -20.0027
   -18.6420 -18.6384 -18.6301 -18.6282 -18.4371 -18.4339 -18.4317 -18.4286
   -17.7542 -17.7527 -17.7519 -17.7508 -14.9982 -14.9956 -14.9515 -14.9468
   -14.1503 -14.1478 -14.0847 -14.0809 -12.1099 -12.1053 -12.1035 -12.0966
   -11.8114 -11.8057 -11.7988 -11.7985 -11.5583 -11.5390 -11.5378 -11.5362
   -10.2691 -10.2633 -10.2102 -10.2050  -9.6078  -9.5990  -9.5951  -9.5691
    -8.3131  -8.3116  -8.2837  -8.2790  -8.1183  -8.1003  -8.0894  -8.0811
    -7.2973  -7.2386  -7.1980  -7.1520  -7.1366  -7.1362  -7.0933  -7.0647
    -6.5983  -6.5883  -6.5437  -6.5178  -6.4743  -6.4228  -6.4014  -6.3803
    -6.2167  -6.2152  -6.2096  -6.2013  -5.9820  -5.8986  -5.8341  -5.8204
    -5.7921  -5.7170  -5.5853  -5.5254  -5.4103  -5.3883  -5.3509  -5.3311
    -5.2459  -5.1784  -5.0962  -5.0610  -4.8099  -4.7722  -4.6837  -4.6026
    -4.5754  -4.5404  -4.4507  -4.4163  -4.2948  -4.2487  -4.2463  -4.2122
    -4.2031  -4.1123  -4.0906  -4.0832  -4.0784  -4.0682  -3.9985  -3.9643
    -3.8350  -3.7485  -3.6959  -3.6844  -3.4883  -3.4766  -3.4205  -3.3994
    -3.3839  -3.2956  -3.2281  -3.1787  -2.7858  -2.7849  -2.4992  -2.4557
    -2.4207  -2.3382  -2.2334  -2.1651  -2.0695  -2.0384  -1.9591  -1.9009
    -1.7794  -1.7257  -1.7238  -1.6802  -1.6550  -1.5848  -1.5801  -1.5277
    -1.4017  -1.3787  -1.3766  -1.3670  -1.1081  -1.0684  -1.0324  -0.9390
    -0.8855  -0.7960  -0.7767  -0.7443  -0.3772  -0.3351  -0.3075  -0.2890
     0.1507   0.1523   0.1625   0.2003   0.2688   0.2693   0.3675   0.3729
     0.3949   0.4629   0.6312   0.6743   1.1974   1.2615   1.2836   1.3478
     3.1487   3.2047   3.2285   3.2766   4.2373   4.2520   4.4753   4.4977
     4.6024   4.6156   4.6286   4.6741   4.9481   5.1369   5.1773   5.1905
     5.1974   5.2143   5.2669   5.2737   5.4642   5.4885   5.5459   5.5727
     5.7309   5.7524   5.7702   5.7868   6.7009   6.7229   7.2155   7.2540
     7.2796   7.3262   7.5644   7.5907

          k =-0.5000 0.0000-0.6606 (127672 PWs)   bands (ev):

   -22.3492 -22.3491 -22.3135 -22.3135 -22.2907 -22.2905 -22.2903 -22.2902
   -20.4960 -20.4958 -20.4907 -20.4904 -20.0120 -20.0115 -20.0075 -20.0070
   -18.6403 -18.6402 -18.6290 -18.6290 -18.4356 -18.4355 -18.4302 -18.4302
   -17.7535 -17.7535 -17.7514 -17.7514 -14.9746 -14.9742 -14.9693 -14.9689
   -14.1198 -14.1194 -14.1159 -14.1155 -12.1106 -12.1103 -12.1073 -12.1070
   -11.8047 -11.8046 -11.8033 -11.8032 -11.5491 -11.5489 -11.5353 -11.5351
   -10.2260 -10.2256 -10.2169 -10.2165  -9.6029  -9.6025  -9.5847  -9.5842
    -8.3030  -8.3029  -8.2787  -8.2786  -8.1125  -8.1123  -8.1021  -8.1019
    -7.2522  -7.2519  -7.1880  -7.1880  -7.1225  -7.1225  -7.0909  -7.0906
    -6.6872  -6.6871  -6.5974  -6.5972  -6.4210  -6.4209  -6.3982  -6.3982
    -6.2271  -6.2271  -6.1919  -6.1919  -5.9308  -5.9307  -5.8378  -5.8378
    -5.5812  -5.5811  -5.5536  -5.5536  -5.3719  -5.3719  -5.3497  -5.3496
    -5.2385  -5.2385  -5.1873  -5.1873  -4.7125  -4.7123  -4.6651  -4.6649
    -4.5007  -4.5007  -4.4665  -4.4665  -4.2619  -4.2618  -4.2517  -4.2516
    -4.1369  -4.1369  -4.1071  -4.1064  -4.0621  -4.0617  -3.9806  -3.9799
    -3.7719  -3.7719  -3.7055  -3.7055  -3.4918  -3.4913  -3.4085  -3.4082
    -3.2972  -3.2970  -3.2209  -3.2207  -2.7099  -2.7097  -2.6493  -2.6491
    -2.2560  -2.2557  -2.2387  -2.2386  -1.9844  -1.9843  -1.9578  -1.9576
    -1.7409  -1.7409  -1.7215  -1.7213  -1.6913  -1.6912  -1.5264  -1.5264
    -1.4216  -1.4213  -1.3503  -1.3503  -1.0915  -1.0914  -1.0073  -1.0071
    -0.8398  -0.8396  -0.7807  -0.7804  -0.3441  -0.3440  -0.3051  -0.3050
     0.1662   0.1664   0.1901   0.1903   0.3407   0.3407   0.3724   0.3724
     0.4711   0.4713   0.5112   0.5113   1.2551   1.2556   1.2933   1.2938
     3.1715   3.1718   3.2551   3.2554   4.2377   4.2381   4.4945   4.4949
     4.6063   4.6066   4.6392   4.6394   5.0053   5.0054   5.1612   5.1614
     5.2331   5.2331   5.3228   5.3231   5.4866   5.4867   5.5968   5.5969
     5.7107   5.7108   5.8143   5.8145   7.0382   7.0383   7.0583   7.0583
     7.2629   7.2634   7.3148   7.3154

          k =-0.5000 0.5874-0.0173 (127662 PWs)   bands (ev):

   -22.3513 -22.3460 -22.3144 -22.3134 -22.2928 -22.2922 -22.2886 -22.2881
   -20.4979 -20.4956 -20.4909 -20.4886 -20.0137 -20.0118 -20.0068 -20.0056
   -18.6417 -18.6400 -18.6287 -18.6278 -18.4371 -18.4358 -18.4299 -18.4287
   -17.7559 -17.7548 -17.7500 -17.7490 -14.9945 -14.9932 -14.9540 -14.9516
   -14.1421 -14.1402 -14.0927 -14.0902 -12.1086 -12.1066 -12.1015 -12.0982
   -11.8120 -11.8099 -11.8012 -11.8003 -11.5517 -11.5408 -11.5348 -11.5343
   -10.2616 -10.2581 -10.2160 -10.2127  -9.6087  -9.6068  -9.5831  -9.5726
    -8.3140  -8.3122  -8.2760  -8.2748  -8.1188  -8.1106  -8.0867  -8.0819
    -7.2778  -7.2337  -7.2298  -7.1983  -7.1128  -7.1085  -7.0830  -7.0667
    -6.5961  -6.5920  -6.5311  -6.5180  -6.4522  -6.4243  -6.3869  -6.3741
    -6.2221  -6.2187  -6.2070  -6.2060  -5.9682  -5.9210  -5.8941  -5.8925
    -5.6870  -5.6480  -5.6124  -5.5516  -5.3884  -5.3662  -5.3303  -5.3027
    -5.2706  -5.2048  -5.0951  -5.0803  -4.7334  -4.7276  -4.6487  -4.6145
    -4.5776  -4.5515  -4.5154  -4.4973  -4.2940  -4.2468  -4.2207  -4.2192
    -4.1669  -4.1172  -4.0875  -4.0801  -4.0659  -4.0541  -4.0126  -3.9766
    -3.8089  -3.7472  -3.7075  -3.6860  -3.4707  -3.4475  -3.4403  -3.3908
    -3.3507  -3.3410  -3.3030  -3.2516  -2.7533  -2.7420  -2.5207  -2.5156
    -2.4549  -2.3726  -2.2512  -2.1988  -2.0688  -2.0430  -1.9354  -1.9068
    -1.7653  -1.7222  -1.7202  -1.7040  -1.6691  -1.6219  -1.5495  -1.5274
    -1.4133  -1.3950  -1.3648  -1.3491  -1.1108  -1.0932  -1.0324  -0.9978
    -0.8859  -0.8802  -0.7255  -0.7178  -0.3728  -0.3551  -0.2820  -0.2758
     0.1457   0.1465   0.1988   0.2029   0.3220   0.3360   0.4006   0.4022
     0.4109   0.4436   0.6297   0.6592   1.2115   1.2506   1.2728   1.3154
     3.1758   3.2072   3.2178   3.2601   4.2408   4.2430   4.4835   4.4961
     4.5946   4.6009   4.6412   4.6724   4.9691   5.0814   5.1543   5.1630
     5.1821   5.2042   5.2591   5.2880   5.5322   5.5461   5.5957   5.6292
     5.6499   5.7246   5.8029   5.8155   7.0210   7.0311   7.2369   7.2476
     7.2692   7.3352   7.6280   7.6776

          k =-0.5000 0.5874-0.6606 (127796 PWs)   bands (ev):

   -22.3486 -22.3486 -22.3138 -22.3138 -22.2907 -22.2906 -22.2904 -22.2904
   -20.4950 -20.4946 -20.4918 -20.4914 -20.0116 -20.0109 -20.0082 -20.0075
   -18.6403 -18.6402 -18.6289 -18.6288 -18.4357 -18.4356 -18.4301 -18.4301
   -17.7531 -17.7531 -17.7520 -17.7520 -14.9740 -14.9735 -14.9699 -14.9694
   -14.1202 -14.1198 -14.1168 -14.1164 -12.1107 -12.1103 -12.1085 -12.1082
   -11.8060 -11.8059 -11.8050 -11.8049 -11.5459 -11.5457 -11.5333 -11.5331
   -10.2259 -10.2254 -10.2175 -10.2170  -9.6023  -9.6018  -9.5858  -9.5853
    -8.3050  -8.3049  -8.2769  -8.2768  -8.1120  -8.1115  -8.1027  -8.1023
    -7.2527  -7.2525  -7.1920  -7.1918  -7.1209  -7.1208  -7.0865  -7.0862
    -6.6769  -6.6767  -6.6167  -6.6165  -6.4048  -6.4047  -6.3761  -6.3761
    -6.2204  -6.2204  -6.2024  -6.2024  -5.9410  -5.9408  -5.8451  -5.8449
    -5.5665  -5.5663  -5.5474  -5.5472  -5.3772  -5.3771  -5.3325  -5.3325
    -5.2245  -5.2245  -5.1967  -5.1967  -4.7019  -4.7017  -4.6407  -4.6406
    -4.5414  -4.5414  -4.4959  -4.4958  -4.2510  -4.2507  -4.2323  -4.2319
    -4.1202  -4.1199  -4.1089  -4.1081  -4.0721  -4.0718  -3.9964  -3.9954
    -3.7605  -3.7605  -3.6874  -3.6872  -3.4753  -3.4747  -3.3952  -3.3949
    -3.3386  -3.3380  -3.2747  -3.2743  -2.6826  -2.6825  -2.6503  -2.6503
    -2.3270  -2.3266  -2.2686  -2.2684  -1.9825  -1.9824  -1.9558  -1.9557
    -1.7695  -1.7695  -1.7040  -1.7036  -1.6631  -1.6630  -1.5313  -1.5313
    -1.4254  -1.4250  -1.3530  -1.3530  -1.1032  -1.1032  -1.0397  -1.0395
    -0.8354  -0.8353  -0.7918  -0.7916  -0.3424  -0.3424  -0.2978  -0.2976
     0.1646   0.1648   0.1836   0.1838   0.3958   0.3960   0.4087   0.4087
     0.4877   0.4879   0.5111   0.5112   1.2443   1.2448   1.2822   1.2827
     3.1914   3.1918   3.2345   3.2350   4.2376   4.2380   4.5001   4.5005
     4.6039   4.6043   4.6306   4.6309   5.0433   5.0434   5.1378   5.1380
     5.2195   5.2196   5.2649   5.2653   5.5237   5.5237   5.5792   5.5792
     5.7706   5.7707   5.8371   5.8373   7.1363   7.1368   7.2227   7.2232
     7.4446   7.4449   7.4842   7.4845

     highest occupied, lowest unoccupied level (ev):     1.3573    3.1487

!    total energy              =   -1883.44281278 Ry
     Harris-Foulkes estimate   =   -1883.44281278 Ry
     estimated scf accuracy    <          8.2E-10 Ry

     total all-electron energy =     -7341.148353 Ry

     The total energy is the sum of the following terms:

     one-electron contribution =   -1025.98699233 Ry
     hartree contribution      =     650.94615142 Ry
     xc contribution           =    -388.81822876 Ry
     ewald contribution        =    -544.93885851 Ry
     Dispersion Correction     =      -0.46004931 Ry
     one-center paw contrib.   =    -574.18483529 Ry

     convergence has been achieved in  20 iterations

     Forces acting on atoms (cartesian axes, Ry/au):

     atom    1 type  4   force =     0.00007140    0.00114456    0.00007811
     atom    2 type  4   force =    -0.00117792    0.00062754   -0.00039071
     atom    3 type  4   force =    -0.00007140   -0.00114456   -0.00007811
     atom    4 type  4   force =     0.00117792   -0.00062754    0.00039071
     atom    5 type  4   force =     0.00065272   -0.00022563   -0.00008222
     atom    6 type  4   force =    -0.00074757   -0.00027375    0.00012932
     atom    7 type  4   force =    -0.00065272    0.00022563    0.00008222
     atom    8 type  4   force =     0.00074757    0.00027375   -0.00012932
     atom    9 type  2   force =    -0.00078558   -0.00003876    0.00114153
     atom   10 type  2   force =     0.00071102   -0.00005437   -0.00119824
     atom   11 type  2   force =     0.00078558    0.00003876   -0.00114153
     atom   12 type  2   force =    -0.00071102    0.00005437    0.00119824
     atom   13 type  2   force =    -0.00042397    0.00068722   -0.00105697
     atom   14 type  2   force =     0.00037748    0.00066555    0.00108157
     atom   15 type  2   force =     0.00042397   -0.00068722    0.00105697
     atom   16 type  2   force =    -0.00037748   -0.00066555   -0.00108157
     atom   17 type  2   force =     0.00191218    0.00026779   -0.00063562
     atom   18 type  2   force =    -0.00168311    0.00035540    0.00060754
     atom   19 type  2   force =    -0.00191218   -0.00026779    0.00063562
     atom   20 type  2   force =     0.00168311   -0.00035540   -0.00060754
     atom   21 type  2   force =    -0.00058766    0.00057322    0.00090798
     atom   22 type  2   force =     0.00040874    0.00050921   -0.00087752
     atom   23 type  2   force =     0.00058766   -0.00057322   -0.00090798
     atom   24 type  2   force =    -0.00040874   -0.00050921    0.00087752
     atom   25 type  2   force =    -0.00034217   -0.00024043    0.00051277
     atom   26 type  2   force =     0.00045845   -0.00017300   -0.00044942
     atom   27 type  2   force =     0.00034217    0.00024043   -0.00051277
     atom   28 type  2   force =    -0.00045845    0.00017300    0.00044942
     atom   29 type  2   force =    -0.00091648    0.00073218    0.00011516
     atom   30 type  2   force =     0.00075695    0.00065061   -0.00013134
     atom   31 type  2   force =     0.00091648   -0.00073218   -0.00011516
     atom   32 type  2   force =    -0.00075695   -0.00065061    0.00013134
     atom   33 type  2   force =     0.00118484    0.00022481    0.00018598
     atom   34 type  2   force =    -0.00108864    0.00027692   -0.00017097
     atom   35 type  2   force =    -0.00118484   -0.00022481   -0.00018598
     atom   36 type  2   force =     0.00108864   -0.00027692    0.00017097
     atom   37 type  1   force =     0.00157576    0.00048137    0.00020764
     atom   38 type  1   force =    -0.00031685    0.00107506    0.00018577
     atom   39 type  1   force =    -0.00157576   -0.00048137   -0.00020764
     atom   40 type  1   force =     0.00031685   -0.00107506   -0.00018577
     atom   41 type  1   force =    -0.00038249   -0.00131725   -0.00044122
     atom   42 type  1   force =     0.00038027   -0.00132258    0.00038580
     atom   43 type  1   force =     0.00038249    0.00131725    0.00044122
     atom   44 type  1   force =    -0.00038027    0.00132258   -0.00038580
     atom   45 type  1   force =    -0.00074058    0.00080756    0.00007385
     atom   46 type  1   force =     0.00060401    0.00071524   -0.00013147
     atom   47 type  1   force =     0.00074058   -0.00080756   -0.00007385
     atom   48 type  1   force =    -0.00060401   -0.00071524    0.00013147
     atom   49 type  1   force =    -0.00058459    0.00007048    0.00029588
     atom   50 type  1   force =     0.00065742    0.00012974   -0.00035829
     atom   51 type  1   force =     0.00058459   -0.00007048   -0.00029588
     atom   52 type  1   force =    -0.00065742   -0.00012974    0.00035829
     atom   53 type  1   force =    -0.00135423   -0.00040188   -0.00147569
     atom   54 type  1   force =     0.00142003   -0.00042035    0.00150500
     atom   55 type  1   force =     0.00135423    0.00040188    0.00147569
     atom   56 type  1   force =    -0.00142003    0.00042035   -0.00150500
     atom   57 type  1   force =     0.00151808    0.00001078    0.00067579
     atom   58 type  1   force =    -0.00154875    0.00001929   -0.00068288
     atom   59 type  1   force =    -0.00151808   -0.00001078   -0.00067579
     atom   60 type  1   force =     0.00154875   -0.00001929    0.00068288
     atom   61 type  3   force =    -0.00008390    0.00024680    0.00025742
     atom   62 type  3   force =     0.00008609    0.00025548   -0.00025762
     atom   63 type  3   force =     0.00008390   -0.00024680   -0.00025742
     atom   64 type  3   force =    -0.00008609   -0.00025548    0.00025762
     atom   65 type  1   force =     0.00102135   -0.00089908   -0.00031145
     atom   66 type  1   force =    -0.00101714   -0.00090919    0.00030798
     atom   67 type  1   force =    -0.00102135    0.00089908    0.00031145
     atom   68 type  1   force =     0.00101714    0.00090919   -0.00030798
     atom   69 type  3   force =     0.00008918    0.00030064    0.00016278
     atom   70 type  3   force =    -0.00008632    0.00029752   -0.00016276
     atom   71 type  3   force =    -0.00008918   -0.00030064   -0.00016278
     atom   72 type  3   force =     0.00008632   -0.00029752    0.00016276
     atom   73 type  1   force =     0.00065849    0.00111584    0.00008749
     atom   74 type  1   force =    -0.00067352    0.00112823   -0.00009418
     atom   75 type  1   force =    -0.00065849   -0.00111584   -0.00008749
     atom   76 type  1   force =     0.00067352   -0.00112823    0.00009418
     atom   77 type  3   force =    -0.00004584    0.00004596    0.00002648
     atom   78 type  3   force =     0.00004762    0.00005105   -0.00002032
     atom   79 type  3   force =     0.00004584   -0.00004596   -0.00002648
     atom   80 type  3   force =    -0.00004762   -0.00005105    0.00002032
     atom   81 type  1   force =    -0.00156771   -0.00072722   -0.00100769
     atom   82 type  1   force =     0.00157876   -0.00073630    0.00102701
     atom   83 type  1   force =     0.00156771    0.00072722    0.00100769
     atom   84 type  1   force =    -0.00157876    0.00073630   -0.00102701
     atom   85 type  3   force =    -0.00023903    0.00007175    0.00060447
     atom   86 type  3   force =     0.00023768    0.00007639   -0.00060548
     atom   87 type  3   force =     0.00023903   -0.00007175   -0.00060447
     atom   88 type  3   force =    -0.00023768   -0.00007639    0.00060548
     atom   89 type  1   force =    -0.00081789    0.00118543    0.00068220
     atom   90 type  1   force =     0.00079593    0.00118678   -0.00070909
     atom   91 type  1   force =     0.00081789   -0.00118543   -0.00068220
     atom   92 type  1   force =    -0.00079593   -0.00118678    0.00070909
     atom   93 type  3   force =    -0.00007167    0.00029113    0.00018652
     atom   94 type  3   force =     0.00007951    0.00029022   -0.00018134
     atom   95 type  3   force =     0.00007167   -0.00029113   -0.00018652
     atom   96 type  3   force =    -0.00007951   -0.00029022    0.00018134

     Total force =     0.012302     Total SCF correction =     0.000071


     Computing stress (Cartesian axis) and pressure

          total   stress  (Ry/bohr**3)                   (kbar)     P=   -1.67
  -0.00000409   0.00000023  -0.00000596         -0.60      0.03     -0.88
   0.00000023  -0.00001844   0.00000008          0.03     -2.71      0.01
  -0.00000596   0.00000008  -0.00001159         -0.88      0.01     -1.70


     Writing output data file scf.save
 
     init_run     :     79.30s CPU     81.71s WALL (       1 calls)
     electrons    :   3277.02s CPU   3380.33s WALL (       1 calls)
     forces       :     37.39s CPU     37.64s WALL (       1 calls)
     stress       :    171.50s CPU    171.96s WALL (       1 calls)

     Called by init_run:
     wfcinit      :     66.48s CPU     68.70s WALL (       1 calls)
     potinit      :      4.59s CPU      4.62s WALL (       1 calls)

     Called by electrons:
     c_bands      :   2952.92s CPU   3042.28s WALL (      20 calls)
     sum_band     :    304.23s CPU    316.09s WALL (      20 calls)
     v_of_rho     :      3.32s CPU      3.56s WALL (      21 calls)
     newd         :      7.85s CPU      9.68s WALL (      21 calls)
     PAW_pot      :      8.01s CPU      8.01s WALL (      21 calls)
     mix_rho      :      0.89s CPU      0.96s WALL (      20 calls)

     Called by c_bands:
     init_us_2    :     14.93s CPU     15.05s WALL (     344 calls)
     cegterg      :   2890.92s CPU   2979.60s WALL (     160 calls)

     Called by sum_band:
     sum_band:bec :      0.16s CPU      0.16s WALL (     160 calls)
     addusdens    :      8.12s CPU      9.94s WALL (      20 calls)

     Called by *egterg:
     h_psi        :   1538.77s CPU   1603.90s WALL (     740 calls)
     s_psi        :    372.36s CPU    372.53s WALL (     740 calls)
     g_psi        :      6.39s CPU      6.39s WALL (     572 calls)
     cdiaghg      :    151.79s CPU    151.86s WALL (     732 calls)

     Called by h_psi:
     h_psi:pot    :   1528.56s CPU   1593.35s WALL (     740 calls)
     h_psi:calbec :    361.75s CPU    362.62s WALL (     740 calls)
     vloc_psi     :    793.80s CPU    857.50s WALL (     740 calls)
     add_vuspsi   :    373.01s CPU    373.22s WALL (     740 calls)

     General routines
     calbec       :    521.18s CPU    522.44s WALL (     940 calls)
     fft          :      2.84s CPU      3.28s WALL (     297 calls)
     fftw         :    828.72s CPU    901.09s WALL (  230260 calls)
 
     Parallel routines
     fft_scatter  :    203.14s CPU    273.10s WALL (  230557 calls)
 
     PWSCF        :     0h59m CPU        1h 2m WALL

 
   This run was terminated on:  16:27:50  20Dec2017            

=------------------------------------------------------------------------------=
   JOB DONE.
=------------------------------------------------------------------------------=
