
     Program PWSCF v.6.1 (svn rev. 13369) starts on  4Nov2017 at 22:52:33 

     This program is part of the open-source Quantum ESPRESSO suite
     for quantum simulation of materials; please cite
         "P. Giannozzi et al., J. Phys.:Condens. Matter 21 395502 (2009);
          URL http://www.quantum-espresso.org", 
     in publications or presentations arising from this work. More details at
     http://www.quantum-espresso.org/quote

     Parallel version (MPI), running on     8 processors
     R & G space division:  proc/nbgrp/npool/nimage =       8
     Waiting for input...
     Reading input from standard input

     Current dimensions of program PWSCF are:
     Max number of different atomic species (ntypx) = 10
     Max number of k-points (npk) =  40000
     Max angular momentum in pseudopotentials (lmaxx) =  3
               file C.pbe-n-kjpaw_psl.0.1.UPF: wavefunction(s)  2P renormalized
               file N.pbe-n-kjpaw_psl.0.1.UPF: wavefunction(s)  2P renormalized
               file H.pbe-kjpaw_psl.0.1.UPF: wavefunction(s)  1S renormalized
               file O.pbe-n-kjpaw_psl.0.1.UPF: wavefunction(s)  2P renormalized

     -------------------------------------
     Parameters for Dispersion Correction:
     -------------------------------------
       atom      VdW radius       C_6     

        C          2.744         60.710
        N          2.640         42.670
        H          1.892          4.857
        O          2.536         24.284

     Subspace diagonalization in iterative solution of the eigenvalue problem:
     a serial algorithm will be used

 
     Parallelization info
     --------------------
     sticks:   dense  smooth     PW     G-vecs:    dense   smooth      PW
     Min        1235    1235    326                63012    63012    8558
     Max        1237    1237    328                63013    63013    8559
     Sum        9883    9883   2613               504103   504103   68467
 


     bravais-lattice index     =            0
     lattice parameter (alat)  =      27.3513  a.u.
     unit-cell volume          =    3730.6039 (a.u.)^3
     number of atoms/cell      =           56
     number of atomic types    =            4
     number of electrons       =       200.00
     number of Kohn-Sham states=          120
     kinetic-energy cutoff     =     100.0000  Ry
     charge density cutoff     =     400.0000  Ry
     convergence threshold     =      1.0E-08
     mixing beta               =       0.5000
     number of iterations used =            8  plain     mixing
     Exchange-correlation      =  SLA  PW   PBX  PBC ( 1  4  3  4 0 0)

     celldm(1)=  27.351329  celldm(2)=   0.000000  celldm(3)=   0.000000
     celldm(4)=   0.000000  celldm(5)=   0.000000  celldm(6)=   0.000000

     crystal axes: (cart. coord. in units of alat)
               a(1) = (   1.000000   0.000000   0.000000 )  
               a(2) = (   0.000000   0.414752   0.000000 )  
               a(3) = (   0.000000   0.000000   0.439597 )  

     reciprocal axes: (cart. coord. in units 2 pi/alat)
               b(1) = (  1.000000  0.000000  0.000000 )  
               b(2) = (  0.000000  2.411078  0.000000 )  
               b(3) = (  0.000000  0.000000  2.274809 )  


     PseudoPot. # 1 for  C read from file:
     /scratch/ahofstet/pseudo/C.pbe-n-kjpaw_psl.0.1.UPF
     MD5 check sum: 430fe95172b1e11ef3f8ed03bac87931
     Pseudo is Projector augmented-wave + core cor, Zval =  4.0
     Generated using "atomic" code by A. Dal Corso  v.5.0.99 svn rev. 10869
     Shape of augmentation charge: BESSEL
     Using radial grid of 1073 points,  4 beta functions with: 
                l(1) =   0
                l(2) =   0
                l(3) =   1
                l(4) =   1
     Q(r) pseudized with 0 coefficients 


     PseudoPot. # 2 for  N read from file:
     /scratch/ahofstet/pseudo/N.pbe-n-kjpaw_psl.0.1.UPF
     MD5 check sum: f73187c8b701007e77325f868c9291d7
     Pseudo is Projector augmented-wave + core cor, Zval =  5.0
     Generated using "atomic" code by A. Dal Corso  v.5.0.99 svn rev. 10869
     Shape of augmentation charge: PSQ
     Using radial grid of 1085 points,  4 beta functions with: 
                l(1) =   0
                l(2) =   0
                l(3) =   1
                l(4) =   1
     Q(r) pseudized with 0 coefficients 


     PseudoPot. # 3 for  H read from file:
     /scratch/ahofstet/pseudo/H.pbe-kjpaw_psl.0.1.UPF
     MD5 check sum: 94e484f906d9e9773b2f6e52662335b2
     Pseudo is Projector augmented-wave, Zval =  1.0
     Generated using "atomic" code by A. Dal Corso  v.5.0.99 svn rev. 10869
     Shape of augmentation charge: PSQ
     Using radial grid of  929 points,  2 beta functions with: 
                l(1) =   0
                l(2) =   0
     Q(r) pseudized with 0 coefficients 


     PseudoPot. # 4 for  O read from file:
     /scratch/ahofstet/pseudo/O.pbe-n-kjpaw_psl.0.1.UPF
     MD5 check sum: 3f94a2996a3169367d6eb21d9b593f20
     Pseudo is Projector augmented-wave + core cor, Zval =  6.0
     Generated using "atomic" code by A. Dal Corso  v.5.0.99 svn rev. 10869
     Shape of augmentation charge: BESSEL
     Using radial grid of 1095 points,  4 beta functions with: 
                l(1) =   0
                l(2) =   0
                l(3) =   1
                l(4) =   1
     Q(r) pseudized with 0 coefficients 


     atomic species   valence    mass     pseudopotential
        C              4.00    12.01070      C( 1.00)
        N              5.00    14.00670      N( 1.00)
        H              1.00     1.00794      H( 1.00)
        O              6.00    15.99940      O( 1.00)

      2 Sym. Ops., with inversion, found
          (note:  2 additional sym.ops. were found but ignored
           their fractional translations are incommensurate with FFT grid)


   Cartesian axes

     site n.     atom                  positions (alat units)
         1           N   tau(   1) = (   0.2975068   0.1036881   0.0572047  )
         2           N   tau(   2) = (   0.2024739   0.3110642   0.2770049  )
         3           N   tau(   3) = (   0.7024932   0.3110642   0.3823926  )
         4           N   tau(   4) = (   0.7975261   0.1036881   0.1625924  )
         5           H   tau(   5) = (   0.2468104   0.1036881   0.0047426  )
         6           H   tau(   6) = (   0.2531676   0.3110642   0.2245433  )
         7           H   tau(   7) = (   0.7531896   0.3110642   0.4348547  )
         8           H   tau(   8) = (   0.7468324   0.1036881   0.2150540  )
         9           C   tau(   9) = (   0.2671975   0.1036881   0.1463515  )
        10           C   tau(  10) = (   0.2327781   0.3110642   0.3661489  )
        11           C   tau(  11) = (   0.7328025   0.3110642   0.2932458  )
        12           C   tau(  12) = (   0.7672219   0.1036881   0.0734484  )
        13           O   tau(  13) = (   0.3329209   0.1036881   0.2143810  )
        14           O   tau(  14) = (   0.1670524   0.3110642   0.4341766  )
        15           O   tau(  15) = (   0.6670791   0.3110642   0.2252164  )
        16           O   tau(  16) = (   0.8329476   0.1036881   0.0054208  )
        17           C   tau(  17) = (   0.4282409   0.1036881   0.1969883  )
        18           C   tau(  18) = (   0.0717232   0.3110642   0.4167840  )
        19           C   tau(  19) = (   0.5717591   0.3110642   0.2426091  )
        20           C   tau(  20) = (   0.9282768   0.1036881   0.0228133  )
        21           C   tau(  21) = (   0.4555387   0.1036881   0.1018020  )
        22           C   tau(  22) = (   0.0444365   0.3110642   0.3215988  )
        23           C   tau(  23) = (   0.5444613   0.3110642   0.3377954  )
        24           C   tau(  24) = (   0.9555635   0.1036881   0.1179986  )
        25           H   tau(  25) = (   0.5286366   0.1036881   0.0849906  )
        26           H   tau(  26) = (   0.9713409   0.3110642   0.3047791  )
        27           H   tau(  27) = (   0.4713634   0.3110642   0.3546067  )
        28           H   tau(  28) = (   0.0286591   0.1036881   0.1348183  )
        29           C   tau(  29) = (   0.3891904   0.1036881   0.0353931  )
        30           C   tau(  30) = (   0.1107861   0.3110642   0.2551931  )
        31           C   tau(  31) = (   0.6108096   0.3110642   0.4042043  )
        32           C   tau(  32) = (   0.8892139   0.1036881   0.1844042  )
        33           H   tau(  33) = (   0.4063377   0.1036881   0.4008504  )
        34           H   tau(  34) = (   0.0936463   0.3110642   0.1810520  )
        35           H   tau(  35) = (   0.5936623   0.3110642   0.0387469  )
        36           H   tau(  36) = (   0.9063537   0.1036881   0.2585453  )
        37           O   tau(  37) = (   0.1857513   0.1036881   0.1693791  )
        38           O   tau(  38) = (   0.3142373   0.3110642   0.3891832  )
        39           O   tau(  39) = (   0.8142487   0.3110642   0.2702183  )
        40           O   tau(  40) = (   0.6857627   0.1036881   0.0504142  )
        41           O   tau(  41) = (   0.4767850   0.1036881   0.2662927  )
        42           O   tau(  42) = (   0.0231870   0.3110642   0.0464981  )
        43           O   tau(  43) = (   0.5232150   0.3110642   0.1733046  )
        44           O   tau(  44) = (   0.9768130   0.1036881   0.3930992  )
        45           O   tau(  45) = (   0.1672453   0.1036881   0.3620661  )
        46           O   tau(  46) = (   0.3327530   0.3110642   0.1422702  )
        47           O   tau(  47) = (   0.8327547   0.3110642   0.0775313  )
        48           O   tau(  48) = (   0.6672470   0.1036881   0.2973271  )
        49           H   tau(  49) = (   0.1733602   0.1036881   0.2943395  )
        50           H   tau(  50) = (   0.3266337   0.3110642   0.0745449  )
        51           H   tau(  51) = (   0.8266398   0.3110642   0.1452579  )
        52           H   tau(  52) = (   0.6733663   0.1036881   0.3650525  )
        53           H   tau(  53) = (   0.1006771   0.1036881   0.3762094  )
        54           H   tau(  54) = (   0.3993214   0.3110642   0.1564100  )
        55           H   tau(  55) = (   0.8993229   0.3110642   0.0633880  )
        56           H   tau(  56) = (   0.6006786   0.1036881   0.2831873  )

     number of k points=    10
                       cart. coord. in units 2pi/alat
        k(    1) = (   0.0000000   0.0000000   0.0000000), wk =   0.1111111
        k(    2) = (   0.0000000   0.0000000   0.7582697), wk =   0.2222222
        k(    3) = (   0.0000000   0.8036926   0.0000000), wk =   0.2222222
        k(    4) = (   0.0000000   0.8036926   0.7582697), wk =   0.2222222
        k(    5) = (  -0.5000000   0.0000000   0.0000000), wk =   0.1111111
        k(    6) = (  -0.5000000   0.0000000   0.7582697), wk =   0.2222222
        k(    7) = (  -0.5000000   0.8036926   0.0000000), wk =   0.2222222
        k(    8) = (  -0.5000000   0.8036926   0.7582697), wk =   0.2222222
        k(    9) = (   0.0000000   0.8036926  -0.7582697), wk =   0.2222222
        k(   10) = (   0.5000000   0.8036926  -0.7582697), wk =   0.2222222

     Dense  grid:   504103 G-vectors     FFT dimensions: ( 180,  75,  80)

     Estimated max dynamical RAM per process >     358.37MB

     Estimated total allocated dynamical RAM >    2866.97MB

     Check: negative/imaginary core charge=   -0.000003    0.000000

     Initial potential from superposition of free atoms

     starting charge  199.99909, renormalised to  200.00000
     Starting wfc are  164 randomized atomic wfcs
     Checking if some PAW data can be deallocated... 

     total cpu time spent up to now is       18.0 secs

     per-process dynamical memory:   283.3 Mb

     Self-consistent Calculation

     iteration #  1     ecut=   100.00 Ry     beta=0.50
     Davidson diagonalization with overlap
     ethr =  1.00E-02,  avg # of iterations =  3.3

     total cpu time spent up to now is       67.6 secs

     total energy              =   -1097.09959352 Ry
     Harris-Foulkes estimate   =   -1100.63842389 Ry
     estimated scf accuracy    <       6.26440738 Ry

     iteration #  2     ecut=   100.00 Ry     beta=0.50
     Davidson diagonalization with overlap
     ethr =  3.13E-03,  avg # of iterations =  3.0

     total cpu time spent up to now is      100.8 secs

     total energy              =   -1098.23815377 Ry
     Harris-Foulkes estimate   =   -1098.82181542 Ry
     estimated scf accuracy    <       1.21497806 Ry

     iteration #  3     ecut=   100.00 Ry     beta=0.50
     Davidson diagonalization with overlap
     ethr =  6.07E-04,  avg # of iterations =  6.1

     total cpu time spent up to now is      142.7 secs

     total energy              =   -1098.55955532 Ry
     Harris-Foulkes estimate   =   -1098.70561523 Ry
     estimated scf accuracy    <       0.35730945 Ry

     iteration #  4     ecut=   100.00 Ry     beta=0.50
     Davidson diagonalization with overlap
     ethr =  1.79E-04,  avg # of iterations =  5.0

     total cpu time spent up to now is      173.8 secs

     total energy              =   -1098.61260189 Ry
     Harris-Foulkes estimate   =   -1098.62554377 Ry
     estimated scf accuracy    <       0.04334757 Ry

     iteration #  5     ecut=   100.00 Ry     beta=0.50
     Davidson diagonalization with overlap
     ethr =  2.17E-05,  avg # of iterations =  7.2

     total cpu time spent up to now is      225.2 secs

     total energy              =   -1098.62492525 Ry
     Harris-Foulkes estimate   =   -1098.63032308 Ry
     estimated scf accuracy    <       0.01498848 Ry

     iteration #  6     ecut=   100.00 Ry     beta=0.50
     Davidson diagonalization with overlap
     ethr =  7.49E-06,  avg # of iterations =  1.2

     total cpu time spent up to now is      251.1 secs

     total energy              =   -1098.62516313 Ry
     Harris-Foulkes estimate   =   -1098.62648964 Ry
     estimated scf accuracy    <       0.00303510 Ry

     iteration #  7     ecut=   100.00 Ry     beta=0.50
     Davidson diagonalization with overlap
     ethr =  1.52E-06,  avg # of iterations =  4.6

     total cpu time spent up to now is      298.3 secs

     total energy              =   -1098.62677994 Ry
     Harris-Foulkes estimate   =   -1098.62701975 Ry
     estimated scf accuracy    <       0.00082648 Ry

     iteration #  8     ecut=   100.00 Ry     beta=0.50
     Davidson diagonalization with overlap
     ethr =  4.13E-07,  avg # of iterations =  1.0

     total cpu time spent up to now is      324.2 secs

     total energy              =   -1098.62670590 Ry
     Harris-Foulkes estimate   =   -1098.62683208 Ry
     estimated scf accuracy    <       0.00029309 Ry

     iteration #  9     ecut=   100.00 Ry     beta=0.50
     Davidson diagonalization with overlap
     ethr =  1.47E-07,  avg # of iterations =  3.0

     total cpu time spent up to now is      362.7 secs

     total energy              =   -1098.62680896 Ry
     Harris-Foulkes estimate   =   -1098.62682274 Ry
     estimated scf accuracy    <       0.00003206 Ry

     iteration # 10     ecut=   100.00 Ry     beta=0.50
     Davidson diagonalization with overlap
     ethr =  1.60E-08,  avg # of iterations =  2.9

     total cpu time spent up to now is      392.0 secs

     total energy              =   -1098.62681285 Ry
     Harris-Foulkes estimate   =   -1098.62681453 Ry
     estimated scf accuracy    <       0.00000508 Ry

     iteration # 11     ecut=   100.00 Ry     beta=0.50
     Davidson diagonalization with overlap
     ethr =  2.54E-09,  avg # of iterations =  4.0

     total cpu time spent up to now is      437.5 secs

     total energy              =   -1098.62681586 Ry
     Harris-Foulkes estimate   =   -1098.62681672 Ry
     estimated scf accuracy    <       0.00000243 Ry

     iteration # 12     ecut=   100.00 Ry     beta=0.50
     Davidson diagonalization with overlap
     ethr =  1.22E-09,  avg # of iterations =  1.1

     total cpu time spent up to now is      463.4 secs

     total energy              =   -1098.62681590 Ry
     Harris-Foulkes estimate   =   -1098.62681612 Ry
     estimated scf accuracy    <       0.00000049 Ry

     iteration # 13     ecut=   100.00 Ry     beta=0.50
     Davidson diagonalization with overlap
     ethr =  2.44E-10,  avg # of iterations =  3.3

     total cpu time spent up to now is      507.7 secs

     total energy              =   -1098.62681617 Ry
     Harris-Foulkes estimate   =   -1098.62681622 Ry
     estimated scf accuracy    <       0.00000018 Ry

     iteration # 14     ecut=   100.00 Ry     beta=0.50
     Davidson diagonalization with overlap
     ethr =  9.08E-11,  avg # of iterations =  1.0

     total cpu time spent up to now is      533.6 secs

     total energy              =   -1098.62681615 Ry
     Harris-Foulkes estimate   =   -1098.62681618 Ry
     estimated scf accuracy    <       0.00000005 Ry

     iteration # 15     ecut=   100.00 Ry     beta=0.50
     Davidson diagonalization with overlap
     ethr =  2.73E-11,  avg # of iterations =  3.0

     total cpu time spent up to now is      574.4 secs

     total energy              =   -1098.62681618 Ry
     Harris-Foulkes estimate   =   -1098.62681618 Ry
     estimated scf accuracy    <       0.00000001 Ry

     iteration # 16     ecut=   100.00 Ry     beta=0.50
     Davidson diagonalization with overlap
     ethr =  6.10E-12,  avg # of iterations =  1.2

     total cpu time spent up to now is      600.4 secs

     End of self-consistent calculation

          k = 0.0000 0.0000 0.0000 ( 62933 PWs)   bands (ev):

   -22.0712 -22.0564 -22.0402 -22.0295 -20.1660 -20.1602 -20.1278 -20.0990
   -18.9936 -18.9776 -18.9724 -18.9339 -18.1491 -18.1490 -18.1403 -18.1174
   -17.5683 -17.5605 -17.4803 -17.4706 -13.0789 -13.0673 -13.0655 -13.0330
   -10.4479 -10.4429 -10.4155 -10.3984 -10.3791 -10.3349 -10.3146 -10.3121
    -7.7205  -7.6722  -7.6647  -7.6466  -7.4313  -7.3712  -7.3357  -7.2971
    -6.3530  -6.3415  -6.3312  -6.3021  -6.0088  -5.8928  -5.6751  -5.5120
    -5.3337  -5.2947  -5.0563  -5.0319  -4.6926  -4.6142  -4.5698  -4.5668
    -4.2695  -4.2269  -4.1947  -4.1782  -4.0486  -4.0213  -3.9342  -3.9171
    -3.9022  -3.8768  -3.5081  -3.4000  -2.7809  -2.7358  -2.7052  -2.7004
    -2.6858  -2.6419  -2.4330  -2.3905  -2.3519  -2.2388  -2.1848  -2.1784
    -1.4737  -1.2898  -1.2503  -1.1830  -1.0601  -1.0344  -1.0110  -0.9589
    -0.3693  -0.3383  -0.2921  -0.2767  -0.2561  -0.2517  -0.2332  -0.2307
     0.3298   0.4332   0.6615   0.6652   3.8981   4.0301   4.3904   4.4882
     5.5934   5.6160   5.6336   5.8162   6.4477   7.1579   7.4865   8.0661
     8.2176   8.2386   8.2659   8.4252   8.5973   8.8243   8.8652   9.0222

          k = 0.0000 0.0000 0.7583 ( 62956 PWs)   bands (ev):

   -22.0612 -22.0475 -22.0457 -22.0340 -20.1632 -20.1603 -20.1193 -20.1048
   -18.9882 -18.9801 -18.9617 -18.9421 -18.1969 -18.1931 -18.1711 -18.1612
   -17.5134 -17.4968 -17.4714 -17.4565 -13.1171 -13.1086 -13.0563 -13.0426
   -10.4248 -10.4159 -10.4141 -10.3951 -10.2977 -10.2612 -10.2595 -10.2573
    -7.7116  -7.6996  -7.6766  -7.6584  -7.2749  -7.2288  -7.1953  -7.1594
    -6.4323  -6.4169  -6.3377  -6.3263  -5.9175  -5.8005  -5.7472  -5.6098
    -5.5587  -5.5315  -5.1039  -5.0884  -4.9684  -4.9055  -4.6252  -4.6144
    -4.4296  -4.4068  -4.3414  -4.3082  -4.0641  -4.0520  -4.0393  -3.9859
    -3.7529  -3.7325  -3.5113  -3.4752  -2.7439  -2.7139  -2.6831  -2.6433
    -2.6018  -2.5767  -2.4357  -2.3070  -2.3058  -2.2964  -1.9905  -1.9781
    -1.4284  -1.3183  -1.2678  -1.2135  -0.9686  -0.9124  -0.8351  -0.8029
    -0.3547  -0.3206  -0.3136  -0.2830  -0.2750  -0.2227  -0.1639  -0.1546
     0.2314   0.2993   0.7476   0.7495   4.0899   4.1373   4.4918   4.5846
     5.5906   5.6308   5.6652   5.7641   6.8073   7.4500   7.5554   7.7751
     7.8929   7.9712   8.3163   8.4040   8.4986   8.4999   8.5864   8.7525

          k = 0.0000 0.8037 0.0000 ( 62992 PWs)   bands (ev):

   -22.0599 -22.0513 -22.0432 -22.0391 -20.1565 -20.1446 -20.1373 -20.1139
   -18.9895 -18.9815 -18.9626 -18.9434 -18.1470 -18.1424 -18.1416 -18.1256
   -17.5508 -17.5421 -17.5066 -17.4969 -13.0756 -13.0695 -13.0576 -13.0411
   -10.4357 -10.4345 -10.4211 -10.4092 -10.3670 -10.3340 -10.3328 -10.3212
    -7.7141  -7.6901  -7.6682  -7.6593  -7.4106  -7.3628  -7.3546  -7.3181
    -6.3694  -6.3651  -6.3444  -6.3310  -5.8388  -5.7712  -5.6578  -5.5938
    -5.3193  -5.2904  -5.0568  -5.0438  -4.6635  -4.6098  -4.6013  -4.5837
    -4.2545  -4.2312  -4.2183  -4.2067  -3.9937  -3.9721  -3.9490  -3.9389
    -3.7894  -3.7662  -3.5777  -3.5071  -2.7828  -2.7380  -2.7371  -2.6703
    -2.6325  -2.5157  -2.5149  -2.3815  -2.3303  -2.1879  -2.1645  -2.1406
    -1.3787  -1.3244  -1.2743  -1.2273  -1.0331  -1.0258  -1.0214  -0.9860
    -0.5096  -0.4795  -0.4742  -0.4575  -0.2612  -0.2453  -0.2355  -0.2351
     0.4296   0.4955   0.5995   0.6126   4.0155   4.0892   4.2622   4.3177
     5.5337   5.5441   5.6162   5.7090   7.0658   7.7993   8.0127   8.0249
     8.0443   8.1210   8.2388   8.3097   8.8794   9.0165   9.1739   9.2301

          k = 0.0000 0.8037 0.7583 ( 63022 PWs)   bands (ev):

   -22.0535 -22.0461 -22.0451 -22.0399 -20.1520 -20.1461 -20.1300 -20.1182
   -18.9833 -18.9771 -18.9614 -18.9496 -18.1954 -18.1934 -18.1698 -18.1647
   -17.5073 -17.4912 -17.4862 -17.4709 -13.1011 -13.0973 -13.0668 -13.0591
   -10.4180 -10.4153 -10.4137 -10.4005 -10.2902 -10.2717 -10.2622 -10.2612
    -7.7077  -7.7029  -7.6856  -7.6752  -7.2594  -7.2289  -7.2009  -7.1759
    -6.4489  -6.4417  -6.3569  -6.3517  -5.7868  -5.7222  -5.6940  -5.6365
    -5.5494  -5.5400  -5.0780  -5.0710  -4.9752  -4.9374  -4.6366  -4.6273
    -4.4357  -4.4200  -4.3468  -4.3235  -4.0949  -4.0815  -3.8614  -3.8431
    -3.7217  -3.7150  -3.5604  -3.5261  -2.7355  -2.7212  -2.7022  -2.6775
    -2.5858  -2.5248  -2.5040  -2.3795  -2.2246  -2.1880  -1.9652  -1.9512
    -1.3594  -1.3086  -1.3033  -1.2555  -0.9535  -0.9296  -0.8252  -0.8104
    -0.5170  -0.5007  -0.4762  -0.4634  -0.2598  -0.2316  -0.1570  -0.1532
     0.3833   0.4155   0.6410   0.6426   4.1772   4.2124   4.3859   4.4251
     5.5532   5.5624   5.6505   5.6961   7.3797   7.9109   7.9258   8.0310
     8.1471   8.1599   8.2924   8.3331   8.4829   8.7429   8.8228   8.8569

          k =-0.5000 0.0000 0.0000 ( 62968 PWs)   bands (ev):

   -22.0653 -22.0651 -22.0336 -22.0333 -20.1642 -20.1634 -20.1133 -20.1124
   -18.9844 -18.9839 -18.9548 -18.9545 -18.1509 -18.1506 -18.1270 -18.1268
   -17.5644 -17.5644 -17.4754 -17.4754 -13.0743 -13.0736 -13.0489 -13.0482
   -10.4511 -10.4508 -10.4049 -10.4049 -10.3529 -10.3526 -10.3133 -10.3128
    -7.6971  -7.6966  -7.6581  -7.6576  -7.4046  -7.4036  -7.3171  -7.3162
    -6.3517  -6.3512  -6.3334  -6.3329  -5.9628  -5.9627  -5.5824  -5.5821
    -5.0716  -5.0708  -4.9998  -4.9989  -4.8581  -4.8571  -4.7760  -4.7751
    -4.2363  -4.2360  -4.1857  -4.1853  -3.9876  -3.9870  -3.8964  -3.8959
    -3.8036  -3.8031  -3.4491  -3.4490  -2.7599  -2.7598  -2.7511  -2.7509
    -2.7125  -2.7124  -2.2999  -2.2998  -2.2619  -2.2618  -2.2589  -2.2588
    -1.3962  -1.3959  -1.2028  -1.2024  -1.0457  -1.0455  -0.9774  -0.9773
    -0.3566  -0.3564  -0.2753  -0.2750  -0.2699  -0.2697  -0.2353  -0.2350
     0.3809   0.3824   0.6627   0.6640   3.9574   3.9591   4.4450   4.4465
     5.5873   5.5880   5.7386   5.7395   6.7050   6.7053   7.9559   7.9560
     8.1613   8.1617   8.3363   8.3364   8.7313   8.7315   8.9639   8.9640

          k =-0.5000 0.0000 0.7583 ( 62930 PWs)   bands (ev):

   -22.0570 -22.0565 -22.0377 -22.0372 -20.1622 -20.1615 -20.1124 -20.1115
   -18.9819 -18.9814 -18.9548 -18.9543 -18.1876 -18.1873 -18.1739 -18.1736
   -17.5050 -17.5049 -17.4638 -17.4637 -13.1128 -13.1111 -13.0515 -13.0498
   -10.4217 -10.4216 -10.4013 -10.4013 -10.2820 -10.2812 -10.2580 -10.2572
    -7.7048  -7.7039  -7.6712  -7.6704  -7.2541  -7.2530  -7.1836  -7.1826
    -6.3873  -6.3864  -6.3736  -6.3728  -5.8786  -5.8785  -5.6592  -5.6590
    -5.3606  -5.3595  -5.3106  -5.3098  -4.8690  -4.8685  -4.7288  -4.7280
    -4.3780  -4.3777  -4.3235  -4.3233  -4.0119  -4.0113  -3.9000  -3.8992
    -3.8625  -3.8616  -3.4959  -3.4957  -2.7467  -2.7464  -2.6999  -2.6997
    -2.5934  -2.5932  -2.3604  -2.3604  -2.1245  -2.1243  -2.1098  -2.1095
    -1.3840  -1.3836  -1.2313  -1.2309  -0.9082  -0.9079  -0.8567  -0.8565
    -0.3392  -0.3389  -0.2918  -0.2915  -0.2307  -0.2298  -0.1797  -0.1788
     0.2641   0.2655   0.7482   0.7495   4.1108   4.1125   4.5397   4.5412
     5.6277   5.6286   5.6930   5.6939   7.0228   7.0232   7.8033   7.8035
     7.9512   7.9524   8.3424   8.3426   8.4313   8.4325   8.7445   8.7450

          k =-0.5000 0.8037 0.0000 ( 63030 PWs)   bands (ev):

   -22.0565 -22.0562 -22.0406 -22.0403 -20.1513 -20.1505 -20.1258 -20.1250
   -18.9769 -18.9764 -18.9621 -18.9617 -18.1452 -18.1450 -18.1331 -18.1329
   -17.5465 -17.5465 -17.5017 -17.5017 -13.0678 -13.0671 -13.0550 -13.0543
   -10.4386 -10.4384 -10.4155 -10.4154 -10.3464 -10.3461 -10.3266 -10.3262
    -7.6943  -7.6938  -7.6751  -7.6746  -7.3851  -7.3841  -7.3415  -7.3406
    -6.3677  -6.3673  -6.3589  -6.3584  -5.8099  -5.8099  -5.6169  -5.6167
    -5.0499  -5.0491  -5.0137  -5.0128  -4.8444  -4.8434  -4.8057  -4.8047
    -4.2357  -4.2355  -4.2095  -4.2092  -3.9045  -3.9042  -3.8799  -3.8795
    -3.7537  -3.7531  -3.5362  -3.5360  -2.8041  -2.8039  -2.7627  -2.7623
    -2.5574  -2.5574  -2.4097  -2.4096  -2.2405  -2.2405  -2.1543  -2.1543
    -1.3586  -1.3584  -1.2460  -1.2458  -1.0273  -1.0270  -0.9973  -0.9971
    -0.4982  -0.4978  -0.4618  -0.4615  -0.2622  -0.2620  -0.2398  -0.2395
     0.4616   0.4631   0.6051   0.6065   4.0487   4.0503   4.2922   4.2937
     5.5653   5.5660   5.6318   5.6326   7.3332   7.3336   8.0830   8.0831
     8.1709   8.1710   8.2937   8.2937   8.8840   8.8847   9.1392   9.1401

          k =-0.5000 0.8037 0.7583 ( 63030 PWs)   bands (ev):

   -22.0512 -22.0508 -22.0415 -22.0411 -20.1495 -20.1487 -20.1245 -20.1237
   -18.9750 -18.9745 -18.9614 -18.9609 -18.1845 -18.1842 -18.1776 -18.1773
   -17.4991 -17.4991 -17.4784 -17.4784 -13.0974 -13.0957 -13.0667 -13.0650
   -10.4158 -10.4157 -10.4057 -10.4057 -10.2785 -10.2777 -10.2664 -10.2656
    -7.7026  -7.7017  -7.6860  -7.6851  -7.2382  -7.2371  -7.2030  -7.2020
    -6.4044  -6.4035  -6.3989  -6.3980  -5.7659  -5.7659  -5.6554  -5.6552
    -5.3465  -5.3454  -5.3179  -5.3170  -4.8447  -4.8441  -4.7719  -4.7711
    -4.3766  -4.3763  -4.3464  -4.3461  -3.9348  -3.9342  -3.9085  -3.9078
    -3.7663  -3.7656  -3.5523  -3.5520  -2.7517  -2.7514  -2.7307  -2.7305
    -2.5246  -2.5244  -2.4215  -2.4214  -2.0828  -2.0827  -2.0634  -2.0633
    -1.3445  -1.3444  -1.2709  -1.2707  -0.8933  -0.8931  -0.8711  -0.8709
    -0.5034  -0.5030  -0.4747  -0.4744  -0.2115  -0.2106  -0.1864  -0.1854
     0.3981   0.3995   0.6407   0.6421   4.1926   4.1943   4.4067   4.4083
     5.5986   5.5994   5.6274   5.6282   7.6084   7.6089   7.9679   7.9691
     8.2000   8.2010   8.2965   8.2968   8.6548   8.6552   8.8596   8.8602

          k = 0.0000 0.8037-0.7583 ( 63022 PWs)   bands (ev):

   -22.0535 -22.0461 -22.0451 -22.0399 -20.1520 -20.1461 -20.1300 -20.1182
   -18.9833 -18.9771 -18.9614 -18.9496 -18.1954 -18.1934 -18.1698 -18.1647
   -17.5073 -17.4912 -17.4862 -17.4709 -13.1011 -13.0973 -13.0668 -13.0591
   -10.4180 -10.4153 -10.4137 -10.4005 -10.2902 -10.2717 -10.2622 -10.2612
    -7.7077  -7.7029  -7.6856  -7.6752  -7.2594  -7.2289  -7.2009  -7.1759
    -6.4489  -6.4417  -6.3569  -6.3517  -5.7868  -5.7222  -5.6940  -5.6365
    -5.5494  -5.5400  -5.0780  -5.0710  -4.9752  -4.9374  -4.6366  -4.6273
    -4.4357  -4.4200  -4.3468  -4.3235  -4.0949  -4.0815  -3.8614  -3.8431
    -3.7217  -3.7150  -3.5604  -3.5261  -2.7355  -2.7212  -2.7022  -2.6775
    -2.5858  -2.5248  -2.5040  -2.3795  -2.2246  -2.1880  -1.9652  -1.9512
    -1.3594  -1.3086  -1.3033  -1.2555  -0.9535  -0.9296  -0.8252  -0.8104
    -0.5170  -0.5007  -0.4762  -0.4634  -0.2598  -0.2316  -0.1570  -0.1532
     0.3833   0.4155   0.6410   0.6426   4.1772   4.2124   4.3859   4.4251
     5.5532   5.5624   5.6505   5.6961   7.3797   7.9109   7.9258   8.0310
     8.1471   8.1599   8.2924   8.3331   8.4829   8.7429   8.8228   8.8569

          k = 0.5000 0.8037-0.7583 ( 63030 PWs)   bands (ev):

   -22.0512 -22.0508 -22.0415 -22.0411 -20.1495 -20.1487 -20.1245 -20.1237
   -18.9750 -18.9745 -18.9614 -18.9609 -18.1845 -18.1842 -18.1776 -18.1773
   -17.4991 -17.4991 -17.4784 -17.4784 -13.0974 -13.0957 -13.0667 -13.0650
   -10.4158 -10.4157 -10.4057 -10.4057 -10.2785 -10.2777 -10.2664 -10.2656
    -7.7026  -7.7017  -7.6860  -7.6851  -7.2382  -7.2371  -7.2030  -7.2020
    -6.4044  -6.4035  -6.3989  -6.3980  -5.7659  -5.7659  -5.6554  -5.6552
    -5.3465  -5.3454  -5.3179  -5.3170  -4.8447  -4.8441  -4.7719  -4.7711
    -4.3766  -4.3763  -4.3464  -4.3461  -3.9348  -3.9342  -3.9085  -3.9078
    -3.7663  -3.7656  -3.5523  -3.5520  -2.7517  -2.7514  -2.7307  -2.7305
    -2.5246  -2.5244  -2.4215  -2.4214  -2.0828  -2.0827  -2.0634  -2.0633
    -1.3445  -1.3444  -1.2709  -1.2707  -0.8933  -0.8931  -0.8711  -0.8709
    -0.5034  -0.5030  -0.4747  -0.4744  -0.2115  -0.2106  -0.1864  -0.1854
     0.3981   0.3995   0.6407   0.6421   4.1926   4.1943   4.4067   4.4083
     5.5986   5.5994   5.6274   5.6282   7.6084   7.6089   7.9679   7.9691
     8.2000   8.2010   8.2965   8.2968   8.6548   8.6552   8.8596   8.8602

     highest occupied, lowest unoccupied level (ev):     0.7495    3.8981

!    total energy              =   -1098.62681618 Ry
     Harris-Foulkes estimate   =   -1098.62681618 Ry
     estimated scf accuracy    <          2.7E-09 Ry

     total all-electron energy =     -4089.597835 Ry

     The total energy is the sum of the following terms:

     one-electron contribution =    -572.79898910 Ry
     hartree contribution      =     366.98520008 Ry
     xc contribution           =    -220.91563318 Ry
     ewald contribution        =    -379.94022074 Ry
     Dispersion Correction     =      -0.23219039 Ry
     one-center paw contrib.   =    -291.72498284 Ry

     convergence has been achieved in  16 iterations

     Forces acting on atoms (cartesian axes, Ry/au):

     atom    1 type  2   force =    -0.00138069    0.00000006   -0.00158721
     atom    2 type  2   force =     0.00124246   -0.00000002   -0.00164937
     atom    3 type  2   force =     0.00138069   -0.00000006    0.00158721
     atom    4 type  2   force =    -0.00124246    0.00000002    0.00164937
     atom    5 type  3   force =     0.00191161    0.00000013    0.00182852
     atom    6 type  3   force =    -0.00186797   -0.00000013    0.00180824
     atom    7 type  3   force =    -0.00191161   -0.00000013   -0.00182852
     atom    8 type  3   force =     0.00186797    0.00000013   -0.00180824
     atom    9 type  1   force =     0.00055126    0.00000463   -0.00029839
     atom   10 type  1   force =    -0.00001884   -0.00000461   -0.00003373
     atom   11 type  1   force =    -0.00055126   -0.00000463    0.00029839
     atom   12 type  1   force =     0.00001884    0.00000461    0.00003373
     atom   13 type  4   force =    -0.00401507    0.00000178   -0.00399833
     atom   14 type  4   force =     0.00396828   -0.00000177   -0.00401731
     atom   15 type  4   force =     0.00401507   -0.00000178    0.00399833
     atom   16 type  4   force =    -0.00396828    0.00000177    0.00401731
     atom   17 type  1   force =     0.00744431    0.00000574   -0.00647009
     atom   18 type  1   force =    -0.00727213   -0.00000573   -0.00635703
     atom   19 type  1   force =    -0.00744431   -0.00000574    0.00647009
     atom   20 type  1   force =     0.00727213    0.00000573    0.00635703
     atom   21 type  1   force =    -0.00126977    0.00000081    0.00861711
     atom   22 type  1   force =     0.00118853   -0.00000083    0.00860313
     atom   23 type  1   force =     0.00126977   -0.00000081   -0.00861711
     atom   24 type  1   force =    -0.00118853    0.00000083   -0.00860313
     atom   25 type  3   force =     0.00066628    0.00000009    0.00106782
     atom   26 type  3   force =    -0.00067548   -0.00000009    0.00106956
     atom   27 type  3   force =    -0.00066628   -0.00000009   -0.00106782
     atom   28 type  3   force =     0.00067548    0.00000009   -0.00106956
     atom   29 type  1   force =     0.00243138    0.00000660   -0.01181247
     atom   30 type  1   force =    -0.00227541   -0.00000663   -0.01182737
     atom   31 type  1   force =    -0.00243138   -0.00000660    0.01181247
     atom   32 type  1   force =     0.00227541    0.00000663    0.01182737
     atom   33 type  3   force =    -0.00564482    0.00000010    0.01174498
     atom   34 type  3   force =     0.00562414   -0.00000010    0.01174406
     atom   35 type  3   force =     0.00564482   -0.00000010   -0.01174498
     atom   36 type  3   force =    -0.00562414    0.00000010   -0.01174406
     atom   37 type  4   force =    -0.00402932   -0.00000126    0.00110347
     atom   38 type  4   force =     0.00346189    0.00000126    0.00094168
     atom   39 type  4   force =     0.00402932    0.00000126   -0.00110347
     atom   40 type  4   force =    -0.00346189   -0.00000126   -0.00094168
     atom   41 type  4   force =     0.00588725    0.00000000    0.00053843
     atom   42 type  4   force =    -0.00585249    0.00000002    0.00044709
     atom   43 type  4   force =    -0.00588725   -0.00000000   -0.00053843
     atom   44 type  4   force =     0.00585249   -0.00000002   -0.00044709
     atom   45 type  4   force =    -0.00248368    0.00000002    0.00430089
     atom   46 type  4   force =     0.00247389    0.00000001    0.00434604
     atom   47 type  4   force =     0.00248368   -0.00000002   -0.00430089
     atom   48 type  4   force =    -0.00247389   -0.00000001   -0.00434604
     atom   49 type  3   force =     0.00058220    0.00000008   -0.00277791
     atom   50 type  3   force =    -0.00057782   -0.00000008   -0.00281515
     atom   51 type  3   force =    -0.00058220   -0.00000008    0.00277791
     atom   52 type  3   force =     0.00057782    0.00000008    0.00281515
     atom   53 type  3   force =    -0.00026013    0.00000007    0.00029570
     atom   54 type  3   force =     0.00026365   -0.00000007    0.00029801
     atom   55 type  3   force =     0.00026013   -0.00000007   -0.00029570
     atom   56 type  3   force =    -0.00026365    0.00000007   -0.00029801

     Total force =     0.049554     Total SCF correction =     0.000096


     Computing stress (Cartesian axis) and pressure

          total   stress  (Ry/bohr**3)                   (kbar)     P=   -4.93
   0.00000650  -0.00000000  -0.00000007          0.96     -0.00     -0.01
  -0.00000000  -0.00001984  -0.00000000         -0.00     -2.92     -0.00
  -0.00000007  -0.00000000  -0.00008720         -0.01     -0.00    -12.83


     Writing output data file scf.save
 
     init_run     :     16.46s CPU     17.07s WALL (       1 calls)
     electrons    :    561.32s CPU    582.56s WALL (       1 calls)
     forces       :      7.72s CPU      7.79s WALL (       1 calls)
     stress       :     26.83s CPU     26.96s WALL (       1 calls)

     Called by init_run:
     wfcinit      :     13.05s CPU     13.57s WALL (       1 calls)
     potinit      :      1.21s CPU      1.23s WALL (       1 calls)

     Called by electrons:
     c_bands      :    496.59s CPU    514.77s WALL (      16 calls)
     sum_band     :     57.82s CPU     60.26s WALL (      16 calls)
     v_of_rho     :      1.11s CPU      1.23s WALL (      17 calls)
     newd         :      1.91s CPU      2.31s WALL (      17 calls)
     PAW_pot      :      3.56s CPU      3.57s WALL (      17 calls)
     mix_rho      :      0.25s CPU      0.27s WALL (      16 calls)

     Called by c_bands:
     init_us_2    :      3.78s CPU      3.80s WALL (     350 calls)
     cegterg      :    482.69s CPU    500.83s WALL (     160 calls)

     Called by sum_band:
     sum_band:bec :      0.05s CPU      0.05s WALL (     160 calls)
     addusdens    :      1.98s CPU      2.36s WALL (      16 calls)

     Called by *egterg:
     h_psi        :    288.00s CPU    300.48s WALL (     679 calls)
     s_psi        :     49.40s CPU     49.41s WALL (     679 calls)
     g_psi        :      1.66s CPU      1.66s WALL (     509 calls)
     cdiaghg      :     27.42s CPU     27.43s WALL (     669 calls)

     Called by h_psi:
     h_psi:pot    :    286.05s CPU    298.48s WALL (     679 calls)
     h_psi:calbec :     49.55s CPU     49.69s WALL (     679 calls)
     vloc_psi     :    186.80s CPU    199.07s WALL (     679 calls)
     add_vuspsi   :     49.70s CPU     49.71s WALL (     679 calls)

     General routines
     calbec       :     72.38s CPU     72.59s WALL (     889 calls)
     fft          :      0.65s CPU      0.86s WALL (     245 calls)
     fftw         :    202.32s CPU    216.04s WALL (  125170 calls)
 
     Parallel routines
     fft_scatter  :     46.12s CPU     54.16s WALL (  125415 calls)
 
     PWSCF        : 10m18.21s CPU    10m41.85s WALL

 
   This run was terminated on:  23: 3:15   4Nov2017            

=------------------------------------------------------------------------------=
   JOB DONE.
=------------------------------------------------------------------------------=
