
     Program PWSCF v.6.1 (svn rev. 13369) starts on  4Nov2017 at  2:24:44 

     This program is part of the open-source Quantum ESPRESSO suite
     for quantum simulation of materials; please cite
         "P. Giannozzi et al., J. Phys.:Condens. Matter 21 395502 (2009);
          URL http://www.quantum-espresso.org", 
     in publications or presentations arising from this work. More details at
     http://www.quantum-espresso.org/quote

     Parallel version (MPI), running on     8 processors
     R & G space division:  proc/nbgrp/npool/nimage =       8
     Waiting for input...
     Reading input from standard input

     Current dimensions of program PWSCF are:
     Max number of different atomic species (ntypx) = 10
     Max number of k-points (npk) =  40000
     Max angular momentum in pseudopotentials (lmaxx) =  3
               file C.pbe-n-kjpaw_psl.0.1.UPF: wavefunction(s)  2P renormalized
               file N.pbe-n-kjpaw_psl.0.1.UPF: wavefunction(s)  2P renormalized
               file H.pbe-kjpaw_psl.0.1.UPF: wavefunction(s)  1S renormalized
               file O.pbe-n-kjpaw_psl.0.1.UPF: wavefunction(s)  2P renormalized

     -------------------------------------
     Parameters for Dispersion Correction:
     -------------------------------------
       atom      VdW radius       C_6     

        C          2.744         60.710
        N          2.640         42.670
        H          1.892          4.857
        O          2.536         24.284

     Subspace diagonalization in iterative solution of the eigenvalue problem:
     a serial algorithm will be used

 
     Parallelization info
     --------------------
     sticks:   dense  smooth     PW     G-vecs:    dense   smooth      PW
     Min         867     867    228                68323    68323    9284
     Max         868     868    229                68326    68326    9286
     Sum        6941    6941   1827               546599   546599   74279
 


     bravais-lattice index     =            0
     lattice parameter (alat)  =      13.2186  a.u.
     unit-cell volume          =    4045.8465 (a.u.)^3
     number of atoms/cell      =           60
     number of atomic types    =            4
     number of electrons       =       216.00
     number of Kohn-Sham states=          129
     kinetic-energy cutoff     =     100.0000  Ry
     charge density cutoff     =     400.0000  Ry
     convergence threshold     =      1.0E-08
     mixing beta               =       0.5000
     number of iterations used =            8  plain     mixing
     Exchange-correlation      =  SLA  PW   PBX  PBC ( 1  4  3  4 0 0)

     celldm(1)=  13.218634  celldm(2)=   0.000000  celldm(3)=   0.000000
     celldm(4)=   0.000000  celldm(5)=   0.000000  celldm(6)=   0.000000

     crystal axes: (cart. coord. in units of alat)
               a(1) = (   1.000000   0.000000   0.000000 )  
               a(2) = (   0.000000   1.246891   0.000000 )  
               a(3) = (  -0.381155   0.000000   1.404822 )  

     reciprocal axes: (cart. coord. in units 2 pi/alat)
               b(1) = (  1.000000  0.000000  0.271319 )  
               b(2) = (  0.000000  0.801995  0.000000 )  
               b(3) = (  0.000000  0.000000  0.711834 )  


     PseudoPot. # 1 for  C read from file:
     /scratch/ahofstet/pseudo/C.pbe-n-kjpaw_psl.0.1.UPF
     MD5 check sum: 430fe95172b1e11ef3f8ed03bac87931
     Pseudo is Projector augmented-wave + core cor, Zval =  4.0
     Generated using "atomic" code by A. Dal Corso  v.5.0.99 svn rev. 10869
     Shape of augmentation charge: BESSEL
     Using radial grid of 1073 points,  4 beta functions with: 
                l(1) =   0
                l(2) =   0
                l(3) =   1
                l(4) =   1
     Q(r) pseudized with 0 coefficients 


     PseudoPot. # 2 for  N read from file:
     /scratch/ahofstet/pseudo/N.pbe-n-kjpaw_psl.0.1.UPF
     MD5 check sum: f73187c8b701007e77325f868c9291d7
     Pseudo is Projector augmented-wave + core cor, Zval =  5.0
     Generated using "atomic" code by A. Dal Corso  v.5.0.99 svn rev. 10869
     Shape of augmentation charge: PSQ
     Using radial grid of 1085 points,  4 beta functions with: 
                l(1) =   0
                l(2) =   0
                l(3) =   1
                l(4) =   1
     Q(r) pseudized with 0 coefficients 


     PseudoPot. # 3 for  H read from file:
     /scratch/ahofstet/pseudo/H.pbe-kjpaw_psl.0.1.UPF
     MD5 check sum: 94e484f906d9e9773b2f6e52662335b2
     Pseudo is Projector augmented-wave, Zval =  1.0
     Generated using "atomic" code by A. Dal Corso  v.5.0.99 svn rev. 10869
     Shape of augmentation charge: PSQ
     Using radial grid of  929 points,  2 beta functions with: 
                l(1) =   0
                l(2) =   0
     Q(r) pseudized with 0 coefficients 


     PseudoPot. # 4 for  O read from file:
     /scratch/ahofstet/pseudo/O.pbe-n-kjpaw_psl.0.1.UPF
     MD5 check sum: 3f94a2996a3169367d6eb21d9b593f20
     Pseudo is Projector augmented-wave + core cor, Zval =  6.0
     Generated using "atomic" code by A. Dal Corso  v.5.0.99 svn rev. 10869
     Shape of augmentation charge: BESSEL
     Using radial grid of 1095 points,  4 beta functions with: 
                l(1) =   0
                l(2) =   0
                l(3) =   1
                l(4) =   1
     Q(r) pseudized with 0 coefficients 


     atomic species   valence    mass     pseudopotential
        C              4.00    12.01070      C( 1.00)
        N              5.00    14.00670      N( 1.00)
        H              1.00     1.00794      H( 1.00)
        O              6.00    15.99940      O( 1.00)

      2 Sym. Ops., with inversion, found



   Cartesian axes

     site n.     atom                  positions (alat units)
         1           N   tau(   1) = (  -0.1537593   0.1328767   1.3927937  )
         2           N   tau(   2) = (   0.5820348   0.7564557   0.7144550  )
         3           N   tau(   3) = (   0.7726042   1.1140139   0.0120282  )
         4           N   tau(   4) = (   0.0368101   0.4904350   0.6903669  )
         5           H   tau(   5) = (  -0.1758167   0.0229091   1.2888211  )
         6           H   tau(   6) = (   0.6040827   0.6464848   0.8183835  )
         7           H   tau(   7) = (   0.7946616   1.2239816   0.1160008  )
         8           H   tau(   8) = (   0.0147622   0.6004058   0.5864384  )
         9           C   tau(   9) = (  -0.1970117   0.3168733   1.3563990  )
        10           C   tau(  10) = (   0.6252826   0.9404683   0.7508493  )
        11           C   tau(  11) = (   0.8158565   0.9300173   0.0484229  )
        12           C   tau(  12) = (  -0.0064377   0.3064223   0.6539726  )
        13           C   tau(  13) = (   0.2116270   0.4495600   0.0974013  )
        14           C   tau(  14) = (   0.5978281   1.0731482   0.6050727  )
        15           C   tau(  15) = (   0.4072178   0.7973306   1.3074206  )
        16           C   tau(  16) = (   0.0210168   0.1737425   0.7997492  )
        17           H   tau(  17) = (   0.1822040   0.6003205   0.0711010  )
        18           H   tau(  18) = (   0.6272732   1.2239109   0.6313766  )
        19           H   tau(  19) = (   0.4366408   0.6465702   1.3337209  )
        20           H   tau(  20) = (  -0.0084284   0.0229798   0.7734453  )
        21           N   tau(  21) = (   0.2766750   0.4000822   0.2707678  )
        22           N   tau(  22) = (   0.5327620   1.0237129   0.4316837  )
        23           N   tau(  23) = (   0.3421699   0.8468085   1.1340541  )
        24           N   tau(  24) = (   0.0860829   0.2231777   0.9731382  )
        25           C   tau(  25) = (   0.3204741   0.2160800   0.2992787  )
        26           C   tau(  26) = (   0.4889408   0.8397198   0.4031718  )
        27           C   tau(  27) = (   0.2983708   1.0308107   1.1055432  )
        28           C   tau(  28) = (   0.1299041   0.4071708   1.0016501  )
        29           C   tau(  29) = (   0.2972836   0.0782621   0.1576553  )
        30           C   tau(  30) = (   0.5121263   0.7018749   0.5447280  )
        31           C   tau(  31) = (   0.3215612   1.1686285   1.2471666  )
        32           C   tau(  32) = (   0.1067186   0.5450157   0.8600939  )
        33           N   tau(  33) = (  -0.1390101   0.9191489   1.2242999  )
        34           N   tau(  34) = (   0.5672809   0.2957582   0.8829033  )
        35           N   tau(  35) = (   0.7578549   0.3277417   0.1805220  )
        36           N   tau(  36) = (   0.0515639   0.9511324   0.5219186  )
        37           O   tau(  37) = (  -0.2188081   1.0734675   1.1632956  )
        38           O   tau(  38) = (   0.6470577   0.4500851   0.9439169  )
        39           O   tau(  39) = (   0.8376530   0.1734232   0.2415263  )
        40           O   tau(  40) = (  -0.0282128   0.7968056   0.4609050  )
        41           O   tau(  41) = (  -0.0448336   0.9233236   1.3775688  )
        42           O   tau(  42) = (   0.4731119   0.2999286   0.7296274  )
        43           O   tau(  43) = (   0.6636785   0.3235670   0.0272532  )
        44           O   tau(  44) = (   0.1457330   0.9469621   0.6751945  )
        45           O   tau(  45) = (  -0.1581114   0.7686405   1.1298882  )
        46           O   tau(  46) = (   0.5863901   0.1452497   0.9773103  )
        47           O   tau(  47) = (   0.7769562   0.4782502   0.2749337  )
        48           O   tau(  48) = (   0.0324548   1.1016410   0.4275116  )
        49           H   tau(  49) = (   0.3746071   0.1751879   0.4395250  )
        50           H   tau(  50) = (   0.4347771   0.7988658   0.2629079  )
        51           H   tau(  51) = (   0.2442377   1.0717028   0.9652969  )
        52           H   tau(  52) = (   0.1840677   0.4480248   1.1419140  )
        53           H   tau(  53) = (  -0.2502835   0.3527478   1.2141455  )
        54           H   tau(  54) = (   0.6785653   0.9762984   0.8931289  )
        55           H   tau(  55) = (   0.8691284   0.8941429   0.1906764  )
        56           H   tau(  56) = (  -0.0597204   0.2705922   0.5116930  )
        57           H   tau(  57) = (   0.3317174   1.1747994   0.1753674  )
        58           H   tau(  58) = (   0.4776870   0.5515156   0.5270045  )
        59           H   tau(  59) = (   0.2871275   0.0720912   1.2294545  )
        60           H   tau(  60) = (   0.1411579   0.6953750   0.8778174  )

     number of k points=     8
                       cart. coord. in units 2pi/alat
        k(    1) = (   0.0000000   0.0000000   0.0000000), wk =   0.1666667
        k(    2) = (   0.0000000   0.0000000  -0.3559170), wk =   0.1666667
        k(    3) = (   0.0000000  -0.4009975   0.0000000), wk =   0.1666667
        k(    4) = (   0.0000000  -0.4009975  -0.3559170), wk =   0.1666667
        k(    5) = (   0.3333333   0.0000000   0.0904397), wk =   0.3333333
        k(    6) = (   0.3333333   0.0000000  -0.2654773), wk =   0.3333333
        k(    7) = (   0.3333333  -0.4009975   0.0904397), wk =   0.3333333
        k(    8) = (   0.3333333  -0.4009975  -0.2654773), wk =   0.3333333

     Dense  grid:   546599 G-vectors     FFT dimensions: (  90, 108, 125)

     Estimated max dynamical RAM per process >     382.69MB

     Estimated total allocated dynamical RAM >    3061.52MB

     Check: negative/imaginary core charge=   -0.000002    0.000000

     Initial potential from superposition of free atoms

     starting charge  215.99904, renormalised to  216.00000
     Starting wfc are  180 randomized atomic wfcs
     Checking if some PAW data can be deallocated... 

     total cpu time spent up to now is       21.3 secs

     per-process dynamical memory:   297.5 Mb

     Self-consistent Calculation

     iteration #  1     ecut=   100.00 Ry     beta=0.50
     Davidson diagonalization with overlap
     ethr =  1.00E-02,  avg # of iterations =  3.4

     total cpu time spent up to now is       62.8 secs

     total energy              =   -1155.05844124 Ry
     Harris-Foulkes estimate   =   -1158.21933337 Ry
     estimated scf accuracy    <       5.92717297 Ry

     iteration #  2     ecut=   100.00 Ry     beta=0.50
     Davidson diagonalization with overlap
     ethr =  2.74E-03,  avg # of iterations =  3.0

     total cpu time spent up to now is       93.2 secs

     total energy              =   -1155.90021156 Ry
     Harris-Foulkes estimate   =   -1156.62386659 Ry
     estimated scf accuracy    <       1.56135628 Ry

     iteration #  3     ecut=   100.00 Ry     beta=0.50
     Davidson diagonalization with overlap
     ethr =  7.23E-04,  avg # of iterations =  3.4

     total cpu time spent up to now is      126.0 secs

     total energy              =   -1156.28689240 Ry
     Harris-Foulkes estimate   =   -1156.36209179 Ry
     estimated scf accuracy    <       0.20509899 Ry

     iteration #  4     ecut=   100.00 Ry     beta=0.50
     Davidson diagonalization with overlap
     ethr =  9.50E-05,  avg # of iterations =  7.8

     total cpu time spent up to now is      160.4 secs

     total energy              =   -1156.30800925 Ry
     Harris-Foulkes estimate   =   -1156.32018431 Ry
     estimated scf accuracy    <       0.03024169 Ry

     iteration #  5     ecut=   100.00 Ry     beta=0.50
     Davidson diagonalization with overlap
     ethr =  1.40E-05,  avg # of iterations =  7.2

     total cpu time spent up to now is      203.1 secs

     total energy              =   -1156.31640178 Ry
     Harris-Foulkes estimate   =   -1156.32326487 Ry
     estimated scf accuracy    <       0.01962726 Ry

     iteration #  6     ecut=   100.00 Ry     beta=0.50
     Davidson diagonalization with overlap
     ethr =  9.09E-06,  avg # of iterations =  2.0

     total cpu time spent up to now is      229.2 secs

     total energy              =   -1156.31894319 Ry
     Harris-Foulkes estimate   =   -1156.31950615 Ry
     estimated scf accuracy    <       0.00119991 Ry

     iteration #  7     ecut=   100.00 Ry     beta=0.50
     Davidson diagonalization with overlap
     ethr =  5.56E-07,  avg # of iterations =  5.5

     total cpu time spent up to now is      271.9 secs

     total energy              =   -1156.31950717 Ry
     Harris-Foulkes estimate   =   -1156.31960941 Ry
     estimated scf accuracy    <       0.00037539 Ry

     iteration #  8     ecut=   100.00 Ry     beta=0.50
     Davidson diagonalization with overlap
     ethr =  1.74E-07,  avg # of iterations =  2.0

     total cpu time spent up to now is      298.2 secs

     total energy              =   -1156.31952944 Ry
     Harris-Foulkes estimate   =   -1156.31957210 Ry
     estimated scf accuracy    <       0.00011004 Ry

     iteration #  9     ecut=   100.00 Ry     beta=0.50
     Davidson diagonalization with overlap
     ethr =  5.09E-08,  avg # of iterations =  3.0

     total cpu time spent up to now is      327.0 secs

     total energy              =   -1156.31954743 Ry
     Harris-Foulkes estimate   =   -1156.31955035 Ry
     estimated scf accuracy    <       0.00000980 Ry

     iteration # 10     ecut=   100.00 Ry     beta=0.50
     Davidson diagonalization with overlap
     ethr =  4.54E-09,  avg # of iterations =  4.0

     total cpu time spent up to now is      369.9 secs

     total energy              =   -1156.31955243 Ry
     Harris-Foulkes estimate   =   -1156.31955446 Ry
     estimated scf accuracy    <       0.00000646 Ry

     iteration # 11     ecut=   100.00 Ry     beta=0.50
     Davidson diagonalization with overlap
     ethr =  2.99E-09,  avg # of iterations =  1.0

     total cpu time spent up to now is      393.3 secs

     total energy              =   -1156.31955202 Ry
     Harris-Foulkes estimate   =   -1156.31955287 Ry
     estimated scf accuracy    <       0.00000182 Ry

     iteration # 12     ecut=   100.00 Ry     beta=0.50
     Davidson diagonalization with overlap
     ethr =  8.42E-10,  avg # of iterations =  3.0

     total cpu time spent up to now is      429.5 secs

     total energy              =   -1156.31955277 Ry
     Harris-Foulkes estimate   =   -1156.31955286 Ry
     estimated scf accuracy    <       0.00000030 Ry

     iteration # 13     ecut=   100.00 Ry     beta=0.50
     Davidson diagonalization with overlap
     ethr =  1.38E-10,  avg # of iterations =  2.0

     total cpu time spent up to now is      453.9 secs

     total energy              =   -1156.31955277 Ry
     Harris-Foulkes estimate   =   -1156.31955280 Ry
     estimated scf accuracy    <       0.00000010 Ry

     iteration # 14     ecut=   100.00 Ry     beta=0.50
     Davidson diagonalization with overlap
     ethr =  4.53E-11,  avg # of iterations =  3.0

     total cpu time spent up to now is      485.4 secs

     End of self-consistent calculation

          k = 0.0000 0.0000 0.0000 ( 68323 PWs)   bands (ev):

   -24.0759 -24.0732 -24.0691 -24.0681 -19.0157 -19.0022 -18.9724 -18.9588
   -18.7038 -18.7029 -18.6942 -18.6857 -18.4201 -18.4158 -18.3974 -18.3944
   -16.8348 -16.8298 -16.8036 -16.7898 -13.2626 -13.2391 -13.2124 -13.1923
   -10.6252 -10.5874 -10.5391 -10.5095 -10.3400 -10.3141 -10.2695 -10.2084
    -8.7024  -8.5260  -8.1835  -8.1202  -7.6471  -7.5458  -7.3964  -7.3922
    -6.7329  -6.7216  -6.7180  -6.7101  -6.3715  -6.3067  -6.3043  -6.3031
    -6.0976  -6.0954  -6.0851  -6.0556  -5.6737  -5.5802  -5.5215  -5.4854
    -5.3010  -5.2703  -5.2475  -5.1838  -4.6805  -4.6187  -4.6058  -4.5548
    -4.4864  -4.4532  -4.4172  -4.3789  -4.3159  -4.2912  -4.2500  -4.2079
    -3.0949  -3.0733  -3.0544  -2.9957  -2.5127  -2.3955  -2.3259  -2.1965
    -1.0220  -0.7781  -0.7563  -0.7320  -0.7015  -0.6440  -0.6118  -0.5632
    -0.4431  -0.3946  -0.3925  -0.3336  -0.3225  -0.3092  -0.2825  -0.2360
    -0.2077  -0.1547  -0.1250  -0.0722   0.0377   0.0585   0.2471   0.2847
     1.1997   1.2358   1.2850   1.3043   3.4103   3.4469   3.5693   3.5798
     4.4334   4.4451   4.6808   4.7090   4.8919   5.0221   5.1501   5.2306
     6.9201   7.9520   7.9955   8.0120   8.0638   8.3419   8.3680   8.4621
     8.8140

          k = 0.0000 0.0000-0.3559 ( 68278 PWs)   bands (ev):

   -24.0746 -24.0746 -24.0686 -24.0686 -19.0107 -19.0097 -18.9657 -18.9648
   -18.7024 -18.7021 -18.6901 -18.6898 -18.4207 -18.4205 -18.3932 -18.3931
   -16.8202 -16.8201 -16.8092 -16.8091 -13.2388 -13.2382 -13.2174 -13.2168
   -10.6104 -10.6102 -10.5239 -10.5236 -10.3164 -10.3160 -10.2366 -10.2363
    -8.5103  -8.5101  -8.3048  -8.3045  -7.5278  -7.5277  -7.4517  -7.4516
    -6.7366  -6.7364  -6.7151  -6.7150  -6.3408  -6.3406  -6.3116  -6.3114
    -6.1477  -6.1476  -5.9832  -5.9829  -5.7102  -5.7101  -5.3954  -5.3952
    -5.3205  -5.3202  -5.1635  -5.1631  -4.7192  -4.7192  -4.6004  -4.6001
    -4.4474  -4.4473  -4.3354  -4.3351  -4.2905  -4.2903  -4.1894  -4.1892
    -3.1571  -3.1570  -3.0318  -3.0315  -2.4368  -2.4366  -2.2765  -2.2763
    -0.9057  -0.9054  -0.7792  -0.7786  -0.6764  -0.6762  -0.5929  -0.5921
    -0.4331  -0.4330  -0.3292  -0.3292  -0.3020  -0.3018  -0.2813  -0.2810
    -0.1822  -0.1821  -0.0994  -0.0992   0.0665   0.0667   0.2590   0.2592
     1.2401   1.2402   1.2883   1.2884   3.4696   3.4705   3.5106   3.5117
     4.5538   4.5545   4.6629   4.6638   5.0190   5.0196   5.0614   5.0618
     7.4745   7.4746   8.0138   8.0140   8.1221   8.1221   8.3594   8.3595
     9.0205

          k = 0.0000-0.4010 0.0000 ( 68276 PWs)   bands (ev):

   -24.0726 -24.0725 -24.0706 -24.0705 -19.0149 -19.0140 -18.9650 -18.9642
   -18.7016 -18.7012 -18.6910 -18.6906 -18.4078 -18.4070 -18.4014 -18.4006
   -16.8336 -16.8336 -16.7973 -16.7972 -13.2535 -13.2534 -13.2008 -13.2008
   -10.6081 -10.6075 -10.5435 -10.5429 -10.3051 -10.3047 -10.2596 -10.2593
    -8.3762  -8.3760  -8.3035  -8.3034  -7.6097  -7.6095  -7.5091  -7.5091
    -6.7221  -6.7221  -6.7183  -6.7182  -6.3669  -6.3667  -6.2909  -6.2908
    -6.0981  -6.0975  -6.0642  -6.0634  -5.5199  -5.5199  -5.4696  -5.4694
    -5.3296  -5.3295  -5.2659  -5.2656  -4.6711  -4.6710  -4.5977  -4.5972
    -4.5581  -4.5578  -4.3386  -4.3384  -4.2084  -4.2084  -4.1641  -4.1639
    -3.1075  -3.1061  -3.0494  -3.0480  -2.4661  -2.4660  -2.2503  -2.2502
    -0.9144  -0.9144  -0.8002  -0.7997  -0.6940  -0.6936  -0.5844  -0.5840
    -0.4166  -0.4166  -0.3441  -0.3438  -0.2996  -0.2996  -0.2626  -0.2619
    -0.1836  -0.1831  -0.0731  -0.0729   0.1250   0.1259   0.1622   0.1629
     1.2635   1.2636   1.2695   1.2695   3.4053   3.4059   3.5904   3.5910
     4.4922   4.4923   4.6776   4.6777   4.9455   4.9458   5.1808   5.1811
     7.5501   7.5503   7.9549   7.9550   8.0935   8.0936   8.4202   8.4206
     8.7920

          k = 0.0000-0.4010-0.3559 ( 68292 PWs)   bands (ev):

   -24.0721 -24.0717 -24.0715 -24.0711 -19.0123 -19.0113 -18.9693 -18.9684
   -18.7022 -18.7018 -18.6887 -18.6882 -18.4072 -18.4063 -18.4021 -18.4012
   -16.8195 -16.8194 -16.8118 -16.8117 -13.2333 -13.2327 -13.2240 -13.2234
   -10.5906 -10.5886 -10.5646 -10.5627 -10.2801 -10.2790 -10.2732 -10.2722
    -8.3258  -8.3250  -8.2881  -8.2873  -7.6398  -7.6396  -7.6186  -7.6185
    -6.7256  -6.7252  -6.7210  -6.7206  -6.3550  -6.3547  -6.3016  -6.3013
    -6.0673  -6.0667  -6.0609  -6.0601  -5.5617  -5.5613  -5.5479  -5.5475
    -5.2096  -5.2088  -5.1905  -5.1898  -4.6067  -4.6060  -4.6035  -4.6028
    -4.4156  -4.4145  -4.3842  -4.3836  -4.2652  -4.2648  -4.2508  -4.2502
    -3.1457  -3.1442  -3.0947  -3.0933  -2.3931  -2.3928  -2.3132  -2.3130
    -0.8539  -0.8538  -0.8169  -0.8165  -0.6505  -0.6504  -0.6488  -0.6483
    -0.4032  -0.4030  -0.3674  -0.3670  -0.2977  -0.2970  -0.2748  -0.2745
    -0.1871  -0.1867  -0.1082  -0.1078   0.1503   0.1514   0.1757   0.1767
     1.2669   1.2674   1.2719   1.2723   3.4490   3.4508   3.5287   3.5305
     4.5996   4.6005   4.6617   4.6629   4.9900   4.9905   5.0589   5.0596
     7.8516   7.8519   7.8827   7.8830   8.0507   8.0509   8.1770   8.1777
     8.9148

          k = 0.3333 0.0000 0.0904 ( 68338 PWs)   bands (ev):

   -24.0755 -24.0734 -24.0693 -24.0678 -19.0123 -18.9970 -18.9910 -18.9637
   -18.7037 -18.7009 -18.6907 -18.6867 -18.4284 -18.4093 -18.4000 -18.3800
   -16.8382 -16.8270 -16.8008 -16.7928 -13.2576 -13.2433 -13.2080 -13.1971
   -10.6406 -10.5787 -10.5241 -10.5209 -10.3351 -10.3059 -10.2669 -10.2080
    -8.6234  -8.4736  -8.3092  -8.2256  -7.5870  -7.5132  -7.4508  -7.4301
    -6.7334  -6.7241  -6.7237  -6.7087  -6.3025  -6.2705  -6.2512  -6.2382
    -6.1268  -6.1180  -6.0016  -5.9994  -5.7102  -5.7065  -5.4419  -5.3942
    -5.3365  -5.2611  -5.1965  -5.1650  -4.7150  -4.6949  -4.6904  -4.5779
    -4.5566  -4.4995  -4.4287  -4.3837  -4.3307  -4.2605  -4.2232  -4.1802
    -3.1640  -3.1268  -3.0234  -3.0207  -2.5071  -2.4382  -2.3219  -2.2359
    -0.9811  -0.7754  -0.7480  -0.7183  -0.6880  -0.6749  -0.5912  -0.5616
    -0.4290  -0.4194  -0.3737  -0.3443  -0.2756  -0.2648  -0.2585  -0.2251
    -0.1841  -0.1491  -0.1235  -0.1004   0.0205   0.0836   0.2527   0.2729
     1.2181   1.2653   1.2810   1.3033   3.3361   3.4832   3.4960   3.6161
     4.3752   4.5343   4.6545   4.8146   4.8179   5.0179   5.0387   5.1481
     7.3827   7.9636   8.0422   8.0567   8.1535   8.2541   8.4078   8.6725
     8.8617

          k = 0.3333 0.0000-0.2655 ( 68308 PWs)   bands (ev):

   -24.0746 -24.0742 -24.0687 -24.0684 -19.0043 -19.0032 -18.9820 -18.9735
   -18.7041 -18.7033 -18.6918 -18.6842 -18.4252 -18.4167 -18.3929 -18.3832
   -16.8207 -16.8169 -16.8119 -16.8083 -13.2336 -13.2310 -13.2210 -13.2192
   -10.6194 -10.6057 -10.5312 -10.5159 -10.3249 -10.3215 -10.2358 -10.2335
    -8.6267  -8.5960  -8.2045  -8.1653  -7.5986  -7.5639  -7.4301  -7.3858
    -6.7340  -6.7252  -6.7176  -6.7075  -6.2851  -6.2688  -6.2623  -6.2508
    -6.1066  -6.0996  -6.0336  -6.0207  -5.6809  -5.6419  -5.4856  -5.4300
    -5.3076  -5.2858  -5.2260  -5.2040  -4.6806  -4.6769  -4.6659  -4.6408
    -4.5141  -4.4729  -4.4315  -4.4019  -4.3485  -4.3341  -4.2540  -4.1979
    -3.1046  -3.0966  -3.0398  -3.0025  -2.4232  -2.4115  -2.3396  -2.3236
    -0.8804  -0.8368  -0.7189  -0.7115  -0.6702  -0.6466  -0.6180  -0.5821
    -0.4694  -0.4148  -0.3663  -0.3135  -0.2729  -0.2554  -0.2545  -0.2358
    -0.2046  -0.1779  -0.1196  -0.0920   0.0262   0.0644   0.2547   0.2621
     1.2299   1.2382   1.2941   1.2950   3.3848   3.3931   3.5381   3.5625
     4.4588   4.5093   4.7565   4.7618   4.8930   4.8939   5.0734   5.1100
     7.5680   7.9129   8.0040   8.0124   8.0692   8.0965   8.1854   8.7417
     8.9261

          k = 0.3333-0.4010 0.0904 ( 68336 PWs)   bands (ev):

   -24.0724 -24.0724 -24.0706 -24.0705 -19.0147 -19.0141 -18.9722 -18.9717
   -18.7034 -18.7031 -18.6867 -18.6863 -18.4156 -18.4147 -18.3891 -18.3882
   -16.8338 -16.8337 -16.7975 -16.7974 -13.2561 -13.2558 -13.1981 -13.1978
   -10.6059 -10.6053 -10.5470 -10.5464 -10.3039 -10.3034 -10.2535 -10.2531
    -8.3540  -8.3538  -8.2898  -8.2897  -7.6701  -7.6700  -7.5601  -7.5600
    -6.7216  -6.7215  -6.7210  -6.7208  -6.3025  -6.3024  -6.2384  -6.2383
    -6.0594  -6.0589  -6.0488  -6.0481  -5.5595  -5.5593  -5.5445  -5.5442
    -5.2642  -5.2640  -5.1758  -5.1755  -4.6995  -4.6994  -4.5942  -4.5938
    -4.5398  -4.5392  -4.3978  -4.3973  -4.2742  -4.2736  -4.1842  -4.1838
    -3.1373  -3.1359  -3.0897  -3.0883  -2.4743  -2.4742  -2.2795  -2.2793
    -0.8934  -0.8933  -0.7855  -0.7851  -0.6774  -0.6770  -0.5502  -0.5501
    -0.4128  -0.4127  -0.3490  -0.3488  -0.2729  -0.2725  -0.2330  -0.2323
    -0.1885  -0.1882  -0.1141  -0.1140   0.1376   0.1385   0.1826   0.1833
     1.2673   1.2674   1.2792   1.2793   3.3765   3.3775   3.5777   3.5789
     4.4844   4.4852   4.7342   4.7345   4.9267   4.9271   5.0686   5.0690
     7.8781   7.8784   8.0372   8.0374   8.1126   8.1128   8.5442   8.5449
     8.7860

          k = 0.3333-0.4010-0.2655 ( 68346 PWs)   bands (ev):

   -24.0719 -24.0717 -24.0713 -24.0711 -19.0066 -19.0057 -18.9808 -18.9799
   -18.7028 -18.7024 -18.6876 -18.6872 -18.4154 -18.4145 -18.3892 -18.3883
   -16.8190 -16.8189 -16.8119 -16.8118 -13.2405 -13.2398 -13.2134 -13.2128
   -10.5908 -10.5889 -10.5672 -10.5652 -10.2960 -10.2950 -10.2629 -10.2619
    -8.3518  -8.3510  -8.3281  -8.3273  -7.6232  -7.6229  -7.5362  -7.5360
    -6.7214  -6.7211  -6.7183  -6.7180  -6.2877  -6.2874  -6.2582  -6.2578
    -6.0648  -6.0643  -6.0506  -6.0499  -5.5527  -5.5526  -5.4926  -5.4924
    -5.2766  -5.2763  -5.2603  -5.2599  -4.6780  -4.6780  -4.6577  -4.6575
    -4.5198  -4.5194  -4.4550  -4.4545  -4.2378  -4.2372  -4.1720  -4.1715
    -3.1157  -3.1142  -3.0700  -3.0684  -2.4114  -2.4110  -2.3337  -2.3333
    -0.8182  -0.8178  -0.8005  -0.8000  -0.6563  -0.6557  -0.6216  -0.6208
    -0.4109  -0.4107  -0.3369  -0.3368  -0.2639  -0.2631  -0.2344  -0.2337
    -0.1848  -0.1845  -0.1354  -0.1351   0.1349   0.1353   0.1643   0.1648
     1.2694   1.2698   1.2769   1.2773   3.3994   3.4010   3.5351   3.5370
     4.5160   4.5172   4.7444   4.7453   4.9490   4.9495   5.0322   5.0326
     7.9309   7.9311   8.0591   8.0592   8.1963   8.1967   8.3360   8.3367
     8.6202

     highest occupied, lowest unoccupied level (ev):     1.3043    3.3361

!    total energy              =   -1156.31955278 Ry
     Harris-Foulkes estimate   =   -1156.31955279 Ry
     estimated scf accuracy    <          9.0E-09 Ry

     total all-electron energy =     -4362.293411 Ry

     The total energy is the sum of the following terms:

     one-electron contribution =    -565.48725096 Ry
     hartree contribution      =     369.54103600 Ry
     xc contribution           =    -233.46130809 Ry
     ewald contribution        =    -406.54363682 Ry
     Dispersion Correction     =      -0.27337338 Ry
     one-center paw contrib.   =    -320.09501953 Ry

     convergence has been achieved in  14 iterations

     Forces acting on atoms (cartesian axes, Ry/au):

     atom    1 type  2   force =     0.00045714    0.00113421   -0.00139591
     atom    2 type  2   force =    -0.00064374    0.00131291    0.00080613
     atom    3 type  2   force =    -0.00045714   -0.00113421    0.00139591
     atom    4 type  2   force =     0.00064374   -0.00131291   -0.00080613
     atom    5 type  3   force =     0.00033658   -0.00067557   -0.00033144
     atom    6 type  3   force =    -0.00030507   -0.00076620    0.00046646
     atom    7 type  3   force =    -0.00033658    0.00067557    0.00033144
     atom    8 type  3   force =     0.00030507    0.00076620   -0.00046646
     atom    9 type  1   force =     0.00124903   -0.00089964   -0.00059138
     atom   10 type  1   force =    -0.00111369   -0.00139275    0.00110895
     atom   11 type  1   force =    -0.00124903    0.00089964    0.00059138
     atom   12 type  1   force =     0.00111369    0.00139275   -0.00110895
     atom   13 type  1   force =     0.00000620   -0.00053665   -0.00170913
     atom   14 type  1   force =    -0.00010310   -0.00017091    0.00124563
     atom   15 type  1   force =    -0.00000620    0.00053665    0.00170913
     atom   16 type  1   force =     0.00010310    0.00017091   -0.00124563
     atom   17 type  3   force =    -0.00007467    0.00012914   -0.00016245
     atom   18 type  3   force =     0.00006272    0.00005666    0.00016975
     atom   19 type  3   force =     0.00007467   -0.00012914    0.00016245
     atom   20 type  3   force =    -0.00006272   -0.00005666   -0.00016975
     atom   21 type  2   force =     0.00186964   -0.00018294    0.00123262
     atom   22 type  2   force =    -0.00179750   -0.00016755   -0.00101915
     atom   23 type  2   force =    -0.00186964    0.00018294   -0.00123262
     atom   24 type  2   force =     0.00179750    0.00016755    0.00101915
     atom   25 type  1   force =    -0.00210314    0.00022983    0.00107818
     atom   26 type  1   force =     0.00197418    0.00032317   -0.00155941
     atom   27 type  1   force =     0.00210314   -0.00022983   -0.00107818
     atom   28 type  1   force =    -0.00197418   -0.00032317    0.00155941
     atom   29 type  1   force =    -0.00064206    0.00002773    0.00172837
     atom   30 type  1   force =     0.00082973   -0.00013742   -0.00104710
     atom   31 type  1   force =     0.00064206   -0.00002773   -0.00172837
     atom   32 type  1   force =    -0.00082973    0.00013742    0.00104710
     atom   33 type  2   force =     0.00017409    0.00026893    0.00071321
     atom   34 type  2   force =    -0.00015728    0.00039259   -0.00073288
     atom   35 type  2   force =    -0.00017409   -0.00026893   -0.00071321
     atom   36 type  2   force =     0.00015728   -0.00039259    0.00073288
     atom   37 type  4   force =     0.00100400    0.00159484   -0.00191746
     atom   38 type  4   force =    -0.00101655    0.00153909    0.00190941
     atom   39 type  4   force =    -0.00100400   -0.00159484    0.00191746
     atom   40 type  4   force =     0.00101655   -0.00153909   -0.00190941
     atom   41 type  4   force =    -0.00073188   -0.00106401    0.00233664
     atom   42 type  4   force =     0.00073373   -0.00106529   -0.00234085
     atom   43 type  4   force =     0.00073188    0.00106401   -0.00233664
     atom   44 type  4   force =    -0.00073373    0.00106529    0.00234085
     atom   45 type  4   force =    -0.00020340   -0.00076271    0.00046792
     atom   46 type  4   force =     0.00020376   -0.00081857   -0.00044566
     atom   47 type  4   force =     0.00020340    0.00076271   -0.00046792
     atom   48 type  4   force =    -0.00020376    0.00081857    0.00044566
     atom   49 type  3   force =     0.00012329   -0.00057044    0.00023463
     atom   50 type  3   force =    -0.00007394   -0.00055782   -0.00011231
     atom   51 type  3   force =    -0.00012329    0.00057044   -0.00023463
     atom   52 type  3   force =     0.00007394    0.00055782    0.00011231
     atom   53 type  3   force =    -0.00086681   -0.00011161    0.00002345
     atom   54 type  3   force =     0.00081462   -0.00009690   -0.00016398
     atom   55 type  3   force =     0.00086681    0.00011161   -0.00002345
     atom   56 type  3   force =    -0.00081462    0.00009690    0.00016398
     atom   57 type  3   force =    -0.00073815    0.00094231    0.00078782
     atom   58 type  3   force =     0.00073867    0.00099389   -0.00081555
     atom   59 type  3   force =     0.00073815   -0.00094231   -0.00078782
     atom   60 type  3   force =    -0.00073867   -0.00099389    0.00081555

     Total force =     0.013002     Total SCF correction =     0.000265


     Computing stress (Cartesian axis) and pressure

          total   stress  (Ry/bohr**3)                   (kbar)     P=   -2.84
  -0.00002234  -0.00000021   0.00001672         -3.29     -0.03      2.46
  -0.00000021  -0.00003133  -0.00000064         -0.03     -4.61     -0.09
   0.00001672  -0.00000064  -0.00000419          2.46     -0.09     -0.62


     Writing output data file scf.save
 
     init_run     :     19.34s CPU     20.48s WALL (       1 calls)
     electrons    :    439.87s CPU    464.29s WALL (       1 calls)
     forces       :      9.99s CPU     10.08s WALL (       1 calls)
     stress       :     42.96s CPU     43.14s WALL (       1 calls)

     Called by init_run:
     wfcinit      :     11.69s CPU     12.47s WALL (       1 calls)
     potinit      :      2.71s CPU      2.80s WALL (       1 calls)

     Called by electrons:
     c_bands      :    383.68s CPU    404.57s WALL (      14 calls)
     sum_band     :     48.08s CPU     51.00s WALL (      14 calls)
     v_of_rho     :      1.22s CPU      1.34s WALL (      15 calls)
     newd         :      2.45s CPU      2.89s WALL (      15 calls)
     PAW_pot      :      4.04s CPU      4.05s WALL (      15 calls)
     mix_rho      :      0.28s CPU      0.30s WALL (      14 calls)

     Called by c_bands:
     init_us_2    :      3.95s CPU      3.96s WALL (     248 calls)
     cegterg      :    370.12s CPU    390.98s WALL (     112 calls)

     Called by sum_band:
     sum_band:bec :      0.04s CPU      0.04s WALL (     112 calls)
     addusdens    :      2.64s CPU      3.02s WALL (      14 calls)

     Called by *egterg:
     h_psi        :    240.59s CPU    256.76s WALL (     522 calls)
     s_psi        :     31.85s CPU     31.86s WALL (     522 calls)
     g_psi        :      1.81s CPU      1.81s WALL (     402 calls)
     cdiaghg      :     23.67s CPU     23.71s WALL (     514 calls)

     Called by h_psi:
     h_psi:pot    :    238.49s CPU    254.61s WALL (     522 calls)
     h_psi:calbec :     30.05s CPU     30.19s WALL (     522 calls)
     vloc_psi     :    176.63s CPU    192.60s WALL (     522 calls)
     add_vuspsi   :     31.81s CPU     31.82s WALL (     522 calls)

     General routines
     calbec       :     46.70s CPU     46.89s WALL (     674 calls)
     fft          :      1.26s CPU      1.64s WALL (     219 calls)
     fftw         :    190.94s CPU    207.98s WALL (   95942 calls)
 
     Parallel routines
     fft_scatter  :     39.96s CPU     50.85s WALL (   96161 calls)
 
     PWSCF        :  8m37.55s CPU     9m35.74s WALL

 
   This run was terminated on:   2:34:20   4Nov2017            

=------------------------------------------------------------------------------=
   JOB DONE.
=------------------------------------------------------------------------------=
