
     Program PWSCF v.6.1 (svn rev. 13369) starts on 15Dec2017 at  5:38:12 

     This program is part of the open-source Quantum ESPRESSO suite
     for quantum simulation of materials; please cite
         "P. Giannozzi et al., J. Phys.:Condens. Matter 21 395502 (2009);
          URL http://www.quantum-espresso.org", 
     in publications or presentations arising from this work. More details at
     http://www.quantum-espresso.org/quote

     Parallel version (MPI), running on     8 processors
     R & G space division:  proc/nbgrp/npool/nimage =       8
     Waiting for input...
     Reading input from standard input

     Current dimensions of program PWSCF are:
     Max number of different atomic species (ntypx) = 10
     Max number of k-points (npk) =  40000
     Max angular momentum in pseudopotentials (lmaxx) =  3
               file C.pbe-n-kjpaw_psl.0.1.UPF: wavefunction(s)  2P renormalized
               file N.pbe-n-kjpaw_psl.0.1.UPF: wavefunction(s)  2P renormalized
               file H.pbe-kjpaw_psl.0.1.UPF: wavefunction(s)  1S renormalized
               file O.pbe-n-kjpaw_psl.0.1.UPF: wavefunction(s)  2P renormalized

     -------------------------------------
     Parameters for Dispersion Correction:
     -------------------------------------
       atom      VdW radius       C_6     

        C          2.744         60.710
        N          2.640         42.670
        H          1.892          4.857
        O          2.536         24.284

     Subspace diagonalization in iterative solution of the eigenvalue problem:
     a serial algorithm will be used

 
     Parallelization info
     --------------------
     sticks:   dense  smooth     PW     G-vecs:    dense   smooth      PW
     Min         857     857    228                73525    73525   10066
     Max         858     858    229                73527    73527   10069
     Sum        6861    6861   1827               588209   588209   80535
 


     bravais-lattice index     =            0
     lattice parameter (alat)  =      12.8860  a.u.
     unit-cell volume          =    4354.6329 (a.u.)^3
     number of atoms/cell      =           64
     number of atomic types    =            4
     number of electrons       =       212.00
     number of Kohn-Sham states=          127
     kinetic-energy cutoff     =     100.0000  Ry
     charge density cutoff     =     400.0000  Ry
     convergence threshold     =      1.0E-08
     mixing beta               =       0.5000
     number of iterations used =            8  plain     mixing
     Exchange-correlation      =  SLA  PW   PBX  PBC ( 1  4  3  4 0 0)

     celldm(1)=  12.886043  celldm(2)=   0.000000  celldm(3)=   0.000000
     celldm(4)=   0.000000  celldm(5)=   0.000000  celldm(6)=   0.000000

     crystal axes: (cart. coord. in units of alat)
               a(1) = (   1.000000   0.000000   0.000000 )  
               a(2) = (   0.375226   1.298386   0.000000 )  
               a(3) = (   0.385094   0.546061   1.567433 )  

     reciprocal axes: (cart. coord. in units 2 pi/alat)
               b(1) = (  1.000000 -0.288994 -0.145005 )  
               b(2) = (  0.000000  0.770187 -0.268317 )  
               b(3) = (  0.000000  0.000000  0.637986 )  


     PseudoPot. # 1 for  C read from file:
     /scratch/ahofstet/pseudo/C.pbe-n-kjpaw_psl.0.1.UPF
     MD5 check sum: 430fe95172b1e11ef3f8ed03bac87931
     Pseudo is Projector augmented-wave + core cor, Zval =  4.0
     Generated using "atomic" code by A. Dal Corso  v.5.0.99 svn rev. 10869
     Shape of augmentation charge: BESSEL
     Using radial grid of 1073 points,  4 beta functions with: 
                l(1) =   0
                l(2) =   0
                l(3) =   1
                l(4) =   1
     Q(r) pseudized with 0 coefficients 


     PseudoPot. # 2 for  N read from file:
     /scratch/ahofstet/pseudo/N.pbe-n-kjpaw_psl.0.1.UPF
     MD5 check sum: f73187c8b701007e77325f868c9291d7
     Pseudo is Projector augmented-wave + core cor, Zval =  5.0
     Generated using "atomic" code by A. Dal Corso  v.5.0.99 svn rev. 10869
     Shape of augmentation charge: PSQ
     Using radial grid of 1085 points,  4 beta functions with: 
                l(1) =   0
                l(2) =   0
                l(3) =   1
                l(4) =   1
     Q(r) pseudized with 0 coefficients 


     PseudoPot. # 3 for  H read from file:
     /scratch/ahofstet/pseudo/H.pbe-kjpaw_psl.0.1.UPF
     MD5 check sum: 94e484f906d9e9773b2f6e52662335b2
     Pseudo is Projector augmented-wave, Zval =  1.0
     Generated using "atomic" code by A. Dal Corso  v.5.0.99 svn rev. 10869
     Shape of augmentation charge: PSQ
     Using radial grid of  929 points,  2 beta functions with: 
                l(1) =   0
                l(2) =   0
     Q(r) pseudized with 0 coefficients 


     PseudoPot. # 4 for  O read from file:
     /scratch/ahofstet/pseudo/O.pbe-n-kjpaw_psl.0.1.UPF
     MD5 check sum: 3f94a2996a3169367d6eb21d9b593f20
     Pseudo is Projector augmented-wave + core cor, Zval =  6.0
     Generated using "atomic" code by A. Dal Corso  v.5.0.99 svn rev. 10869
     Shape of augmentation charge: BESSEL
     Using radial grid of 1095 points,  4 beta functions with: 
                l(1) =   0
                l(2) =   0
                l(3) =   1
                l(4) =   1
     Q(r) pseudized with 0 coefficients 


     atomic species   valence    mass     pseudopotential
        C              4.00    12.01070      C( 1.00)
        N              5.00    14.00670      N( 1.00)
        H              1.00     1.00794      H( 1.00)
        O              6.00    15.99940      O( 1.00)

      2 Sym. Ops., with inversion, found



   Cartesian axes

     site n.     atom                  positions (alat units)
         1           N   tau(   1) = (   0.5543820   1.0113295   1.2619364  )
         2           N   tau(   2) = (   1.2059382   0.8331177   0.3054971  )
         3           C   tau(   3) = (   1.4230862   0.9096142   1.3769843  )
         4           C   tau(   4) = (   0.3372340   0.9348330   0.1904491  )
         5           C   tau(   5) = (   0.5151702   0.9004645   1.5635801  )
         6           C   tau(   6) = (   1.2451500   0.9439827   0.0038534  )
         7           N   tau(   7) = (   0.6952369   0.9940522   1.5591505  )
         8           N   tau(   8) = (   1.0650833   0.8503950   0.0082830  )
         9           C   tau(   9) = (   1.0328545   0.2633908   0.1527093  )
        10           C   tau(  10) = (   0.7274657   1.5810564   1.4147241  )
        11           H   tau(  11) = (   1.1006415   0.2603178   0.2972524  )
        12           H   tau(  12) = (   0.6596787   1.5841294   1.2701811  )
        13           C   tau(  13) = (   0.8496686   0.1815766   0.1168579  )
        14           C   tau(  14) = (   0.9106516   1.6628706   1.4505756  )
        15           H   tau(  15) = (   0.7710892   0.1087453   0.2355294  )
        16           H   tau(  16) = (   0.9892310   1.7357019   1.3319040  )
        17           C   tau(  17) = (   1.1482507   0.7356603   1.4962604  )
        18           C   tau(  18) = (   0.6120695   1.1087869   0.0711731  )
        19           H   tau(  19) = (   1.0036785   0.6709918   1.4742975  )
        20           H   tau(  20) = (   0.7566417   1.1734554   0.0931360  )
        21           C   tau(  21) = (   1.2388133   0.8274693   1.3383389  )
        22           C   tau(  22) = (   0.5215069   1.0169779   0.2290946  )
        23           H   tau(  23) = (   1.1718492   0.8352999   1.1932015  )
        24           H   tau(  24) = (   0.5884710   1.0091473   0.3742320  )
        25           C   tau(  25) = (   0.7160135   1.0575314   1.3774588  )
        26           C   tau(  26) = (   1.0443067   0.7869158   0.1899747  )
        27           C   tau(  27) = (   0.8877850   1.1648272   1.3066951  )
        28           C   tau(  28) = (   0.8725352   0.6796200   0.2607384  )
        29           H   tau(  29) = (   0.9966842   1.1931113   1.4250052  )
        30           H   tau(  30) = (   0.7636360   0.6513359   0.1424283  )
        31           O   tau(  31) = (   0.9132509   1.2177682   1.1372853  )
        32           O   tau(  32) = (   0.8470693   0.6266790   0.4301481  )
        33           N   tau(  33) = (   0.5388779   1.0445550   1.0645573  )
        34           N   tau(  34) = (   1.2214423   0.7998922   0.5028762  )
        35           C   tau(  35) = (   1.4591202   1.2105939   0.9810100  )
        36           C   tau(  36) = (   0.3012000   0.6338533   0.5864235  )
        37           C   tau(  37) = (   0.4999614   1.1901953   0.7781755  )
        38           C   tau(  38) = (   1.2603588   0.6542519   0.7892580  )
        39           N   tau(  39) = (   0.6018798   1.0192214   0.7426843  )
        40           N   tau(  40) = (   1.1584404   0.8252258   0.8247492  )
        41           C   tau(  41) = (   1.4336322   1.3340591   0.6467291  )
        42           C   tau(  42) = (   0.3266880   0.5103881   0.9207044  )
        43           H   tau(  43) = (   1.4616434   1.3183687   0.4903960  )
        44           H   tau(  44) = (   0.2986768   0.5260785   1.0770375  )
        45           C   tau(  45) = (   1.3318470   1.4925361   0.7232282  )
        46           C   tau(  46) = (   0.4284732   0.3519111   0.8442053  )
        47           H   tau(  47) = (   0.9044026   0.3094609   0.6253452  )
        48           H   tau(  48) = (   0.8559176   1.5349863   0.9420883  )
        49           C   tau(  49) = (   1.2953826   1.5101668   0.9266783  )
        50           C   tau(  50) = (   0.4649376   0.3342804   0.6407552  )
        51           H   tau(  51) = (   1.2168526   1.6388073   0.9806731  )
        52           H   tau(  52) = (   0.5434676   0.2056399   0.5867604  )
        53           C   tau(  53) = (   1.3579805   1.3696335   1.0606273  )
        54           C   tau(  54) = (   0.4023397   0.4748137   0.5068062  )
        55           H   tau(  55) = (   1.3301121   1.3820872   1.2176298  )
        56           H   tau(  56) = (   0.4302081   0.4623600   0.3498037  )
        57           C   tau(  57) = (   0.6265142   0.9354211   0.9158850  )
        58           C   tau(  58) = (   1.1338060   0.9090261   0.6515484  )
        59           C   tau(  59) = (   0.7306529   0.7501920   0.9447818  )
        60           C   tau(  60) = (   1.0296673   1.0942552   0.6226517  )
        61           H   tau(  61) = (   0.7770014   0.6817267   0.8044843  )
        62           H   tau(  62) = (   0.9833188   1.1627205   0.7629492  )
        63           O   tau(  63) = (   0.7626109   0.6758086   1.1054810  )
        64           O   tau(  64) = (   0.9977093   1.1686386   0.4619525  )

     number of k points=     8
                       cart. coord. in units 2pi/alat
        k(    1) = (   0.0000000   0.0000000   0.0000000), wk =   0.1666667
        k(    2) = (   0.0000000   0.0000000  -0.3189928), wk =   0.1666667
        k(    3) = (   0.0000000  -0.3850936   0.1341586), wk =   0.1666667
        k(    4) = (   0.0000000  -0.3850936  -0.1848342), wk =   0.1666667
        k(    5) = (   0.3333333  -0.0963315  -0.0483349), wk =   0.3333333
        k(    6) = (   0.3333333  -0.0963315  -0.3673277), wk =   0.3333333
        k(    7) = (   0.3333333  -0.4814250   0.0858237), wk =   0.3333333
        k(    8) = (   0.3333333  -0.4814250  -0.2331691), wk =   0.3333333

     Dense  grid:   588209 G-vectors     FFT dimensions: (  90, 120, 144)

     Estimated max dynamical RAM per process >     412.60MB

     Estimated total allocated dynamical RAM >    3300.80MB

     Check: negative/imaginary core charge=   -0.000002    0.000000

     Initial potential from superposition of free atoms

     starting charge  211.99841, renormalised to  212.00000
     Starting wfc are  196 randomized atomic wfcs
     Checking if some PAW data can be deallocated... 

     total cpu time spent up to now is       27.2 secs

     per-process dynamical memory:   301.2 Mb

     Self-consistent Calculation

     iteration #  1     ecut=   100.00 Ry     beta=0.50
     Davidson diagonalization with overlap
     ethr =  1.00E-02,  avg # of iterations =  4.4

     total cpu time spent up to now is       90.0 secs

     total energy              =   -1004.71851123 Ry
     Harris-Foulkes estimate   =   -1008.25836733 Ry
     estimated scf accuracy    <       6.70902076 Ry

     iteration #  2     ecut=   100.00 Ry     beta=0.50
     Davidson diagonalization with overlap
     ethr =  3.16E-03,  avg # of iterations =  2.8

     total cpu time spent up to now is      123.7 secs

     total energy              =   -1004.87461827 Ry
     Harris-Foulkes estimate   =   -1005.65231684 Ry
     estimated scf accuracy    <       1.50084178 Ry

     iteration #  3     ecut=   100.00 Ry     beta=0.50
     Davidson diagonalization with overlap
     ethr =  7.08E-04,  avg # of iterations =  6.2

     total cpu time spent up to now is      190.2 secs

     total energy              =   -1005.74401110 Ry
     Harris-Foulkes estimate   =   -1006.08407004 Ry
     estimated scf accuracy    <       0.85766655 Ry

     iteration #  4     ecut=   100.00 Ry     beta=0.50
     Davidson diagonalization with overlap
     ethr =  4.05E-04,  avg # of iterations =  1.2

     total cpu time spent up to now is      221.1 secs

     total energy              =   -1005.70237291 Ry
     Harris-Foulkes estimate   =   -1005.81609695 Ry
     estimated scf accuracy    <       0.18671118 Ry

     iteration #  5     ecut=   100.00 Ry     beta=0.50
     Davidson diagonalization with overlap
     ethr =  8.81E-05,  avg # of iterations =  7.5

     total cpu time spent up to now is      290.5 secs

     total energy              =   -1005.83559952 Ry
     Harris-Foulkes estimate   =   -1005.89858331 Ry
     estimated scf accuracy    <       0.17737021 Ry

     iteration #  6     ecut=   100.00 Ry     beta=0.50
     Davidson diagonalization with overlap
     ethr =  8.37E-05,  avg # of iterations =  1.0

     total cpu time spent up to now is      321.2 secs

     total energy              =   -1005.81113332 Ry
     Harris-Foulkes estimate   =   -1005.84304999 Ry
     estimated scf accuracy    <       0.06378407 Ry

     iteration #  7     ecut=   100.00 Ry     beta=0.50
     Davidson diagonalization with overlap
     ethr =  3.01E-05,  avg # of iterations =  4.6

     total cpu time spent up to now is      375.3 secs

     total energy              =   -1005.84092629 Ry
     Harris-Foulkes estimate   =   -1005.84406767 Ry
     estimated scf accuracy    <       0.00752022 Ry

     iteration #  8     ecut=   100.00 Ry     beta=0.50
     Davidson diagonalization with overlap
     ethr =  3.55E-06,  avg # of iterations =  5.5

     total cpu time spent up to now is      410.3 secs

     total energy              =   -1005.84054723 Ry
     Harris-Foulkes estimate   =   -1005.84163211 Ry
     estimated scf accuracy    <       0.00188272 Ry

     iteration #  9     ecut=   100.00 Ry     beta=0.50
     Davidson diagonalization with overlap
     ethr =  8.88E-07,  avg # of iterations =  6.8

     total cpu time spent up to now is      477.0 secs

     total energy              =   -1005.84212476 Ry
     Harris-Foulkes estimate   =   -1005.84275680 Ry
     estimated scf accuracy    <       0.00181277 Ry

     iteration # 10     ecut=   100.00 Ry     beta=0.50
     Davidson diagonalization with overlap
     ethr =  8.55E-07,  avg # of iterations =  1.0

     total cpu time spent up to now is      507.3 secs

     total energy              =   -1005.84189464 Ry
     Harris-Foulkes estimate   =   -1005.84219408 Ry
     estimated scf accuracy    <       0.00066104 Ry

     iteration # 11     ecut=   100.00 Ry     beta=0.50
     Davidson diagonalization with overlap
     ethr =  3.12E-07,  avg # of iterations =  4.0

     total cpu time spent up to now is      557.9 secs

     total energy              =   -1005.84219382 Ry
     Harris-Foulkes estimate   =   -1005.84220889 Ry
     estimated scf accuracy    <       0.00005369 Ry

     iteration # 12     ecut=   100.00 Ry     beta=0.50
     Davidson diagonalization with overlap
     ethr =  2.53E-08,  avg # of iterations =  2.8

     total cpu time spent up to now is      590.4 secs

     total energy              =   -1005.84218794 Ry
     Harris-Foulkes estimate   =   -1005.84219932 Ry
     estimated scf accuracy    <       0.00002170 Ry

     iteration # 13     ecut=   100.00 Ry     beta=0.50
     Davidson diagonalization with overlap
     ethr =  1.02E-08,  avg # of iterations =  4.0

     total cpu time spent up to now is      640.9 secs

     total energy              =   -1005.84219798 Ry
     Harris-Foulkes estimate   =   -1005.84219873 Ry
     estimated scf accuracy    <       0.00000228 Ry

     iteration # 14     ecut=   100.00 Ry     beta=0.50
     Davidson diagonalization with overlap
     ethr =  1.07E-09,  avg # of iterations =  3.0

     total cpu time spent up to now is      674.7 secs

     total energy              =   -1005.84219791 Ry
     Harris-Foulkes estimate   =   -1005.84219825 Ry
     estimated scf accuracy    <       0.00000069 Ry

     iteration # 15     ecut=   100.00 Ry     beta=0.50
     Davidson diagonalization with overlap
     ethr =  3.27E-10,  avg # of iterations =  4.0

     total cpu time spent up to now is      727.1 secs

     total energy              =   -1005.84219828 Ry
     Harris-Foulkes estimate   =   -1005.84219831 Ry
     estimated scf accuracy    <       0.00000011 Ry

     iteration # 16     ecut=   100.00 Ry     beta=0.50
     Davidson diagonalization with overlap
     ethr =  5.29E-11,  avg # of iterations =  2.9

     total cpu time spent up to now is      761.2 secs

     total energy              =   -1005.84219826 Ry
     Harris-Foulkes estimate   =   -1005.84219829 Ry
     estimated scf accuracy    <       0.00000005 Ry

     iteration # 17     ecut=   100.00 Ry     beta=0.50
     Davidson diagonalization with overlap
     ethr =  2.36E-11,  avg # of iterations =  4.0

     total cpu time spent up to now is      809.2 secs

     End of self-consistent calculation

          k = 0.0000 0.0000 0.0000 ( 73549 PWs)   bands (ev):

   -20.7378 -20.7105 -19.4185 -19.4134 -19.2704 -19.2632 -18.6163 -18.5395
   -16.8621 -16.7720 -14.5606 -14.5226 -14.4038 -14.3399 -14.1522 -14.1284
   -12.1771 -12.1615 -12.0001 -11.9810 -11.8863 -11.7439 -11.5509 -11.5298
   -10.1864 -10.1827  -9.9035  -9.8450  -9.7783  -9.6266  -8.7199  -8.7041
    -8.6092  -8.5598  -7.7263  -7.6972  -7.6458  -7.6053  -7.0952  -7.0335
    -6.8053  -6.6742  -5.7933  -5.7318  -5.7009  -5.6401  -5.3716  -5.1676
    -5.1394  -5.0968  -5.0228  -4.9332  -4.5375  -4.4434  -4.4281  -4.3401
    -4.3373  -4.2649  -4.0932  -3.9883  -3.9690  -3.9392  -3.8911  -3.7893
    -3.7889  -3.6162  -3.5788  -3.5146  -3.4226  -3.4219  -3.2496  -2.9762
    -2.9308  -2.7325  -2.1619  -2.1015  -2.0605  -1.9831  -1.9736  -1.9339
    -1.8693  -1.8215  -1.7840  -1.7667  -1.3907  -1.3084  -1.2793  -1.1633
    -1.0689  -1.0642  -0.3353  -0.2380   0.0661   0.1447   0.5723   0.5756
     0.7096   0.7226   0.7262   0.8603   0.9345   1.0046   1.0417   1.1036
     1.1917   1.2476   3.6815   3.7694   3.7945   3.8389   5.5056   5.5404
     5.7480   5.8473   6.0404   6.0884   6.2246   6.3824   7.1474   7.1769
     7.4774   7.5234   7.6862   7.7990   8.2095   8.2286   8.5274

          k = 0.0000 0.0000-0.3190 ( 73578 PWs)   bands (ev):

   -20.7256 -20.7230 -19.4157 -19.4157 -19.2692 -19.2641 -18.5800 -18.5781
   -16.8164 -16.8154 -14.5437 -14.5419 -14.3685 -14.3631 -14.1592 -14.1420
   -12.1605 -12.1386 -12.0280 -11.9438 -11.7937 -11.7740 -11.6007 -11.5933
   -10.1950 -10.1699  -9.8873  -9.8759  -9.7259  -9.6621  -8.6956  -8.6908
    -8.6076  -8.5941  -7.8041  -7.7704  -7.5800  -7.5409  -7.1179  -7.0862
    -6.6651  -6.6604  -5.7707  -5.7515  -5.7067  -5.6417  -5.3583  -5.1724
    -5.1496  -5.1142  -4.9269  -4.9012  -4.6667  -4.5613  -4.5059  -4.3882
    -4.1080  -4.0951  -4.0903  -4.0258  -4.0067  -3.9843  -3.9610  -3.9065
    -3.6565  -3.6451  -3.5946  -3.5525  -3.4625  -3.3793  -3.1979  -3.1087
    -2.8508  -2.7494  -2.1497  -2.1138  -2.0924  -2.0281  -1.9710  -1.9480
    -1.8734  -1.7785  -1.7449  -1.6602  -1.3679  -1.2977  -1.2319  -1.2205
    -1.1020  -1.0779  -0.1551  -0.1039  -0.0386  -0.0041   0.5688   0.5797
     0.6541   0.6953   0.7359   0.8027   0.9886   0.9904   1.0424   1.1106
     1.2074   1.2648   3.6872   3.7493   3.8160   3.8397   5.5195   5.5380
     5.7530   5.8137   6.0433   6.1537   6.1767   6.3814   7.1951   7.3355
     7.3960   7.5364   7.6639   7.7499   7.8616   8.3102   8.3669

          k = 0.0000-0.3851 0.1342 ( 73572 PWs)   bands (ev):

   -20.7376 -20.7106 -19.4186 -19.4134 -19.2704 -19.2631 -18.6156 -18.5408
   -16.8602 -16.7730 -14.5463 -14.5447 -14.4031 -14.3140 -14.2079 -14.0920
   -12.1689 -12.1314 -12.0246 -11.9541 -11.8322 -11.7569 -11.6430 -11.5497
   -10.1758 -10.1757  -9.9310  -9.8116  -9.7404  -9.6712  -8.7153  -8.6701
    -8.6308  -8.5628  -7.8623  -7.7169  -7.5521  -7.5391  -7.1396  -7.0280
    -6.6800  -6.6072  -5.7659  -5.7652  -5.6616  -5.5970  -5.3335  -5.3166
    -5.2507  -5.1730  -4.9549  -4.8919  -4.7132  -4.6378  -4.4247  -4.3481
    -4.1670  -4.1335  -4.0724  -4.0357  -3.9900  -3.8610  -3.8561  -3.8445
    -3.6531  -3.6350  -3.6106  -3.5459  -3.5273  -3.5059  -3.3834  -3.0846
    -2.9234  -2.7396  -2.0644  -2.0613  -2.0176  -1.9660  -1.9509  -1.8520
    -1.7996  -1.7339  -1.6876  -1.6712  -1.4951  -1.3322  -1.2588  -1.1117
    -1.0878  -0.9958  -0.3452  -0.2124   0.1074   0.1195   0.5774   0.5779
     0.5876   0.7200   0.8038   0.8435   0.8866   0.9024   0.9690   1.0831
     1.1454   1.2369   3.6473   3.7705   3.8442   3.9460   5.5268   5.5953
     5.7410   5.9255   6.0348   6.0365   6.1486   6.2345   7.1087   7.3068
     7.4035   7.6349   7.7403   7.7804   8.0459   8.2586   8.2814

          k = 0.0000-0.3851-0.1848 ( 73518 PWs)   bands (ev):

   -20.7256 -20.7230 -19.4158 -19.4158 -19.2690 -19.2642 -18.5799 -18.5784
   -16.8168 -16.8161 -14.5557 -14.5382 -14.3744 -14.3659 -14.1470 -14.1160
   -12.1769 -12.1715 -11.9940 -11.9887 -11.8417 -11.8080 -11.5551 -11.5265
   -10.1933 -10.1658  -9.9029  -9.8509  -9.7052  -9.6933  -8.7206  -8.7084
    -8.6036  -8.5526  -7.7002  -7.6682  -7.6251  -7.6187  -7.0825  -7.0592
    -6.7324  -6.7272  -5.7534  -5.7394  -5.6805  -5.6531  -5.3452  -5.2875
    -5.2428  -5.1885  -4.9064  -4.8932  -4.6435  -4.5346  -4.4191  -4.4056
    -4.1841  -4.1067  -4.0253  -4.0078  -3.9893  -3.9366  -3.9014  -3.7997
    -3.6772  -3.6462  -3.5770  -3.5488  -3.5363  -3.4827  -3.3594  -3.1784
    -2.8496  -2.7497  -2.0956  -2.0572  -2.0375  -1.9492  -1.9102  -1.8264
    -1.8199  -1.7878  -1.7022  -1.6963  -1.5078  -1.2835  -1.2608  -1.2028
    -1.0526  -1.0272  -0.1519  -0.1060  -0.0649  -0.0145   0.5153   0.6420
     0.6758   0.7017   0.7318   0.8558   0.8737   0.9083   1.0541   1.1183
     1.1408   1.1832   3.6512   3.7484   3.8861   3.9176   5.5504   5.5802
     5.7744   5.8429   6.0657   6.0879   6.1189   6.2472   7.1623   7.3574
     7.4554   7.5897   7.7313   7.7609   7.8640   7.9768   8.6105

          k = 0.3333-0.0963-0.0483 ( 73524 PWs)   bands (ev):

   -20.7346 -20.7115 -19.4195 -19.4146 -19.2703 -19.2643 -18.6171 -18.5378
   -16.8560 -16.7774 -14.5677 -14.5435 -14.3898 -14.3538 -14.1438 -14.1321
   -12.1661 -12.1536 -12.0063 -11.9290 -11.9034 -11.7265 -11.5548 -11.5292
   -10.1895 -10.1722  -9.9001  -9.8688  -9.7245  -9.6844  -8.7436  -8.7083
    -8.6135  -8.5674  -7.7806  -7.7198  -7.6461  -7.5774  -7.1103  -6.9562
    -6.8285  -6.6507  -5.7595  -5.7225  -5.6765  -5.6403  -5.3111  -5.3013
    -5.1954  -5.1850  -5.0100  -4.8852  -4.5938  -4.5387  -4.4539  -4.3318
    -4.2609  -4.1489  -4.0431  -4.0001  -3.9657  -3.9321  -3.8430  -3.7908
    -3.7489  -3.6490  -3.5863  -3.5793  -3.4855  -3.4186  -3.1447  -2.9510
    -2.8809  -2.7319  -2.1849  -2.0549  -2.0419  -1.9972  -1.9363  -1.9262
    -1.8720  -1.7971  -1.7722  -1.6854  -1.4230  -1.3544  -1.2778  -1.1152
    -1.0642  -1.0140  -0.3030  -0.2665   0.0675   0.1294   0.3919   0.5098
     0.5887   0.6642   0.6824   0.7621   0.9632   1.0087   1.0669   1.0872
     1.1672   1.3424   3.5579   3.6871   3.7605   3.9223   5.6770   5.6977
     5.7792   5.8796   6.1357   6.1854   6.2156   6.3561   7.0764   7.2404
     7.4121   7.5169   7.7270   7.9228   8.2566   8.3107   8.4465

          k = 0.3333-0.0963-0.3673 ( 73519 PWs)   bands (ev):

   -20.7246 -20.7218 -19.4183 -19.4154 -19.2708 -19.2638 -18.5790 -18.5776
   -16.8224 -16.8087 -14.5638 -14.5483 -14.3767 -14.3527 -14.1543 -14.1460
   -12.1416 -12.1369 -11.9813 -11.9800 -11.7750 -11.7584 -11.6082 -11.5880
   -10.1878 -10.1687  -9.8923  -9.8723  -9.7232  -9.6890  -8.7299  -8.6929
    -8.6259  -8.5768  -7.8233  -7.7964  -7.6070  -7.5477  -7.0789  -7.0380
    -6.6932  -6.6372  -5.7416  -5.7196  -5.6815  -5.6469  -5.3107  -5.2989
    -5.2082  -5.1733  -4.9264  -4.8624  -4.6911  -4.6694  -4.4312  -4.3443
    -4.1432  -4.1031  -4.0834  -4.0185  -4.0080  -3.9309  -3.9097  -3.8721
    -3.6410  -3.6107  -3.5896  -3.5732  -3.5080  -3.4845  -3.0995  -3.0253
    -2.8216  -2.7803  -2.1090  -2.0979  -2.0328  -1.9941  -1.9816  -1.9512
    -1.9049  -1.7614  -1.7043  -1.6291  -1.4113  -1.3779  -1.2192  -1.1514
    -1.0875  -1.0412  -0.1360  -0.0962  -0.0439  -0.0085   0.4009   0.4615
     0.5504   0.6960   0.7242   0.7597   0.9388   1.0036   1.0520   1.0789
     1.1782   1.3290   3.5852   3.6508   3.7816   3.9212   5.6931   5.7032
     5.7828   5.8554   6.1479   6.1672   6.2226   6.3622   7.1573   7.2520
     7.4228   7.4828   7.6662   7.8663   7.9939   8.3853   8.5290

          k = 0.3333-0.4814 0.0858 ( 73528 PWs)   bands (ev):

   -20.7345 -20.7116 -19.4197 -19.4146 -19.2701 -19.2642 -18.6163 -18.5388
   -16.8543 -16.7783 -14.5665 -14.5502 -14.4037 -14.3184 -14.1994 -14.1024
   -12.1531 -12.1230 -12.0029 -11.9242 -11.8232 -11.7439 -11.6359 -11.5628
   -10.1906 -10.1656  -9.9474  -9.8178  -9.7574  -9.6410  -8.7233  -8.7023
    -8.6180  -8.5907  -7.8945  -7.7406  -7.5999  -7.5657  -7.1631  -6.9556
    -6.7161  -6.6114  -5.7905  -5.7442  -5.6527  -5.6162  -5.3157  -5.2310
    -5.1798  -5.1268  -4.9612  -4.7941  -4.7267  -4.6077  -4.4897  -4.3730
    -4.2294  -4.1920  -4.0713  -4.0138  -4.0004  -3.9168  -3.8951  -3.8455
    -3.6574  -3.6437  -3.5823  -3.5266  -3.4747  -3.4389  -3.2429  -3.0545
    -2.9250  -2.7284  -2.0938  -2.0511  -2.0036  -1.9495  -1.9471  -1.8636
    -1.7804  -1.7766  -1.7087  -1.6775  -1.4577  -1.3836  -1.3402  -1.1064
    -1.0565  -0.9587  -0.3218  -0.2336   0.1027   0.1233   0.4800   0.5718
     0.5956   0.6271   0.7020   0.7443   0.7987   0.9428   1.0176   1.0881
     1.1899   1.2105   3.4985   3.6450   3.8811   4.0552   5.6237   5.7462
     5.8034   5.9320   6.0726   6.1171   6.1602   6.3586   7.1125   7.3166
     7.3452   7.5046   7.6985   7.9023   8.1668   8.2756   8.4748

          k = 0.3333-0.4814-0.2332 ( 73557 PWs)   bands (ev):

   -20.7246 -20.7218 -19.4185 -19.4155 -19.2707 -19.2637 -18.5789 -18.5774
   -16.8229 -16.8093 -14.5684 -14.5540 -14.3767 -14.3625 -14.1433 -14.1247
   -12.1714 -12.1558 -11.9831 -11.9506 -11.8304 -11.7904 -11.5545 -11.5360
   -10.1949 -10.1721  -9.9050  -9.8768  -9.7210  -9.6529  -8.7389  -8.7135
    -8.6048  -8.5834  -7.7519  -7.7136  -7.6605  -7.6196  -7.0594  -7.0334
    -6.7752  -6.7305  -5.7507  -5.7358  -5.7030  -5.6514  -5.3215  -5.2059
    -5.1783  -5.1335  -4.8934  -4.8398  -4.5955  -4.5406  -4.4839  -4.4561
    -4.1814  -4.0648  -4.0536  -4.0131  -3.9898  -3.9399  -3.9310  -3.8957
    -3.7093  -3.6473  -3.5921  -3.5410  -3.4587  -3.4543  -3.2058  -3.1559
    -2.8060  -2.7458  -2.1124  -2.0600  -1.9947  -1.9664  -1.9151  -1.8925
    -1.8551  -1.8090  -1.6932  -1.6566  -1.4680  -1.3918  -1.2814  -1.1857
    -1.0401  -0.9851  -0.1393  -0.0963  -0.0740  -0.0143   0.4891   0.5592
     0.6205   0.6340   0.7567   0.7737   0.7868   0.9244   1.0145   1.1020
     1.1250   1.2469   3.5381   3.5916   3.9071   4.0352   5.6441   5.7613
     5.8149   5.9216   6.0195   6.1119   6.2040   6.3357   7.1936   7.2723
     7.4263   7.4901   7.6727   7.8623   8.1494   8.3197   8.5721

     highest occupied, lowest unoccupied level (ev):     1.3424    3.4985

!    total energy              =   -1005.84219828 Ry
     Harris-Foulkes estimate   =   -1005.84219829 Ry
     estimated scf accuracy    <          7.9E-09 Ry

     total all-electron energy =     -3940.071335 Ry

     The total energy is the sum of the following terms:

     one-electron contribution =    -562.90234228 Ry
     hartree contribution      =     363.72133215 Ry
     xc contribution           =    -219.31458089 Ry
     ewald contribution        =    -269.79465817 Ry
     Dispersion Correction     =      -0.32622035 Ry
     one-center paw contrib.   =    -317.22572874 Ry

     convergence has been achieved in  17 iterations

     Forces acting on atoms (cartesian axes, Ry/au):

     atom    1 type  2   force =     0.00556538    0.00150284   -0.00091617
     atom    2 type  2   force =    -0.00556538   -0.00150284    0.00091617
     atom    3 type  1   force =    -0.00689146   -0.00642943   -0.00105639
     atom    4 type  1   force =     0.00689146    0.00642943    0.00105639
     atom    5 type  1   force =     0.00519197    0.00718505   -0.00339176
     atom    6 type  1   force =    -0.00519197   -0.00718505    0.00339176
     atom    7 type  2   force =    -0.00633300   -0.00596738    0.00494605
     atom    8 type  2   force =     0.00633300    0.00596738   -0.00494605
     atom    9 type  1   force =    -0.00284003   -0.00349970    0.00222289
     atom   10 type  1   force =     0.00284003    0.00349970   -0.00222289
     atom   11 type  3   force =    -0.00010091    0.00000027    0.00052447
     atom   12 type  3   force =     0.00010091   -0.00000027   -0.00052447
     atom   13 type  1   force =     0.00456440    0.00095492    0.00297004
     atom   14 type  1   force =    -0.00456440   -0.00095492   -0.00297004
     atom   15 type  3   force =    -0.00026227   -0.00026104   -0.00019408
     atom   16 type  3   force =     0.00026227    0.00026104    0.00019408
     atom   17 type  1   force =    -0.00529310    0.00064337    0.00028421
     atom   18 type  1   force =     0.00529310   -0.00064337   -0.00028421
     atom   19 type  3   force =     0.00061111   -0.00044673   -0.00031028
     atom   20 type  3   force =    -0.00061111    0.00044673    0.00031028
     atom   21 type  1   force =     0.00918695    0.00521652   -0.00230006
     atom   22 type  1   force =    -0.00918695   -0.00521652    0.00230006
     atom   23 type  3   force =    -0.00011622    0.00076089    0.00050630
     atom   24 type  3   force =     0.00011622   -0.00076089   -0.00050630
     atom   25 type  1   force =    -0.00147728    0.00071784   -0.00559832
     atom   26 type  1   force =     0.00147728   -0.00071784    0.00559832
     atom   27 type  1   force =     0.00225561   -0.00186206    0.00385116
     atom   28 type  1   force =    -0.00225561    0.00186206   -0.00385116
     atom   29 type  3   force =     0.00007033    0.00057154   -0.00045750
     atom   30 type  3   force =    -0.00007033   -0.00057154    0.00045750
     atom   31 type  4   force =    -0.00060911    0.00074429   -0.00255878
     atom   32 type  4   force =     0.00060911   -0.00074429    0.00255878
     atom   33 type  2   force =     0.00045875   -0.00205564    0.00064114
     atom   34 type  2   force =    -0.00045875    0.00205564   -0.00064114
     atom   35 type  1   force =    -0.00087673    0.00237716    0.00190354
     atom   36 type  1   force =     0.00087673   -0.00237716   -0.00190354
     atom   37 type  1   force =    -0.00118578   -0.00071688   -0.00054837
     atom   38 type  1   force =     0.00118578    0.00071688    0.00054837
     atom   39 type  2   force =    -0.00090880    0.00123217   -0.00117305
     atom   40 type  2   force =     0.00090880   -0.00123217    0.00117305
     atom   41 type  1   force =     0.00089874   -0.00043232   -0.00140344
     atom   42 type  1   force =    -0.00089874    0.00043232    0.00140344
     atom   43 type  3   force =     0.00013814   -0.00009975   -0.00040500
     atom   44 type  3   force =    -0.00013814    0.00009975    0.00040500
     atom   45 type  1   force =    -0.00038155    0.00174525   -0.00031102
     atom   46 type  1   force =     0.00038155   -0.00174525    0.00031102
     atom   47 type  3   force =    -0.00010560   -0.00029335    0.00053221
     atom   48 type  3   force =     0.00010560    0.00029335   -0.00053221
     atom   49 type  1   force =     0.00011216    0.00363008    0.00092299
     atom   50 type  1   force =    -0.00011216   -0.00363008   -0.00092299
     atom   51 type  3   force =     0.00112632   -0.00092913   -0.00034129
     atom   52 type  3   force =    -0.00112632    0.00092913    0.00034129
     atom   53 type  1   force =     0.00107578   -0.00249998   -0.00093959
     atom   54 type  1   force =    -0.00107578    0.00249998    0.00093959
     atom   55 type  3   force =     0.00025094   -0.00031180   -0.00038532
     atom   56 type  3   force =    -0.00025094    0.00031180    0.00038532
     atom   57 type  1   force =    -0.00271511    0.00032591    0.00269173
     atom   58 type  1   force =     0.00271511   -0.00032591   -0.00269173
     atom   59 type  1   force =    -0.00055128   -0.00234768    0.00004872
     atom   60 type  1   force =     0.00055128    0.00234768   -0.00004872
     atom   61 type  3   force =    -0.00016137    0.00064718    0.00018802
     atom   62 type  3   force =     0.00016137   -0.00064718   -0.00018802
     atom   63 type  4   force =     0.00080301    0.00006991    0.00003402
     atom   64 type  4   force =    -0.00080301   -0.00006991   -0.00003402

     Total force =     0.036253     Total SCF correction =     0.000196


     Computing stress (Cartesian axis) and pressure

          total   stress  (Ry/bohr**3)                   (kbar)     P=   -3.63
  -0.00003774  -0.00000363  -0.00000592         -5.55     -0.53     -0.87
  -0.00000363  -0.00002366  -0.00000907         -0.53     -3.48     -1.33
  -0.00000592  -0.00000907  -0.00001272         -0.87     -1.33     -1.87


     Writing output data file scf.save
 
     init_run     :     25.56s CPU     26.52s WALL (       1 calls)
     electrons    :    750.18s CPU    782.16s WALL (       1 calls)
     forces       :     12.10s CPU     12.18s WALL (       1 calls)
     stress       :     39.12s CPU     39.26s WALL (       1 calls)

     Called by init_run:
     wfcinit      :     17.86s CPU     18.72s WALL (       1 calls)
     potinit      :      2.76s CPU      2.78s WALL (       1 calls)

     Called by electrons:
     c_bands      :    666.94s CPU    693.88s WALL (      17 calls)
     sum_band     :     73.45s CPU     77.65s WALL (      17 calls)
     v_of_rho     :      1.77s CPU      1.93s WALL (      18 calls)
     newd         :      3.15s CPU      3.81s WALL (      18 calls)
     PAW_pot      :      4.48s CPU      4.49s WALL (      18 calls)
     mix_rho      :      0.36s CPU      0.38s WALL (      17 calls)

     Called by c_bands:
     init_us_2    :      4.41s CPU      4.44s WALL (     296 calls)
     cegterg      :    649.78s CPU    676.66s WALL (     136 calls)

     Called by sum_band:
     sum_band:bec :      0.05s CPU      0.05s WALL (     136 calls)
     addusdens    :      3.17s CPU      3.85s WALL (      17 calls)

     Called by *egterg:
     h_psi        :    387.11s CPU    408.16s WALL (     669 calls)
     s_psi        :     68.17s CPU     68.19s WALL (     669 calls)
     g_psi        :      1.96s CPU      1.96s WALL (     525 calls)
     cdiaghg      :     39.65s CPU     39.65s WALL (     661 calls)

     Called by h_psi:
     h_psi:pot    :    384.48s CPU    405.47s WALL (     669 calls)
     h_psi:calbec :     68.21s CPU     68.42s WALL (     669 calls)
     vloc_psi     :    247.58s CPU    268.31s WALL (     669 calls)
     add_vuspsi   :     68.69s CPU     68.73s WALL (     669 calls)

     General routines
     calbec       :     97.28s CPU     97.55s WALL (     845 calls)
     fft          :      0.96s CPU      1.23s WALL (     258 calls)
     fftw         :    264.25s CPU    286.49s WALL (  118242 calls)
 
     Parallel routines
     fft_scatter  :     56.88s CPU     72.29s WALL (  118500 calls)
 
     PWSCF        : 13m52.76s CPU    15m23.54s WALL

 
   This run was terminated on:   5:53:36  15Dec2017            

=------------------------------------------------------------------------------=
   JOB DONE.
=------------------------------------------------------------------------------=
