
     Program PWSCF v.6.1 (svn rev. 13369) starts on  4Nov2017 at  5: 8:57 

     This program is part of the open-source Quantum ESPRESSO suite
     for quantum simulation of materials; please cite
         "P. Giannozzi et al., J. Phys.:Condens. Matter 21 395502 (2009);
          URL http://www.quantum-espresso.org", 
     in publications or presentations arising from this work. More details at
     http://www.quantum-espresso.org/quote

     Parallel version (MPI), running on     8 processors
     R & G space division:  proc/nbgrp/npool/nimage =       8
     Waiting for input...
     Reading input from standard input

     Current dimensions of program PWSCF are:
     Max number of different atomic species (ntypx) = 10
     Max number of k-points (npk) =  40000
     Max angular momentum in pseudopotentials (lmaxx) =  3
               file C.pbe-n-kjpaw_psl.0.1.UPF: wavefunction(s)  2P renormalized
               file N.pbe-n-kjpaw_psl.0.1.UPF: wavefunction(s)  2P renormalized
               file H.pbe-kjpaw_psl.0.1.UPF: wavefunction(s)  1S renormalized
               file O.pbe-n-kjpaw_psl.0.1.UPF: wavefunction(s)  2P renormalized

     -------------------------------------
     Parameters for Dispersion Correction:
     -------------------------------------
       atom      VdW radius       C_6     

        C          2.744         60.710
        N          2.640         42.670
        H          1.892          4.857
        O          2.536         24.284

     Subspace diagonalization in iterative solution of the eigenvalue problem:
     a serial algorithm will be used

 
     Parallelization info
     --------------------
     sticks:   dense  smooth     PW     G-vecs:    dense   smooth      PW
     Min         896     896    236                72315    72315    9784
     Max         897     897    237                72318    72318    9787
     Sum        7175    7175   1895               578537   578537   78287
 


     bravais-lattice index     =            0
     lattice parameter (alat)  =      13.1733  a.u.
     unit-cell volume          =    4283.8554 (a.u.)^3
     number of atoms/cell      =           72
     number of atomic types    =            4
     number of electrons       =       228.00
     number of Kohn-Sham states=          136
     kinetic-energy cutoff     =     100.0000  Ry
     charge density cutoff     =     400.0000  Ry
     convergence threshold     =      1.0E-08
     mixing beta               =       0.5000
     number of iterations used =            8  plain     mixing
     Exchange-correlation      =  SLA  PW   PBX  PBC ( 1  4  3  4 0 0)

     celldm(1)=  13.173281  celldm(2)=   0.000000  celldm(3)=   0.000000
     celldm(4)=   0.000000  celldm(5)=   0.000000  celldm(6)=   0.000000

     crystal axes: (cart. coord. in units of alat)
               a(1) = (   1.000000   0.000000   0.000000 )  
               a(2) = (  -0.456696   1.300190   0.000000 )  
               a(3) = (  -0.458968  -0.196453   1.441272 )  

     reciprocal axes: (cart. coord. in units 2 pi/alat)
               b(1) = (  1.000000  0.351253  0.366324 )  
               b(2) = (  0.000000  0.769118  0.104835 )  
               b(3) = (  0.000000  0.000000  0.693831 )  


     PseudoPot. # 1 for  C read from file:
     /scratch/ahofstet/pseudo/C.pbe-n-kjpaw_psl.0.1.UPF
     MD5 check sum: 430fe95172b1e11ef3f8ed03bac87931
     Pseudo is Projector augmented-wave + core cor, Zval =  4.0
     Generated using "atomic" code by A. Dal Corso  v.5.0.99 svn rev. 10869
     Shape of augmentation charge: BESSEL
     Using radial grid of 1073 points,  4 beta functions with: 
                l(1) =   0
                l(2) =   0
                l(3) =   1
                l(4) =   1
     Q(r) pseudized with 0 coefficients 


     PseudoPot. # 2 for  N read from file:
     /scratch/ahofstet/pseudo/N.pbe-n-kjpaw_psl.0.1.UPF
     MD5 check sum: f73187c8b701007e77325f868c9291d7
     Pseudo is Projector augmented-wave + core cor, Zval =  5.0
     Generated using "atomic" code by A. Dal Corso  v.5.0.99 svn rev. 10869
     Shape of augmentation charge: PSQ
     Using radial grid of 1085 points,  4 beta functions with: 
                l(1) =   0
                l(2) =   0
                l(3) =   1
                l(4) =   1
     Q(r) pseudized with 0 coefficients 


     PseudoPot. # 3 for  H read from file:
     /scratch/ahofstet/pseudo/H.pbe-kjpaw_psl.0.1.UPF
     MD5 check sum: 94e484f906d9e9773b2f6e52662335b2
     Pseudo is Projector augmented-wave, Zval =  1.0
     Generated using "atomic" code by A. Dal Corso  v.5.0.99 svn rev. 10869
     Shape of augmentation charge: PSQ
     Using radial grid of  929 points,  2 beta functions with: 
                l(1) =   0
                l(2) =   0
     Q(r) pseudized with 0 coefficients 


     PseudoPot. # 4 for  O read from file:
     /scratch/ahofstet/pseudo/O.pbe-n-kjpaw_psl.0.1.UPF
     MD5 check sum: 3f94a2996a3169367d6eb21d9b593f20
     Pseudo is Projector augmented-wave + core cor, Zval =  6.0
     Generated using "atomic" code by A. Dal Corso  v.5.0.99 svn rev. 10869
     Shape of augmentation charge: BESSEL
     Using radial grid of 1095 points,  4 beta functions with: 
                l(1) =   0
                l(2) =   0
                l(3) =   1
                l(4) =   1
     Q(r) pseudized with 0 coefficients 


     atomic species   valence    mass     pseudopotential
        C              4.00    12.01070      C( 1.00)
        N              5.00    14.00670      N( 1.00)
        H              1.00     1.00794      H( 1.00)
        O              6.00    15.99940      O( 1.00)

      2 Sym. Ops., with inversion, found



   Cartesian axes

     site n.     atom                  positions (alat units)
         1           O   tau(   1) = (  -0.1392784   0.3242389   0.6989183  )
         2           O   tau(   2) = (   0.2236137   0.7794985   0.7423538  )
         3           O   tau(   3) = (  -0.3504442   0.3022271   0.9399267  )
         4           O   tau(   4) = (   0.4347795   0.8015103   0.5013454  )
         5           C   tau(   5) = (  -0.2122471   0.2415875   0.8420341  )
         6           C   tau(   6) = (   0.2965824   0.8621499   0.5992380  )
         7           O   tau(   7) = (  -0.1879091  -0.0324655   1.0634306  )
         8           O   tau(   8) = (   0.2722444   1.1362029   0.3778415  )
         9           H   tau(   9) = (  -0.2934761   0.0445724   1.1244636  )
        10           H   tau(  10) = (   0.3778114   1.0591650   0.3168085  )
        11           O   tau(  11) = (   0.0127093  -0.0271352   0.8149194  )
        12           O   tau(  12) = (   0.0716260   1.1308726   0.6263527  )
        13           C   tau(  13) = (  -0.1181290   0.0472767   0.9048419  )
        14           C   tau(  14) = (   0.2024643   1.0564607   0.5364303  )
        15           O   tau(  15) = (   0.0814294   0.2994539   1.3053977  )
        16           O   tau(  16) = (   0.0029059   0.8042835   0.1358744  )
        17           O   tau(  17) = (   0.3107258   0.3219591   1.0847976  )
        18           O   tau(  18) = (  -0.2263905   0.7817783   0.3564745  )
        19           H   tau(  19) = (   0.4468814   0.2811566   1.0583296  )
        20           H   tau(  20) = (  -0.3625461   0.8225808   0.3829425  )
        21           C   tau(  21) = (   0.2425041   0.2571704   1.2502169  )
        22           C   tau(  22) = (  -0.1581688   0.8465670   0.1910552  )
        23           O   tau(  23) = (  -0.4587869   0.0878823   1.3036350  )
        24           O   tau(  24) = (   0.5431222   1.0158551   0.1376371  )
        25           O   tau(  25) = (   0.7666427   0.2608480   0.0852170  )
        26           O   tau(  26) = (  -0.6823074   0.8428894   1.3560551  )
        27           C   tau(  27) = (   0.3776172   0.1235659   1.3708436  )
        28           C   tau(  28) = (  -0.2932819   0.9801715   0.0704285  )
        29           N   tau(  29) = (   0.1585681   0.2668819   0.4840938  )
        30           N   tau(  30) = (  -0.0742328   0.8368555   0.9571783  )
        31           H   tau(  31) = (   0.0420395   0.2587085   0.5861678  )
        32           H   tau(  32) = (   0.0422958   0.8450289   0.8551043  )
        33           N   tau(  33) = (   0.4209117   0.3061400   0.2438556  )
        34           N   tau(  34) = (  -0.3365764   0.7975974   1.1974165  )
        35           H   tau(  35) = (   0.5400028   0.3165391   0.1480451  )
        36           H   tau(  36) = (  -0.4556675   0.7871983   1.2932270  )
        37           C   tau(  37) = (   0.1179478   0.4409799   0.3644883  )
        38           C   tau(  38) = (  -0.0336125   0.6627575   1.0767838  )
        39           H   tau(  39) = (   0.1080000   0.5626948   0.4626460  )
        40           H   tau(  40) = (  -0.0236647   0.5410426   0.9786261  )
        41           H   tau(  41) = (  -0.0213899   0.4178873   0.2962270  )
        42           H   tau(  42) = (   0.1057252   0.6858501   1.1450451  )
        43           C   tau(  43) = (   0.2800487   0.4659430   0.2161777  )
        44           C   tau(  44) = (  -0.1957134   0.6377944   1.2250944  )
        45           H   tau(  45) = (   0.2266768   0.4559545   0.0692870  )
        46           H   tau(  46) = (  -0.1423415   0.6477829   1.3719851  )
        47           H   tau(  47) = (   0.3564071   0.6011755   0.2371459  )
        48           H   tau(  48) = (  -0.2720718   0.5025619   1.2041262  )
        49           C   tau(  49) = (   0.5057811   0.3129555   0.4417350  )
        50           C   tau(  50) = (  -0.4214458   0.7907819   0.9995371  )
        51           H   tau(  51) = (   0.5789806   0.4510137   0.4565106  )
        52           H   tau(  52) = (  -0.4946453   0.6527237   0.9847615  )
        53           H   tau(  53) = (   0.6108419   0.1968090   0.4501492  )
        54           H   tau(  54) = (  -0.5265066   0.9069284   0.9911229  )
        55           C   tau(  55) = (   0.3438370   0.2902156   0.5899837  )
        56           C   tau(  56) = (  -0.2595017   0.8135218   0.8512885  )
        57           H   tau(  57) = (   0.3634792   0.1618385   0.6780856  )
        58           H   tau(  58) = (  -0.2791439   0.9418989   0.7631866  )
        59           H   tau(  59) = (   0.3296003   0.4173901   0.6812488  )
        60           H   tau(  60) = (  -0.2452650   0.6863473   0.7600233  )
        61           C   tau(  61) = (   0.1634995   0.0917803   0.3603860  )
        62           C   tau(  62) = (  -0.0791642   1.0119571   1.0808861  )
        63           H   tau(  63) = (   0.0226654   0.0781526   0.2918635  )
        64           H   tau(  64) = (   0.0616699   1.0255848   1.1494086  )
        65           H   tau(  65) = (   0.1903537  -0.0307646   0.4547704  )
        66           H   tau(  66) = (  -0.1060184   1.1345020   0.9865017  )
        67           C   tau(  67) = (   0.3242007   0.1170857   0.2095690  )
        68           C   tau(  68) = (  -0.2398654   0.9866517   1.2317031  )
        69           H   tau(  69) = (   0.4350044   0.0062963   0.2217339  )
        70           H   tau(  70) = (  -0.3506691   1.0974411   1.2195383  )
        71           H   tau(  71) = (   0.2652394   0.1197206   0.0638272  )
        72           H   tau(  72) = (  -0.1809041   0.9840168   1.3774449  )

     number of k points=     8
                       cart. coord. in units 2pi/alat
        k(    1) = (   0.0000000   0.0000000   0.0000000), wk =   0.1666667
        k(    2) = (   0.0000000   0.0000000  -0.3469157), wk =   0.1666667
        k(    3) = (   0.0000000  -0.3845591  -0.0524174), wk =   0.1666667
        k(    4) = (   0.0000000  -0.3845591  -0.3993332), wk =   0.1666667
        k(    5) = (   0.3333333   0.1170845   0.1221081), wk =   0.3333333
        k(    6) = (   0.3333333   0.1170845  -0.2248076), wk =   0.3333333
        k(    7) = (   0.3333333  -0.2674746   0.0696907), wk =   0.3333333
        k(    8) = (   0.3333333  -0.2674746  -0.2772250), wk =   0.3333333

     Dense  grid:   578537 G-vectors     FFT dimensions: (  90, 120, 128)

     Estimated max dynamical RAM per process >     425.94MB

     Estimated total allocated dynamical RAM >    3407.50MB

     Check: negative/imaginary core charge=   -0.000002    0.000000

     Initial potential from superposition of free atoms

     starting charge  227.99881, renormalised to  228.00000
     Starting wfc are  192 randomized atomic wfcs
     Checking if some PAW data can be deallocated... 

     total cpu time spent up to now is       23.5 secs

     per-process dynamical memory:   325.4 Mb

     Self-consistent Calculation

     iteration #  1     ecut=   100.00 Ry     beta=0.50
     Davidson diagonalization with overlap
     ethr =  1.00E-02,  avg # of iterations =  4.0

     total cpu time spent up to now is       73.9 secs

     total energy              =   -1185.15724893 Ry
     Harris-Foulkes estimate   =   -1188.77316595 Ry
     estimated scf accuracy    <       6.83717737 Ry

     iteration #  2     ecut=   100.00 Ry     beta=0.50
     Davidson diagonalization with overlap
     ethr =  3.00E-03,  avg # of iterations =  3.1

     total cpu time spent up to now is      106.8 secs

     total energy              =   -1186.14136097 Ry
     Harris-Foulkes estimate   =   -1186.80840480 Ry
     estimated scf accuracy    <       1.44315885 Ry

     iteration #  3     ecut=   100.00 Ry     beta=0.50
     Davidson diagonalization with overlap
     ethr =  6.33E-04,  avg # of iterations =  7.5

     total cpu time spent up to now is      152.2 secs

     total energy              =   -1186.55826175 Ry
     Harris-Foulkes estimate   =   -1186.68030270 Ry
     estimated scf accuracy    <       0.31352589 Ry

     iteration #  4     ecut=   100.00 Ry     beta=0.50
     Davidson diagonalization with overlap
     ethr =  1.38E-04,  avg # of iterations =  3.1

     total cpu time spent up to now is      182.2 secs

     total energy              =   -1186.57783473 Ry
     Harris-Foulkes estimate   =   -1186.59974554 Ry
     estimated scf accuracy    <       0.05596492 Ry

     iteration #  5     ecut=   100.00 Ry     beta=0.50
     Davidson diagonalization with overlap
     ethr =  2.45E-05,  avg # of iterations =  7.0

     total cpu time spent up to now is      234.5 secs

     total energy              =   -1186.60222410 Ry
     Harris-Foulkes estimate   =   -1186.61717572 Ry
     estimated scf accuracy    <       0.04183893 Ry

     iteration #  6     ecut=   100.00 Ry     beta=0.50
     Davidson diagonalization with overlap
     ethr =  1.84E-05,  avg # of iterations =  1.6

     total cpu time spent up to now is      261.2 secs

     total energy              =   -1186.59928293 Ry
     Harris-Foulkes estimate   =   -1186.60561307 Ry
     estimated scf accuracy    <       0.01032951 Ry

     iteration #  7     ecut=   100.00 Ry     beta=0.50
     Davidson diagonalization with overlap
     ethr =  4.53E-06,  avg # of iterations =  6.6

     total cpu time spent up to now is      313.4 secs

     total energy              =   -1186.60559978 Ry
     Harris-Foulkes estimate   =   -1186.60813419 Ry
     estimated scf accuracy    <       0.00685050 Ry

     iteration #  8     ecut=   100.00 Ry     beta=0.50
     Davidson diagonalization with overlap
     ethr =  3.00E-06,  avg # of iterations =  1.0

     total cpu time spent up to now is      339.5 secs

     total energy              =   -1186.60491507 Ry
     Harris-Foulkes estimate   =   -1186.60590664 Ry
     estimated scf accuracy    <       0.00211732 Ry

     iteration #  9     ecut=   100.00 Ry     beta=0.50
     Davidson diagonalization with overlap
     ethr =  9.29E-07,  avg # of iterations =  6.6

     total cpu time spent up to now is      384.3 secs

     total energy              =   -1186.60611360 Ry
     Harris-Foulkes estimate   =   -1186.60618788 Ry
     estimated scf accuracy    <       0.00034183 Ry

     iteration # 10     ecut=   100.00 Ry     beta=0.50
     Davidson diagonalization with overlap
     ethr =  1.50E-07,  avg # of iterations =  1.2

     total cpu time spent up to now is      410.6 secs

     total energy              =   -1186.60606138 Ry
     Harris-Foulkes estimate   =   -1186.60612634 Ry
     estimated scf accuracy    <       0.00019901 Ry

     iteration # 11     ecut=   100.00 Ry     beta=0.50
     Davidson diagonalization with overlap
     ethr =  8.73E-08,  avg # of iterations =  3.0

     total cpu time spent up to now is      442.5 secs

     total energy              =   -1186.60608851 Ry
     Harris-Foulkes estimate   =   -1186.60609553 Ry
     estimated scf accuracy    <       0.00001631 Ry

     iteration # 12     ecut=   100.00 Ry     beta=0.50
     Davidson diagonalization with overlap
     ethr =  7.15E-09,  avg # of iterations =  4.5

     total cpu time spent up to now is      481.8 secs

     total energy              =   -1186.60609366 Ry
     Harris-Foulkes estimate   =   -1186.60609388 Ry
     estimated scf accuracy    <       0.00000064 Ry

     iteration # 13     ecut=   100.00 Ry     beta=0.50
     Davidson diagonalization with overlap
     ethr =  2.79E-10,  avg # of iterations =  4.1

     total cpu time spent up to now is      519.8 secs

     total energy              =   -1186.60609389 Ry
     Harris-Foulkes estimate   =   -1186.60609388 Ry
     estimated scf accuracy    <       0.00000005 Ry

     iteration # 14     ecut=   100.00 Ry     beta=0.50
     Davidson diagonalization with overlap
     ethr =  2.14E-11,  avg # of iterations =  4.0

     total cpu time spent up to now is      566.4 secs

     total energy              =   -1186.60609387 Ry
     Harris-Foulkes estimate   =   -1186.60609394 Ry
     estimated scf accuracy    <       0.00000016 Ry

     iteration # 15     ecut=   100.00 Ry     beta=0.50
     Davidson diagonalization with overlap
     ethr =  2.14E-11,  avg # of iterations =  4.0

     total cpu time spent up to now is      605.1 secs

     End of self-consistent calculation

          k = 0.0000 0.0000 0.0000 ( 72291 PWs)   bands (ev):

   -20.9271 -20.9058 -20.8097 -20.7979 -19.7498 -19.7455 -19.5569 -19.5547
   -19.1776 -19.1681 -18.7249 -18.7242 -18.6346 -18.6342 -17.6930 -17.6746
   -17.4498 -17.4493 -17.3610 -17.3471 -13.1037 -13.0914 -13.0346 -13.0141
   -10.7966 -10.7922 -10.0911 -10.0798 -10.0417 -10.0131  -9.5024  -9.4391
    -9.0613  -9.0481  -8.2558  -8.2379  -8.0789  -8.0624  -7.8882  -7.8778
    -7.0527  -7.0288  -6.6934  -6.6722  -6.6576  -6.5853  -6.2690  -6.1887
    -5.4411  -5.4361  -4.8300  -4.7858  -4.6582  -4.6356  -4.6229  -4.5683
    -4.5348  -4.4945  -4.4843  -4.3436  -4.2607  -4.2574  -4.2146  -4.1352
    -4.1127  -4.0493  -4.0304  -4.0176  -3.9936  -3.9552  -3.9275  -3.8624
    -3.7906  -3.7028  -3.4939  -3.3927  -3.2993  -3.2849  -3.1411  -2.9935
    -2.9026  -2.8731  -2.7884  -2.6518  -2.4628  -2.4465  -2.0667  -1.9296
    -1.8809  -1.8328  -1.8133  -1.7716  -1.6613  -1.6266  -1.1136  -1.1114
    -0.9346  -0.9250  -0.8224  -0.7959  -0.6068  -0.5820  -0.1948  -0.1574
    -0.0307   0.0118   0.3892   0.4732   0.5638   0.6095   0.6662   0.7236
     1.0212   1.0228   4.3764   4.4593   4.5822   4.6109   6.4432   6.6450
     6.9619   7.2738   7.5415   7.7717   7.8199   7.8376   7.8475   8.0677
     8.1842   8.2734   8.5471   8.5587   8.6483   8.7790   8.8839   8.9543

          k = 0.0000 0.0000-0.3469 ( 72250 PWs)   bands (ev):

   -20.9235 -20.9094 -20.8045 -20.8030 -19.7553 -19.7509 -19.5501 -19.5481
   -19.1725 -19.1673 -18.7362 -18.7328 -18.6326 -18.6310 -17.6642 -17.6493
   -17.4971 -17.4854 -17.3370 -17.3358 -13.1007 -13.0950 -13.0305 -13.0185
   -10.7969 -10.7898 -10.0972 -10.0708 -10.0443 -10.0122  -9.4576  -9.4546
    -9.0619  -9.0616  -8.2851  -8.2761  -8.0727  -8.0321  -7.8953  -7.8850
    -7.0585  -7.0485  -6.6976  -6.6627  -6.6289  -6.6185  -6.2434  -6.1894
    -5.1755  -5.1449  -5.0380  -5.0127  -4.8082  -4.7714  -4.5567  -4.5467
    -4.5191  -4.4892  -4.4153  -4.3963  -4.2558  -4.2499  -4.2173  -4.1323
    -4.1228  -4.0903  -4.0542  -4.0327  -4.0024  -3.9960  -3.9330  -3.9178
    -3.7173  -3.6422  -3.4630  -3.4398  -3.3208  -3.2745  -2.9741  -2.9729
    -2.9193  -2.8892  -2.6864  -2.6363  -2.5552  -2.4850  -1.9884  -1.9533
    -1.9081  -1.8845  -1.7439  -1.7434  -1.6808  -1.6739  -1.1204  -1.0818
    -0.9069  -0.9062  -0.8225  -0.8105  -0.6138  -0.5854  -0.1886  -0.1567
    -0.0268  -0.0091   0.3698   0.4537   0.5743   0.5917   0.6995   0.7128
     1.0018   1.0134   4.3637   4.4606   4.5896   4.6190   6.5840   6.8041
     6.8828   7.0432   7.5599   7.6623   7.7565   7.7654   7.8936   8.0550
     8.2821   8.3778   8.5170   8.7324   8.7425   8.8051   8.8090   8.8464

          k = 0.0000-0.3846-0.0524 ( 72268 PWs)   bands (ev):

   -20.9239 -20.9095 -20.8046 -20.8024 -19.7546 -19.7418 -19.5613 -19.5501
   -19.1753 -19.1697 -18.7247 -18.7242 -18.6360 -18.6327 -17.6912 -17.6764
   -17.4562 -17.4431 -17.3548 -17.3530 -13.0990 -13.0961 -13.0311 -13.0172
   -10.7984 -10.7889 -10.0929 -10.0726 -10.0347 -10.0242  -9.4774  -9.4683
    -9.0690  -9.0469  -8.2531  -8.2359  -8.0856  -8.0655  -7.8943  -7.8848
    -7.0432  -7.0345  -6.6866  -6.6615  -6.6327  -6.5905  -6.2375  -6.2175
    -5.4510  -5.4433  -4.8747  -4.7947  -4.6493  -4.6479  -4.6016  -4.5921
    -4.5240  -4.4643  -4.3479  -4.3347  -4.2458  -4.2310  -4.1917  -4.1701
    -4.1517  -4.1039  -4.0614  -4.0592  -3.9488  -3.9456  -3.9263  -3.8628
    -3.7328  -3.7116  -3.5484  -3.4168  -3.3334  -3.2860  -3.0276  -3.0119
    -2.8970  -2.8901  -2.8196  -2.6789  -2.5334  -2.4766  -1.9548  -1.9395
    -1.8851  -1.8540  -1.7942  -1.7540  -1.6879  -1.6821  -1.1179  -1.0576
    -0.9313  -0.9297  -0.8176  -0.8149  -0.6154  -0.6000  -0.1752  -0.1737
    -0.0378   0.0087   0.4312   0.4396   0.5658   0.6044   0.7159   0.7448
     1.0126   1.0369   4.3264   4.4714   4.6017   4.6284   6.5352   6.5924
     7.1446   7.2843   7.5592   7.7015   7.8412   7.8417   7.8825   7.9793
     8.1909   8.2645   8.4254   8.5192   8.6383   8.6999   8.8215   8.8317

          k = 0.0000-0.3846-0.3993 ( 72328 PWs)   bands (ev):

   -20.9246 -20.9073 -20.8111 -20.7973 -19.7626 -19.7446 -19.5531 -19.5448
   -19.1781 -19.1611 -18.7356 -18.7334 -18.6328 -18.6307 -17.6664 -17.6469
   -17.4941 -17.4885 -17.3447 -17.3282 -13.1048 -13.0902 -13.0294 -13.0197
   -10.7976 -10.7879 -10.0926 -10.0758 -10.0430 -10.0115  -9.4672  -9.4473
    -9.0833  -9.0472  -8.3129  -8.2512  -8.0535  -8.0507  -7.8995  -7.8945
    -7.0596  -7.0431  -6.7063  -6.6416  -6.6241  -6.6021  -6.2290  -6.2051
    -5.1797  -5.1653  -5.0427  -4.9836  -4.9348  -4.6365  -4.6205  -4.6048
    -4.4599  -4.4249  -4.4163  -4.3248  -4.2255  -4.2132  -4.1862  -4.1708
    -4.1581  -4.1518  -4.0779  -4.0374  -3.9964  -3.9913  -3.9125  -3.8714
    -3.7073  -3.6483  -3.4672  -3.4560  -3.3864  -3.2357  -3.0063  -3.0034
    -2.9193  -2.8414  -2.8005  -2.6805  -2.4752  -2.4681  -2.0249  -2.0140
    -1.9062  -1.8402  -1.7612  -1.7373  -1.6744  -1.6563  -1.0841  -1.0733
    -0.9308  -0.9054  -0.8281  -0.7984  -0.6176  -0.6118  -0.1886  -0.1730
    -0.0500   0.0216   0.4065   0.4304   0.5711   0.5892   0.7278   0.7521
     1.0059   1.0174   4.3321   4.4728   4.5487   4.6805   6.5688   6.7064
     6.9450   7.4571   7.5459   7.6515   7.7315   7.8072   7.8143   7.9951
     8.2486   8.2831   8.3500   8.6127   8.7552   8.7796   8.7939   8.8996

          k = 0.3333 0.1171 0.1221 ( 72322 PWs)   bands (ev):

   -20.9146 -20.8945 -20.8209 -20.8110 -19.7510 -19.7435 -19.5485 -19.5460
   -19.1832 -19.1754 -18.7445 -18.7406 -18.6237 -18.6226 -17.6808 -17.6673
   -17.4897 -17.4859 -17.3269 -17.3156 -13.1036 -13.0970 -13.0345 -13.0225
   -10.7937 -10.7885 -10.0937 -10.0631 -10.0260  -9.9975  -9.4676  -9.4481
    -9.0639  -9.0286  -8.2675  -8.2353  -8.0855  -8.0367  -7.8996  -7.8945
    -7.0680  -7.0310  -6.6990  -6.6519  -6.6389  -6.6252  -6.3278  -6.2602
    -5.3234  -5.2923  -4.9479  -4.9077  -4.8291  -4.7356  -4.5419  -4.5014
    -4.4964  -4.4730  -4.4257  -4.3443  -4.2675  -4.2263  -4.1840  -4.1660
    -4.1316  -4.0911  -4.0544  -4.0333  -4.0091  -3.9813  -3.9522  -3.9064
    -3.7272  -3.6820  -3.5605  -3.4190  -3.3174  -3.2519  -3.0086  -2.9720
    -2.9138  -2.8328  -2.7353  -2.6483  -2.4849  -2.4583  -1.9835  -1.9412
    -1.9192  -1.8387  -1.7486  -1.7295  -1.6932  -1.6520  -1.0801  -1.0281
    -0.9341  -0.9085  -0.8427  -0.8276  -0.6177  -0.6126  -0.1790  -0.1562
    -0.0314   0.0072   0.3905   0.4578   0.5433   0.5560   0.7018   0.7225
     0.9929   1.0237   4.3574   4.4853   4.5345   4.5675   6.5980   6.6766
     7.1155   7.4262   7.5926   7.7175   7.7490   7.8489   7.8841   7.9363
     8.0868   8.1573   8.2440   8.4546   8.6101   8.7134   8.7854   8.8253

          k = 0.3333 0.1171-0.2248 ( 72357 PWs)   bands (ev):

   -20.9125 -20.8970 -20.8179 -20.8134 -19.7519 -19.7437 -19.5483 -19.5456
   -19.1848 -19.1787 -18.7363 -18.7338 -18.6251 -18.6248 -17.6993 -17.6885
   -17.4661 -17.4580 -17.3311 -17.3291 -13.1053 -13.0946 -13.0375 -13.0204
   -10.8019 -10.7873 -10.0914 -10.0666 -10.0215  -9.9973  -9.4578  -9.4296
    -9.0567  -9.0425  -8.2957  -8.2328  -8.1077  -8.0278  -7.9001  -7.8808
    -7.0613  -7.0336  -6.6947  -6.6597  -6.6446  -6.6128  -6.3009  -6.2519
    -5.4464  -5.4271  -4.8632  -4.7752  -4.7251  -4.6934  -4.5829  -4.5263
    -4.5087  -4.4565  -4.4242  -4.3585  -4.2991  -4.2616  -4.1676  -4.1307
    -4.1267  -4.0827  -4.0718  -4.0356  -3.9999  -3.9775  -3.9483  -3.8927
    -3.7253  -3.6786  -3.4959  -3.4851  -3.3668  -3.2500  -3.0665  -2.9901
    -2.9238  -2.8093  -2.6907  -2.6706  -2.5548  -2.4747  -1.9529  -1.9115
    -1.8634  -1.8280  -1.7515  -1.7383  -1.6744  -1.6543  -1.0756  -1.0389
    -0.9490  -0.9134  -0.8471  -0.8239  -0.6237  -0.5944  -0.1824  -0.1579
    -0.0351   0.0196   0.3802   0.4619   0.5314   0.5465   0.7032   0.7172
     0.9882   1.0221   4.3691   4.4653   4.5223   4.5992   6.5250   6.8765
     6.9878   7.3584   7.6059   7.6912   7.7526   7.8157   7.8887   7.9564
     8.1919   8.2103   8.4552   8.5184   8.6045   8.6766   8.7383   8.8559

          k = 0.3333-0.2675 0.0697 ( 72358 PWs)   bands (ev):

   -20.9131 -20.8965 -20.8182 -20.8131 -19.7512 -19.7438 -19.5511 -19.5437
   -19.1826 -19.1754 -18.7432 -18.7412 -18.6240 -18.6225 -17.6834 -17.6650
   -17.4951 -17.4806 -17.3235 -17.3188 -13.1042 -13.0959 -13.0338 -13.0237
   -10.7925 -10.7884 -10.0876 -10.0697 -10.0212 -10.0046  -9.4591  -9.4562
    -9.0570  -9.0379  -8.2396  -8.2334  -8.1106  -8.0810  -7.8903  -7.8748
    -7.0564  -7.0402  -6.6818  -6.6555  -6.6330  -6.6038  -6.3031  -6.2842
    -5.3253  -5.2815  -4.9821  -4.9285  -4.8725  -4.7544  -4.5984  -4.5403
    -4.4668  -4.3944  -4.3693  -4.3343  -4.2722  -4.2469  -4.1995  -4.1599
    -4.1440  -4.1193  -4.0742  -4.0649  -3.9800  -3.9315  -3.8953  -3.8623
    -3.7508  -3.6732  -3.5093  -3.4270  -3.3387  -3.2307  -3.0430  -2.9945
    -2.9373  -2.8468  -2.7194  -2.6261  -2.5116  -2.4757  -1.9928  -1.9009
    -1.8861  -1.8440  -1.7643  -1.7302  -1.7088  -1.6682  -1.0602  -1.0388
    -0.9517  -0.9264  -0.8622  -0.8088  -0.6358  -0.6038  -0.1900  -0.1537
    -0.0471   0.0254   0.4020   0.4430   0.5372   0.5626   0.7209   0.7480
     1.0087   1.0364   4.3666   4.4603   4.5256   4.5841   6.6191   6.6378
     7.1528   7.3735   7.6146   7.6525   7.8449   7.9197   7.9701   8.0225
     8.0945   8.1579   8.3097   8.3767   8.4997   8.6304   8.7031   8.7952

          k = 0.3333-0.2675-0.2772 ( 72373 PWs)   bands (ev):

   -20.9133 -20.8955 -20.8218 -20.8100 -19.7526 -19.7437 -19.5493 -19.5447
   -19.1904 -19.1725 -18.7375 -18.7320 -18.6263 -18.6238 -17.7056 -17.6821
   -17.4648 -17.4596 -17.3371 -17.3230 -13.1047 -13.0955 -13.0368 -13.0208
   -10.7995 -10.7887 -10.0970 -10.0612 -10.0242  -9.9960  -9.4597  -9.4288
    -9.0566  -9.0440  -8.2722  -8.2427  -8.1057  -8.0738  -7.8982  -7.8605
    -7.0594  -7.0336  -6.6726  -6.6609  -6.6481  -6.5975  -6.2986  -6.2522
    -5.4392  -5.4075  -4.9720  -4.8085  -4.7530  -4.7216  -4.5653  -4.5259
    -4.4756  -4.4502  -4.3915  -4.3427  -4.2997  -4.2572  -4.1850  -4.1537
    -4.1394  -4.0809  -4.0551  -4.0334  -4.0177  -3.9162  -3.8878  -3.8581
    -3.7277  -3.6813  -3.4803  -3.4701  -3.3273  -3.3058  -3.0707  -2.9954
    -2.9060  -2.8921  -2.7797  -2.6595  -2.5062  -2.4387  -1.9412  -1.8926
    -1.8763  -1.8634  -1.7652  -1.7251  -1.6820  -1.6547  -1.0707  -1.0435
    -0.9545  -0.9320  -0.8441  -0.8312  -0.6209  -0.6034  -0.1833  -0.1560
    -0.0333   0.0140   0.3910   0.4455   0.5275   0.5570   0.7185   0.7441
     1.0106   1.0304   4.3537   4.4839   4.5168   4.5925   6.6027   6.6915
     7.1522   7.2900   7.5561   7.7583   7.8087   7.8250   7.9168   8.0123
     8.0760   8.2283   8.4215   8.5576   8.5833   8.6424   8.7193   8.7946

     highest occupied, lowest unoccupied level (ev):     1.0369    4.3264

!    total energy              =   -1186.60609389 Ry
     Harris-Foulkes estimate   =   -1186.60609389 Ry
     estimated scf accuracy    <          4.1E-09 Ry

     total all-electron energy =     -4408.633467 Ry

     The total energy is the sum of the following terms:

     one-electron contribution =    -593.63432914 Ry
     hartree contribution      =     389.73103594 Ry
     xc contribution           =    -246.28709828 Ry
     ewald contribution        =    -417.73472276 Ry
     Dispersion Correction     =      -0.33721505 Ry
     one-center paw contrib.   =    -318.34376460 Ry

     convergence has been achieved in  15 iterations

     Forces acting on atoms (cartesian axes, Ry/au):

     atom    1 type  4   force =     0.00049932    0.00058819    0.00271500
     atom    2 type  4   force =    -0.00049932   -0.00058819   -0.00271500
     atom    3 type  4   force =    -0.00128539    0.00076674   -0.00036812
     atom    4 type  4   force =     0.00128539   -0.00076674    0.00036812
     atom    5 type  1   force =     0.00203198   -0.00096631    0.00029052
     atom    6 type  1   force =    -0.00203198    0.00096631   -0.00029052
     atom    7 type  4   force =    -0.00087838   -0.00057103    0.00119228
     atom    8 type  4   force =     0.00087838    0.00057103   -0.00119228
     atom    9 type  3   force =     0.00073093   -0.00026626   -0.00079569
     atom   10 type  3   force =    -0.00073093    0.00026626    0.00079569
     atom   11 type  4   force =     0.00000435    0.00044498   -0.00078871
     atom   12 type  4   force =    -0.00000435   -0.00044498    0.00078871
     atom   13 type  1   force =    -0.00012625    0.00104726   -0.00071193
     atom   14 type  1   force =     0.00012625   -0.00104726    0.00071193
     atom   15 type  4   force =     0.00035997   -0.00032047   -0.00025576
     atom   16 type  4   force =    -0.00035997    0.00032047    0.00025576
     atom   17 type  4   force =    -0.00026199    0.00073339   -0.00065450
     atom   18 type  4   force =     0.00026199   -0.00073339    0.00065450
     atom   19 type  3   force =    -0.00076572   -0.00010281    0.00051711
     atom   20 type  3   force =     0.00076572    0.00010281   -0.00051711
     atom   21 type  1   force =    -0.00133766   -0.00022880   -0.00003110
     atom   22 type  1   force =     0.00133766    0.00022880    0.00003110
     atom   23 type  4   force =    -0.00102022    0.00015229    0.00208288
     atom   24 type  4   force =     0.00102022   -0.00015229   -0.00208288
     atom   25 type  4   force =    -0.00025803   -0.00008558    0.00101965
     atom   26 type  4   force =     0.00025803    0.00008558   -0.00101965
     atom   27 type  1   force =     0.00170247   -0.00054791   -0.00174837
     atom   28 type  1   force =    -0.00170247    0.00054791    0.00174837
     atom   29 type  2   force =     0.00047467   -0.00112097    0.00016349
     atom   30 type  2   force =    -0.00047467    0.00112097   -0.00016349
     atom   31 type  3   force =    -0.00047612   -0.00088779   -0.00005648
     atom   32 type  3   force =     0.00047612    0.00088779    0.00005648
     atom   33 type  2   force =    -0.00044247   -0.00015260    0.00011843
     atom   34 type  2   force =     0.00044247    0.00015260   -0.00011843
     atom   35 type  3   force =     0.00101906    0.00015503   -0.00124300
     atom   36 type  3   force =    -0.00101906   -0.00015503    0.00124300
     atom   37 type  1   force =     0.00072850    0.00075304   -0.00075358
     atom   38 type  1   force =    -0.00072850   -0.00075304    0.00075358
     atom   39 type  3   force =     0.00050110    0.00002740    0.00022384
     atom   40 type  3   force =    -0.00050110   -0.00002740   -0.00022384
     atom   41 type  3   force =     0.00093759   -0.00032003   -0.00063340
     atom   42 type  3   force =    -0.00093759    0.00032003    0.00063340
     atom   43 type  1   force =     0.00007218    0.00010898   -0.00007943
     atom   44 type  1   force =    -0.00007218   -0.00010898    0.00007943
     atom   45 type  3   force =     0.00013204   -0.00007806   -0.00065931
     atom   46 type  3   force =    -0.00013204    0.00007806    0.00065931
     atom   47 type  3   force =     0.00059369    0.00037372   -0.00040997
     atom   48 type  3   force =    -0.00059369   -0.00037372    0.00040997
     atom   49 type  1   force =     0.00043089   -0.00021411   -0.00099408
     atom   50 type  1   force =    -0.00043089    0.00021411    0.00099408
     atom   51 type  3   force =    -0.00008557    0.00009201   -0.00026693
     atom   52 type  3   force =     0.00008557   -0.00009201    0.00026693
     atom   53 type  3   force =    -0.00070704   -0.00077984   -0.00024692
     atom   54 type  3   force =     0.00070704    0.00077984    0.00024692
     atom   55 type  1   force =    -0.00193010    0.00004908   -0.00035354
     atom   56 type  1   force =     0.00193010   -0.00004908    0.00035354
     atom   57 type  3   force =    -0.00001548   -0.00009877    0.00018363
     atom   58 type  3   force =     0.00001548    0.00009877   -0.00018363
     atom   59 type  3   force =     0.00035592    0.00046774    0.00016810
     atom   60 type  3   force =    -0.00035592   -0.00046774   -0.00016810
     atom   61 type  1   force =     0.00043385    0.00013368   -0.00105849
     atom   62 type  1   force =    -0.00043385   -0.00013368    0.00105849
     atom   63 type  3   force =     0.00024897    0.00052115   -0.00035805
     atom   64 type  3   force =    -0.00024897   -0.00052115    0.00035805
     atom   65 type  3   force =    -0.00016119   -0.00011817    0.00102460
     atom   66 type  3   force =     0.00016119    0.00011817   -0.00102460
     atom   67 type  1   force =    -0.00016463   -0.00076089    0.00112710
     atom   68 type  1   force =     0.00016463    0.00076089   -0.00112710
     atom   69 type  3   force =     0.00035790   -0.00006135    0.00100054
     atom   70 type  3   force =    -0.00035790    0.00006135   -0.00100054
     atom   71 type  3   force =    -0.00017589    0.00039721   -0.00013072
     atom   72 type  3   force =     0.00017589   -0.00039721    0.00013072

     Total force =     0.011063     Total SCF correction =     0.000143


     Computing stress (Cartesian axis) and pressure

          total   stress  (Ry/bohr**3)                   (kbar)     P=   -6.33
  -0.00004837   0.00001217  -0.00000828         -7.12      1.79     -1.22
   0.00001217  -0.00005137  -0.00000499          1.79     -7.56     -0.73
  -0.00000828  -0.00000499  -0.00002939         -1.22     -0.73     -4.32


     Writing output data file scf.save
 
     init_run     :     21.98s CPU     22.87s WALL (       1 calls)
     electrons    :    554.05s CPU    581.75s WALL (       1 calls)
     forces       :     11.59s CPU     11.72s WALL (       1 calls)
     stress       :     48.65s CPU     48.87s WALL (       1 calls)

     Called by init_run:
     wfcinit      :     13.43s CPU     14.15s WALL (       1 calls)
     potinit      :      2.98s CPU      3.03s WALL (       1 calls)

     Called by electrons:
     c_bands      :    488.11s CPU    511.58s WALL (      15 calls)
     sum_band     :     57.69s CPU     61.08s WALL (      15 calls)
     v_of_rho     :      1.39s CPU      1.55s WALL (      16 calls)
     newd         :      2.83s CPU      3.40s WALL (      16 calls)
     PAW_pot      :      3.44s CPU      3.44s WALL (      16 calls)
     mix_rho      :      0.31s CPU      0.33s WALL (      15 calls)

     Called by c_bands:
     init_us_2    :      4.21s CPU      4.23s WALL (     264 calls)
     cegterg      :    473.05s CPU    496.49s WALL (     120 calls)

     Called by sum_band:
     sum_band:bec :      0.04s CPU      0.04s WALL (     120 calls)
     addusdens    :      3.04s CPU      3.57s WALL (      15 calls)

     Called by *egterg:
     h_psi        :    297.13s CPU    314.92s WALL (     620 calls)
     s_psi        :     36.13s CPU     36.14s WALL (     620 calls)
     g_psi        :      1.80s CPU      1.80s WALL (     492 calls)
     cdiaghg      :     29.70s CPU     29.70s WALL (     612 calls)

     Called by h_psi:
     h_psi:pot    :    294.69s CPU    312.43s WALL (     620 calls)
     h_psi:calbec :     39.36s CPU     39.50s WALL (     620 calls)
     vloc_psi     :    219.26s CPU    236.85s WALL (     620 calls)
     add_vuspsi   :     36.07s CPU     36.08s WALL (     620 calls)

     General routines
     calbec       :     57.10s CPU     57.29s WALL (     780 calls)
     fft          :      2.72s CPU      3.04s WALL (     232 calls)
     fftw         :    235.61s CPU    255.90s WALL (  111046 calls)
 
     Parallel routines
     fft_scatter  :     81.90s CPU     98.05s WALL (  111278 calls)
 
     PWSCF        : 10m41.28s CPU    11m40.87s WALL

 
   This run was terminated on:   5:20:38   4Nov2017            

=------------------------------------------------------------------------------=
   JOB DONE.
=------------------------------------------------------------------------------=
