
     Program PWSCF v.6.1 (svn rev. 13369) starts on 13Nov2017 at 12:24: 3 

     This program is part of the open-source Quantum ESPRESSO suite
     for quantum simulation of materials; please cite
         "P. Giannozzi et al., J. Phys.:Condens. Matter 21 395502 (2009);
          URL http://www.quantum-espresso.org", 
     in publications or presentations arising from this work. More details at
     http://www.quantum-espresso.org/quote

     Parallel version (MPI), running on     8 processors
     R & G space division:  proc/nbgrp/npool/nimage =       8
     Waiting for input...
     Reading input from standard input

     Current dimensions of program PWSCF are:
     Max number of different atomic species (ntypx) = 10
     Max number of k-points (npk) =  40000
     Max angular momentum in pseudopotentials (lmaxx) =  3
               file C.pbe-n-kjpaw_psl.0.1.UPF: wavefunction(s)  2P renormalized
               file N.pbe-n-kjpaw_psl.0.1.UPF: wavefunction(s)  2P renormalized
               file H.pbe-kjpaw_psl.0.1.UPF: wavefunction(s)  1S renormalized
               file O.pbe-n-kjpaw_psl.0.1.UPF: wavefunction(s)  2P renormalized

     -------------------------------------
     Parameters for Dispersion Correction:
     -------------------------------------
       atom      VdW radius       C_6     

        C          2.744         60.710
        N          2.640         42.670
        H          1.892          4.857
        O          2.536         24.284

     Subspace diagonalization in iterative solution of the eigenvalue problem:
     a serial algorithm will be used

 
     Parallelization info
     --------------------
     sticks:   dense  smooth     PW     G-vecs:    dense   smooth      PW
     Min        6445    6445   1674               338998   338998   44931
     Max        6447    6447   1676               338999   338999   44932
     Sum       51573   51573  13395              2711991  2711991  359455
 


     bravais-lattice index     =            0
     lattice parameter (alat)  =      29.5591  a.u.
     unit-cell volume          =   20073.1567 (a.u.)^3
     number of atoms/cell      =          190
     number of atomic types    =            4
     number of electrons       =       600.00
     number of Kohn-Sham states=          360
     kinetic-energy cutoff     =     100.0000  Ry
     charge density cutoff     =     400.0000  Ry
     convergence threshold     =      1.0E-08
     mixing beta               =       0.5000
     number of iterations used =            8  plain     mixing
     Exchange-correlation      =  SLA  PW   PBX  PBC ( 1  4  3  4 0 0)

     celldm(1)=  29.559096  celldm(2)=   0.000000  celldm(3)=   0.000000
     celldm(4)=   0.000000  celldm(5)=   0.000000  celldm(6)=   0.000000

     crystal axes: (cart. coord. in units of alat)
               a(1) = (   1.000000   0.000000   0.000000 )  
               a(2) = (   0.000000   1.854366   0.000000 )  
               a(3) = (   0.000000   0.000000   0.419128 )  

     reciprocal axes: (cart. coord. in units 2 pi/alat)
               b(1) = (  1.000000  0.000000  0.000000 )  
               b(2) = (  0.000000  0.539268  0.000000 )  
               b(3) = (  0.000000  0.000000  2.385906 )  


     PseudoPot. # 1 for  C read from file:
     /scratch/ahofstet/pseudo/C.pbe-n-kjpaw_psl.0.1.UPF
     MD5 check sum: 430fe95172b1e11ef3f8ed03bac87931
     Pseudo is Projector augmented-wave + core cor, Zval =  4.0
     Generated using "atomic" code by A. Dal Corso  v.5.0.99 svn rev. 10869
     Shape of augmentation charge: BESSEL
     Using radial grid of 1073 points,  4 beta functions with: 
                l(1) =   0
                l(2) =   0
                l(3) =   1
                l(4) =   1
     Q(r) pseudized with 0 coefficients 


     PseudoPot. # 2 for  N read from file:
     /scratch/ahofstet/pseudo/N.pbe-n-kjpaw_psl.0.1.UPF
     MD5 check sum: f73187c8b701007e77325f868c9291d7
     Pseudo is Projector augmented-wave + core cor, Zval =  5.0
     Generated using "atomic" code by A. Dal Corso  v.5.0.99 svn rev. 10869
     Shape of augmentation charge: PSQ
     Using radial grid of 1085 points,  4 beta functions with: 
                l(1) =   0
                l(2) =   0
                l(3) =   1
                l(4) =   1
     Q(r) pseudized with 0 coefficients 


     PseudoPot. # 3 for  H read from file:
     /scratch/ahofstet/pseudo/H.pbe-kjpaw_psl.0.1.UPF
     MD5 check sum: 94e484f906d9e9773b2f6e52662335b2
     Pseudo is Projector augmented-wave, Zval =  1.0
     Generated using "atomic" code by A. Dal Corso  v.5.0.99 svn rev. 10869
     Shape of augmentation charge: PSQ
     Using radial grid of  929 points,  2 beta functions with: 
                l(1) =   0
                l(2) =   0
     Q(r) pseudized with 0 coefficients 


     PseudoPot. # 4 for  O read from file:
     /scratch/ahofstet/pseudo/O.pbe-n-kjpaw_psl.0.1.UPF
     MD5 check sum: 3f94a2996a3169367d6eb21d9b593f20
     Pseudo is Projector augmented-wave + core cor, Zval =  6.0
     Generated using "atomic" code by A. Dal Corso  v.5.0.99 svn rev. 10869
     Shape of augmentation charge: BESSEL
     Using radial grid of 1095 points,  4 beta functions with: 
                l(1) =   0
                l(2) =   0
                l(3) =   1
                l(4) =   1
     Q(r) pseudized with 0 coefficients 


     atomic species   valence    mass     pseudopotential
        C              4.00    12.01070      C( 1.00)
        N              5.00    14.00670      N( 1.00)
        H              1.00     1.00794      H( 1.00)
        O              6.00    15.99940      O( 1.00)

      2 Sym. Ops. (no inversion) found ( 1 have fractional translation)



   Cartesian axes

     site n.     atom                  positions (alat units)
         1           O   tau(   1) = (   0.3494970   0.3261355   0.2125002  )
         2           O   tau(   2) = (   0.6569475   1.5246484   0.2044356  )
         3           O   tau(   3) = (   0.9064120   0.7833346   0.3150175  )
         4           O   tau(   4) = (   0.5935880   0.1438487   0.3150175  )
         5           O   tau(   5) = (   0.3431363   1.2575697   0.4139480  )
         6           O   tau(   6) = (   0.6580317   0.5942547   0.4123451  )
         7           O   tau(   7) = (   0.8419683   0.3329285   0.4123451  )
         8           O   tau(   8) = (   0.1568637   1.5239800   0.4139480  )
         9           O   tau(   9) = (   0.8430525   1.2569013   0.2044356  )
        10           O   tau(  10) = (   0.1505030   0.6010477   0.2125002  )
        11           O   tau(  11) = (   0.6517499   0.3090665   0.1977583  )
        12           O   tau(  12) = (   0.3564015   1.5401168   0.2073910  )
        13           O   tau(  13) = (   0.6046570   0.7702260   0.3065566  )
        14           O   tau(  14) = (   0.8953430   0.1569572   0.3065566  )
        15           O   tau(  15) = (   0.6435033   1.2421111   0.4170782  )
        16           O   tau(  16) = (   0.3586206   0.6063244   0.4196773  )
        17           O   tau(  17) = (   0.1413794   0.3208589   0.4196773  )
        18           O   tau(  18) = (   0.8564967   1.5394386   0.4170782  )
        19           O   tau(  19) = (   0.1435985   1.2414329   0.2073910  )
        20           O   tau(  20) = (   0.8482501   0.6181168   0.1977583  )
        21           O   tau(  21) = (   0.4954017   0.4193320   0.3980198  )
        22           O   tau(  22) = (   0.4996422   1.4365545   0.3952243  )
        23           O   tau(  23) = (   0.7572936   0.8645963   0.0771837  )
        24           O   tau(  24) = (   0.7427064   0.0625869   0.0771837  )
        25           O   tau(  25) = (   0.5004657   1.3452084   0.1854562  )
        26           O   tau(  26) = (   0.4990262   0.5113756   0.1830185  )
        27           O   tau(  27) = (   1.0009738   0.4158076   0.1830185  )
        28           O   tau(  28) = (  -0.0004657   1.4363413   0.1854562  )
        29           O   tau(  29) = (   1.0003578   1.3449952   0.3952243  )
        30           O   tau(  30) = (   0.0045983   0.5078512   0.3980198  )
        31           N   tau(  31) = (   0.4198375   0.3598048   0.0887147  )
        32           N   tau(  32) = (   0.5809237   1.4931674   0.0834638  )
        33           N   tau(  33) = (   0.8332128   0.8210635   0.1937788  )
        34           N   tau(  34) = (   0.6667872   0.1061198   0.1937788  )
        35           N   tau(  35) = (   0.4191146   1.2888005   0.2928882  )
        36           N   tau(  36) = (   0.5807265   0.5624794   0.2923289  )
        37           N   tau(  37) = (   0.9192735   0.3647039   0.2923289  )
        38           N   tau(  38) = (   0.0808854   1.4927491   0.2928882  )
        39           N   tau(  39) = (   0.9190763   1.2883823   0.0834638  )
        40           N   tau(  40) = (   0.0801625   0.5673784   0.0887147  )
        41           N   tau(  41) = (   0.5736779   0.3537079   0.0826874  )
        42           N   tau(  42) = (   0.4268875   1.5002569   0.0851765  )
        43           N   tau(  43) = (   0.6800341   0.8062112   0.1865955  )
        44           N   tau(  44) = (   0.8199659   0.1209720   0.1865955  )
        45           N   tau(  45) = (   0.5731420   1.2816484   0.2946694  )
        46           N   tau(  46) = (   0.4269178   0.5715517   0.2946970  )
        47           N   tau(  47) = (   0.0730822   0.3556315   0.2946970  )
        48           N   tau(  48) = (   0.9268580   1.4999013   0.2946694  )
        49           N   tau(  49) = (   0.0731125   1.2812928   0.0851765  )
        50           N   tau(  50) = (   0.9263221   0.5734753   0.0826874  )
        51           C   tau(  51) = (   0.4165787   0.3306752   0.1727478  )
        52           C   tau(  52) = (   0.5885105   1.5231610   0.1667436  )
        53           C   tau(  53) = (   0.8387186   0.7873806   0.2761909  )
        54           C   tau(  54) = (   0.6612814   0.1398027   0.2761909  )
        55           C   tau(  55) = (   0.4115296   1.2587856   0.3761860  )
        56           C   tau(  56) = (   0.5891643   0.5933617   0.3750984  )
        57           C   tau(  57) = (   0.9108357   0.3338216   0.3750984  )
        58           C   tau(  58) = (   0.0884704   1.5227641   0.3761860  )
        59           C   tau(  59) = (   0.9114895   1.2583887   0.1667436  )
        60           C   tau(  60) = (   0.0834213   0.5965080   0.1727478  )
        61           C   tau(  61) = (   0.5001311   0.3032628   0.2119509  )
        62           C   tau(  62) = (   0.5079605   1.5571244   0.2070032  )
        63           C   tau(  63) = (   0.7565136   0.7544094   0.3137119  )
        64           C   tau(  64) = (   0.7434864   0.1727739   0.3137119  )
        65           C   tau(  65) = (   0.4920007   1.2244279  -0.0028886  )
        66           C   tau(  66) = (   0.5095378   0.6290950  -0.0042844  )
        67           C   tau(  67) = (   0.9904622   0.2980882  -0.0042844  )
        68           C   tau(  68) = (   0.0079993   1.5571218  -0.0028886  )
        69           C   tau(  69) = (   0.9920395   1.2244253   0.2070032  )
        70           C   tau(  70) = (  -0.0001311   0.6239205   0.2119509  )
        71           H   tau(  71) = (   0.5046366   0.3311519   0.2759436  )
        72           H   tau(  72) = (   0.5080089   1.5407367   0.2749557  )
        73           H   tau(  73) = (   0.7532584   0.7719032   0.3812074  )
        74           H   tau(  74) = (   0.7467416   0.1552801   0.3812074  )
        75           H   tau(  75) = (   0.4918857   1.2401662   0.0652138  )
        76           H   tau(  76) = (   0.5108557   0.6175277   0.0645784  )
        77           H   tau(  77) = (   0.9891443   0.3096555   0.0645784  )
        78           H   tau(  78) = (   0.0081143   1.5413835   0.0652138  )
        79           H   tau(  79) = (   0.9919911   1.2408130   0.2749557  )
        80           H   tau(  80) = (  -0.0046366   0.5960313   0.2759436  )
        81           H   tau(  81) = (   0.4977193   0.2334744   0.2220175  )
        82           H   tau(  82) = (   0.5112621   1.6275094   0.2025362  )
        83           H   tau(  83) = (   0.7610561   0.6840998   0.3104811  )
        84           H   tau(  84) = (   0.7389439   0.2430835   0.3104811  )
        85           H   tau(  85) = (   0.4887063   1.1540923  -0.0081261  )
        86           H   tau(  86) = (   0.5135485   0.6987048  -0.0153450  )
        87           H   tau(  87) = (   0.9864515   0.2284785  -0.0153450  )
        88           H   tau(  88) = (   0.0112937   1.6274573  -0.0081261  )
        89           H   tau(  89) = (   0.9887379   1.1540402   0.2025362  )
        90           H   tau(  90) = (   0.0022807   0.6937089   0.2220175  )
        91           C   tau(  91) = (   0.5816503   0.3221327   0.1648887  )
        92           C   tau(  92) = (   0.4235784   1.5312844   0.1684705  )
        93           C   tau(  93) = (   0.6738289   0.7780727   0.2708488  )
        94           C   tau(  94) = (   0.8261711   0.1491106   0.2708488  )
        95           C   tau(  95) = (   0.5763965   1.2506597   0.3779860  )
        96           C   tau(  96) = (   0.4250021   0.6006415   0.3790027  )
        97           C   tau(  97) = (   0.0749979   0.3265417   0.3790027  )
        98           C   tau(  98) = (   0.9236035   1.5308900   0.3779860  )
        99           C   tau(  99) = (   0.0764216   1.2502652   0.1684705  )
       100           C   tau( 100) = (   0.9183497   0.6050505   0.1648887  )
       101           C   tau( 101) = (   0.4958994   0.3803202   0.0468085  )
       102           C   tau( 102) = (   0.5024013   1.4744065   0.0446890  )
       103           C   tau( 103) = (   0.7569697   0.8319420   0.1482065  )
       104           C   tau( 104) = (   0.7430303   0.0952413   0.1482065  )
       105           C   tau( 105) = (   0.4976822   1.3074311   0.2540981  )
       106           C   tau( 106) = (   0.5017857   0.5468641   0.2529424  )
       107           C   tau( 107) = (   0.9982143   0.3803191   0.2529424  )
       108           C   tau( 108) = (   0.0023178   1.4741185   0.2540981  )
       109           C   tau( 109) = (   0.9975987   1.3071432   0.0446890  )
       110           C   tau( 110) = (   0.0041006   0.5468631   0.0468085  )
       111           C   tau( 111) = (   0.3408019   0.3888422   0.0471646  )
       112           C   tau( 112) = (   0.6577381   1.4612368   0.0399669  )
       113           C   tau( 113) = (   0.9102136   0.8521899   0.1503617  )
       114           C   tau( 114) = (   0.5897864   0.0749933   0.1503617  )
       115           C   tau( 115) = (   0.3423717   1.3209784   0.2494867  )
       116           C   tau( 116) = (   0.6558449   0.5284101   0.2478912  )
       117           C   tau( 117) = (   0.8441551   0.3987732   0.2478912  )
       118           C   tau( 118) = (   0.1576283   1.4605713   0.2494867  )
       119           C   tau( 119) = (   0.8422619   1.3203128   0.0399669  )
       120           C   tau( 120) = (   0.1591981   0.5383410   0.0471646  )
       121           H   tau( 121) = (   0.2871730   0.3530429   0.0740335  )
       122           H   tau( 122) = (   0.7127648   1.4981995   0.0621010  )
       123           H   tau( 123) = (   0.9644525   0.8408465   0.1929531  )
       124           H   tau( 124) = (   0.5355475   0.0863367   0.1929531  )
       125           H   tau( 125) = (   0.2872540   1.2841758   0.2716767  )
       126           H   tau( 126) = (   0.7130783   0.5566982   0.2761246  )
       127           H   tau( 127) = (   0.7869217   0.3704850   0.2761246  )
       128           H   tau( 128) = (   0.2127460   1.4973739   0.2716767  )
       129           H   tau( 129) = (   0.7872352   1.2833502   0.0621010  )
       130           H   tau( 130) = (   0.2128270   0.5741403   0.0740335  )
       131           H   tau( 131) = (   0.3458768   0.3766721   0.3976958  )
       132           H   tau( 132) = (   0.6494029   1.4693597   0.3902545  )
       133           H   tau( 133) = (   0.9182561   0.8186742   0.0893433  )
       134           H   tau( 134) = (   0.5817439   0.1085090   0.0893433  )
       135           H   tau( 135) = (   0.3506003   1.3128615   0.1806338  )
       136           H   tau( 136) = (   0.6519111   0.5446627   0.1800790  )
       137           H   tau( 137) = (   0.8480889   0.3825205   0.1800790  )
       138           H   tau( 138) = (   0.1493997   1.4686882   0.1806338  )
       139           H   tau( 139) = (   0.8505971   1.3121900   0.3902545  )
       140           H   tau( 140) = (   0.1541232   0.5505111   0.3976958  )
       141           H   tau( 141) = (   0.3317627   0.4576658   0.0577018  )
       142           H   tau( 142) = (   0.6672531   1.3931529   0.0542252  )
       143           H   tau( 143) = (   0.9037752   0.9207881   0.1371106  )
       144           H   tau( 144) = (   0.5962248   0.0063951   0.1371106  )
       145           H   tau( 145) = (   0.3330724   1.3890830   0.2637958  )
       146           H   tau( 146) = (   0.6588078   0.4586075   0.2546581  )
       147           H   tau( 147) = (   0.8411922   0.4685757   0.2546581  )
       148           H   tau( 148) = (   0.1669276   1.3924667   0.2637958  )
       149           H   tau( 149) = (   0.8327469   1.3883968   0.0542252  )
       150           H   tau( 150) = (   0.1682373   0.4695174   0.0577018  )
       151           C   tau( 151) = (   0.6508498   0.3750669   0.0338903  )
       152           C   tau( 152) = (   0.3470181   1.4775615   0.0413891  )
       153           C   tau( 153) = (   0.6021714   0.8243360   0.1376419  )
       154           C   tau( 154) = (   0.8978286   0.1028472   0.1376419  )
       155           C   tau( 155) = (   0.6530418   1.3044941   0.2509860  )
       156           C   tau( 156) = (   0.3465500   0.5482236   0.2522109  )
       157           C   tau( 157) = (   0.1534500   0.3789596   0.2522109  )
       158           C   tau( 158) = (   0.8469582   1.4770556   0.2509860  )
       159           C   tau( 159) = (   0.1529819   1.3039882   0.0413891  )
       160           C   tau( 160) = (   0.8491502   0.5521163   0.0338903  )
       161           H   tau( 161) = (   0.6414503   0.3559075   0.3864950  )
       162           H   tau( 162) = (   0.3521348   1.4956474   0.3932253  )
       163           H   tau( 163) = (   0.6110742   0.8024087   0.0718680  )
       164           H   tau( 164) = (   0.8889258   0.1247745   0.0718680  )
       165           H   tau( 165) = (   0.6481185   1.2862437   0.1837221  )
       166           H   tau( 166) = (   0.3506552   0.5660175   0.1847718  )
       167           H   tau( 167) = (   0.1493448   0.3611657   0.1847718  )
       168           H   tau( 168) = (   0.8518815   1.4953060   0.1837221  )
       169           H   tau( 169) = (   0.1478652   1.2859023   0.3932253  )
       170           H   tau( 170) = (   0.8585497   0.5712757   0.3864950  )
       171           H   tau( 171) = (   0.7046310   0.3404132   0.0616188  )
       172           H   tau( 172) = (   0.2947794   1.5125128   0.0716775  )
       173           H   tau( 173) = (   0.5492093   0.7908338   0.1686646  )
       174           H   tau( 174) = (   0.9507907   0.1363494   0.1686646  )
       175           H   tau( 175) = (   0.7053240   1.2697722   0.2814584  )
       176           H   tau( 176) = (   0.2944445   0.5828765   0.2831205  )
       177           H   tau( 177) = (   0.2055555   0.3443068   0.2831205  )
       178           H   tau( 178) = (   0.7946760   1.5117774   0.2814584  )
       179           H   tau( 179) = (   0.2052206   1.2690368   0.0716775  )
       180           H   tau( 180) = (   0.7953690   0.5867700   0.0616188  )
       181           H   tau( 181) = (   0.6632402   0.4441313   0.0363244  )
       182           H   tau( 182) = (   0.3353261   1.4084521   0.0456742  )
       183           H   tau( 183) = (   0.5891808   0.8933814   0.1370949  )
       184           H   tau( 184) = (   0.9108192   0.0338018   0.1370949  )
       185           H   tau( 185) = (   0.6645101   1.3736463   0.2551388  )
       186           H   tau( 186) = (   0.3353987   0.4790613   0.2571041  )
       187           H   tau( 187) = (   0.1646013   0.4481219   0.2571041  )
       188           H   tau( 188) = (   0.8354899   1.4079033   0.2551388  )
       189           H   tau( 189) = (   0.1646739   1.3730976   0.0456742  )
       190           H   tau( 190) = (   0.8367598   0.4830519   0.0363244  )

     number of k points=     4
                       cart. coord. in units 2pi/alat
        k(    1) = (   0.0000000   0.0000000   0.0000000), wk =   0.3333333
        k(    2) = (   0.0000000   0.0000000   0.7953020), wk =   0.6666667
        k(    3) = (  -0.5000000   0.0000000   0.0000000), wk =   0.3333333
        k(    4) = (  -0.5000000   0.0000000   0.7953020), wk =   0.6666667

     Dense  grid:  2711991 G-vectors     FFT dimensions: ( 192, 360,  80)

     Estimated max dynamical RAM per process >    3965.91MB

     Estimated total allocated dynamical RAM >   31727.28MB

     Check: negative/imaginary core charge=   -0.000002    0.000000

     Initial potential from superposition of free atoms
     Check: negative starting charge=   -0.000154

     starting charge  599.99655, renormalised to  600.00000

     negative rho (up, down):  1.541E-04 0.000E+00
     Starting wfc are  520 randomized atomic wfcs
     Checking if some PAW data can be deallocated... 

     total cpu time spent up to now is      211.9 secs

     Self-consistent Calculation

     iteration #  1     ecut=   100.00 Ry     beta=0.50
     Davidson diagonalization with overlap
     ethr =  1.00E-02,  avg # of iterations =  4.0

     negative rho (up, down):  1.180E-04 0.000E+00

     total cpu time spent up to now is      923.6 secs

     total energy              =   -3012.08093436 Ry
     Harris-Foulkes estimate   =   -3023.29053260 Ry
     estimated scf accuracy    <      20.73392290 Ry

     iteration #  2     ecut=   100.00 Ry     beta=0.50
     Davidson diagonalization with overlap
     ethr =  3.46E-03,  avg # of iterations =  3.0

     negative rho (up, down):  1.088E-04 0.000E+00

     total cpu time spent up to now is     1325.6 secs

     total energy              =   -3014.31193135 Ry
     Harris-Foulkes estimate   =   -3016.44631187 Ry
     estimated scf accuracy    <       4.25897994 Ry

     iteration #  3     ecut=   100.00 Ry     beta=0.50
     Davidson diagonalization with overlap
     ethr =  7.10E-04,  avg # of iterations =  7.2

     negative rho (up, down):  1.430E-04 0.000E+00

     total cpu time spent up to now is     2006.4 secs

     total energy              =   -3016.16104419 Ry
     Harris-Foulkes estimate   =   -3016.91748701 Ry
     estimated scf accuracy    <       1.91989729 Ry

     iteration #  4     ecut=   100.00 Ry     beta=0.50
     Davidson diagonalization with overlap
     ethr =  3.20E-04,  avg # of iterations =  3.0

     negative rho (up, down):  2.198E-04 0.000E+00

     total cpu time spent up to now is     2360.6 secs

     total energy              =   -3016.13666112 Ry
     Harris-Foulkes estimate   =   -3016.34899079 Ry
     estimated scf accuracy    <       0.37536470 Ry

     iteration #  5     ecut=   100.00 Ry     beta=0.50
     Davidson diagonalization with overlap
     ethr =  6.26E-05,  avg # of iterations =  7.8

     negative rho (up, down):  2.753E-04 0.000E+00

     total cpu time spent up to now is     3132.7 secs

     total energy              =   -3016.40698470 Ry
     Harris-Foulkes estimate   =   -3016.55525668 Ry
     estimated scf accuracy    <       0.47402326 Ry

     iteration #  6     ecut=   100.00 Ry     beta=0.50
     Davidson diagonalization with overlap
     ethr =  6.26E-05,  avg # of iterations =  1.0

     negative rho (up, down):  2.772E-04 0.000E+00

     total cpu time spent up to now is     3466.9 secs

     total energy              =   -3016.36231405 Ry
     Harris-Foulkes estimate   =   -3016.42111945 Ry
     estimated scf accuracy    <       0.20703944 Ry

     iteration #  7     ecut=   100.00 Ry     beta=0.50
     Davidson diagonalization with overlap
     ethr =  3.45E-05,  avg # of iterations =  3.2

     negative rho (up, down):  3.060E-04 0.000E+00

     total cpu time spent up to now is     3921.9 secs

     total energy              =   -3016.39904866 Ry
     Harris-Foulkes estimate   =   -3016.40791888 Ry
     estimated scf accuracy    <       0.01388005 Ry

     iteration #  8     ecut=   100.00 Ry     beta=0.50
     Davidson diagonalization with overlap
     ethr =  2.31E-06,  avg # of iterations = 11.5

     negative rho (up, down):  3.289E-04 0.000E+00

     total cpu time spent up to now is     4761.3 secs

     total energy              =   -3016.40667989 Ry
     Harris-Foulkes estimate   =   -3016.41118556 Ry
     estimated scf accuracy    <       0.01178386 Ry

     iteration #  9     ecut=   100.00 Ry     beta=0.50
     Davidson diagonalization with overlap
     ethr =  1.96E-06,  avg # of iterations =  1.0

     negative rho (up, down):  3.363E-04 0.000E+00

     total cpu time spent up to now is     5096.4 secs

     total energy              =   -3016.40578132 Ry
     Harris-Foulkes estimate   =   -3016.40719781 Ry
     estimated scf accuracy    <       0.00343032 Ry

     iteration # 10     ecut=   100.00 Ry     beta=0.50
     Davidson diagonalization with overlap
     ethr =  5.72E-07,  avg # of iterations =  4.0

     negative rho (up, down):  3.395E-04 0.000E+00

     total cpu time spent up to now is     5712.5 secs

     total energy              =   -3016.40767301 Ry
     Harris-Foulkes estimate   =   -3016.40777918 Ry
     estimated scf accuracy    <       0.00033760 Ry

     iteration # 11     ecut=   100.00 Ry     beta=0.50
     Davidson diagonalization with overlap
     ethr =  5.63E-08,  avg # of iterations =  1.2

     negative rho (up, down):  3.398E-04 0.000E+00

     total cpu time spent up to now is     6048.7 secs

     total energy              =   -3016.40761332 Ry
     Harris-Foulkes estimate   =   -3016.40768607 Ry
     estimated scf accuracy    <       0.00014408 Ry

     iteration # 12     ecut=   100.00 Ry     beta=0.50
     Davidson diagonalization with overlap
     ethr =  2.40E-08,  avg # of iterations =  4.0

     negative rho (up, down):  3.401E-04 0.000E+00

     total cpu time spent up to now is     6637.2 secs

     total energy              =   -3016.40767945 Ry
     Harris-Foulkes estimate   =   -3016.40768784 Ry
     estimated scf accuracy    <       0.00002140 Ry

     iteration # 13     ecut=   100.00 Ry     beta=0.50
     Davidson diagonalization with overlap
     ethr =  3.57E-09,  avg # of iterations =  2.0

     negative rho (up, down):  3.406E-04 0.000E+00

     total cpu time spent up to now is     6982.6 secs

     total energy              =   -3016.40767682 Ry
     Harris-Foulkes estimate   =   -3016.40768056 Ry
     estimated scf accuracy    <       0.00000673 Ry

     iteration # 14     ecut=   100.00 Ry     beta=0.50
     Davidson diagonalization with overlap
     ethr =  1.12E-09,  avg # of iterations =  4.0

     negative rho (up, down):  3.407E-04 0.000E+00

     total cpu time spent up to now is     7619.6 secs

     total energy              =   -3016.40768159 Ry
     Harris-Foulkes estimate   =   -3016.40768220 Ry
     estimated scf accuracy    <       0.00000270 Ry

     iteration # 15     ecut=   100.00 Ry     beta=0.50
     Davidson diagonalization with overlap
     ethr =  4.50E-10,  avg # of iterations =  1.0

     negative rho (up, down):  3.407E-04 0.000E+00

     total cpu time spent up to now is     7954.3 secs

     total energy              =   -3016.40768082 Ry
     Harris-Foulkes estimate   =   -3016.40768163 Ry
     estimated scf accuracy    <       0.00000155 Ry

     iteration # 16     ecut=   100.00 Ry     beta=0.50
     Davidson diagonalization with overlap
     ethr =  2.58E-10,  avg # of iterations =  4.0

     negative rho (up, down):  3.407E-04 0.000E+00

     total cpu time spent up to now is     8456.6 secs

     total energy              =   -3016.40768140 Ry
     Harris-Foulkes estimate   =   -3016.40768142 Ry
     estimated scf accuracy    <       0.00000012 Ry

     iteration # 17     ecut=   100.00 Ry     beta=0.50
     Davidson diagonalization with overlap
     ethr =  2.00E-11,  avg # of iterations =  2.5

     negative rho (up, down):  3.408E-04 0.000E+00

     total cpu time spent up to now is     8816.7 secs

     total energy              =   -3016.40768138 Ry
     Harris-Foulkes estimate   =   -3016.40768141 Ry
     estimated scf accuracy    <       0.00000009 Ry

     iteration # 18     ecut=   100.00 Ry     beta=0.50
     Davidson diagonalization with overlap
     ethr =  1.48E-11,  avg # of iterations =  3.0

     negative rho (up, down):  3.408E-04 0.000E+00

     total cpu time spent up to now is     9247.8 secs

     total energy              =   -3016.40768139 Ry
     Harris-Foulkes estimate   =   -3016.40768139 Ry
     estimated scf accuracy    <       0.00000001 Ry

     iteration # 19     ecut=   100.00 Ry     beta=0.50
     Davidson diagonalization with overlap
     ethr =  2.13E-12,  avg # of iterations =  4.0

     negative rho (up, down):  3.408E-04 0.000E+00

     total cpu time spent up to now is     9748.2 secs

     End of self-consistent calculation

          k = 0.0000 0.0000 0.0000 (338971 PWs)   bands (ev):

   -23.5440 -23.5432 -23.4901 -23.4899 -23.4010 -23.3991 -23.3619 -23.3611
   -23.3050 -23.3032 -22.7866 -22.7864 -22.7140 -22.7131 -22.6389 -22.6381
   -22.6082 -22.6068 -22.5726 -22.5673 -22.5639 -22.5593 -22.5561 -22.5551
   -22.5111 -22.5093 -22.4935 -22.4926 -22.4880 -22.4857 -20.3235 -20.3233
   -20.2520 -20.2473 -20.1687 -20.1633 -20.1367 -20.1331 -20.0822 -20.0777
   -19.7900 -19.7900 -19.6470 -19.6456 -19.5830 -19.5806 -19.5441 -19.5424
   -19.5372 -19.5318 -15.9755 -15.9724 -15.8632 -15.8511 -15.8471 -15.8169
   -15.8120 -15.8097 -15.8078 -15.7967 -14.3327 -14.3324 -14.1518 -14.1458
   -14.1170 -14.0813 -14.0659 -14.0586 -14.0228 -14.0050 -13.9025 -13.9025
   -13.7552 -13.6607 -13.6530 -13.6046 -13.5936 -13.5412 -13.5112 -13.5076
   -12.5748 -12.5743 -12.5072 -12.4950 -12.4020 -12.3834 -12.3823 -12.3757
   -12.3728 -12.3726 -11.9932 -11.9932 -11.8658 -11.8211 -11.8038 -11.7819
   -11.7565 -11.7329 -11.7254 -11.6817  -9.9032  -9.9028  -9.8514  -9.8197
    -9.7707  -9.7223  -9.7194  -9.7066  -9.6831  -9.6780  -9.4073  -9.3280
    -9.2872  -9.2790  -9.2084  -9.1409  -9.0199  -8.9512  -8.9475  -8.9468
    -8.9406  -8.8667  -8.7298  -8.7231  -8.6969  -8.6795  -8.6474  -8.6250
    -8.5979  -8.5918  -7.9640  -7.9063  -7.8917  -7.8623  -7.8204  -7.8103
    -7.7803  -7.7730  -7.7549  -7.7113  -7.6918  -7.6408  -7.6217  -7.5899
    -7.5547  -7.5498  -7.5469  -7.5394  -7.5017  -7.4943  -7.4655  -7.4561
    -7.4460  -7.4271  -7.4029  -7.3787  -7.3650  -7.3594  -7.3451  -7.3408
    -7.3035  -7.2855  -7.2557  -7.2262  -7.2106  -7.1640  -7.1577  -7.1164
    -7.1026  -7.0970  -7.0815  -7.0497  -7.0315  -7.0243  -6.9553  -6.9068
    -6.8899  -6.8786  -6.8388  -6.8012  -6.7820  -6.7691  -6.6854  -6.6169
    -6.6085  -6.5626  -6.5456  -6.5444  -6.5358  -6.5192  -6.4968  -6.4618
    -6.4522  -6.4371  -6.4081  -6.3944  -6.3821  -6.3098  -6.2917  -6.2069
    -6.1506  -6.0807  -6.0392  -6.0140  -6.0046  -5.9366  -5.9346  -5.9336
    -5.9045  -5.8872  -5.8697  -5.8404  -5.7966  -5.7855  -5.7541  -5.7486
    -5.7127  -5.7060  -5.6985  -5.6948  -5.6129  -5.6126  -5.5787  -5.5562
    -5.5240  -5.5156  -5.4918  -5.4754  -5.4713  -5.4016  -5.3948  -5.3483
    -5.3481  -5.3211  -5.3125  -5.2954  -5.2943  -5.2733  -5.2596  -5.2560
    -4.9452  -4.9401  -4.9301  -4.8980  -4.8647  -4.8374  -4.6689  -4.6656
    -4.6623  -4.6572  -3.4657  -3.4372  -3.4258  -3.4236  -3.3779  -3.3415
    -3.3413  -3.2918  -3.2845  -3.2609  -3.2487  -3.2400  -3.2015  -3.1790
    -3.1402  -3.1278  -3.0872  -3.0833  -3.0639  -3.0632  -3.0493  -3.0456
    -3.0289  -2.9970  -2.9597  -2.9484  -2.9335  -2.9329  -2.8847  -2.8753
    -2.8737  -2.8714  -2.7493  -2.7402  -2.6908  -2.6882  -2.5850  -2.5803
    -2.5399  -2.5295  -2.2577  -2.2562  -2.1731  -2.1439  -2.0998  -2.0960
    -2.0859  -2.0625  -2.0329  -2.0282   1.4730   1.4878   1.5569   1.5642
     1.5675   1.5832   1.8595   1.8636   1.8946   1.9039   2.5120   2.5417
     2.6024   2.6500   2.6596   2.6601   2.8084   2.8252   2.8293   2.8476
     2.8552   2.8874   3.1720   3.2369   3.3605   3.5323   3.5336   3.6668
     3.6916   3.7626   3.7696   3.8243   3.8291   3.9030   3.9592   3.9743
     4.0413   4.1422   4.3482   4.3484   4.3604   4.3892   4.4010   4.5189
     4.5831   4.6724   4.7395   4.7912   4.7985   4.9458   4.9664   5.0239
     5.0966   5.1144   5.2841   5.3413   5.3603   5.3616   5.4410   5.4617

          k = 0.0000 0.0000 0.7953 (338944 PWs)   bands (ev):

   -23.5375 -23.5374 -23.4708 -23.4704 -23.3732 -23.3732 -23.3731 -23.3720
   -23.3244 -23.3237 -22.7871 -22.7871 -22.7161 -22.7157 -22.6444 -22.6441
   -22.6082 -22.6074 -22.5688 -22.5662 -22.5636 -22.5618 -22.5598 -22.5596
   -22.5112 -22.5103 -22.5000 -22.4997 -22.4990 -22.4979 -20.3230 -20.3229
   -20.2365 -20.2346 -20.1484 -20.1478 -20.1455 -20.1425 -20.1020 -20.1001
   -19.7927 -19.7927 -19.6494 -19.6479 -19.5859 -19.5837 -19.5439 -19.5437
   -19.5408 -19.5374 -15.9623 -15.9614 -15.8556 -15.8468 -15.8285 -15.8108
   -15.8102 -15.8069 -15.8037 -15.8031 -14.3155 -14.3154 -14.1388 -14.1359
   -14.1003 -14.0755 -14.0566 -14.0528 -14.0110 -14.0024 -13.8946 -13.8944
   -13.7152 -13.6408 -13.6302 -13.6154 -13.5890 -13.5382 -13.5252 -13.5100
   -12.5981 -12.5980 -12.5229 -12.5100 -12.4061 -12.3982 -12.3931 -12.3911
   -12.3866 -12.3839 -11.9987 -11.9987 -11.8619 -11.8205 -11.8189 -11.7744
   -11.7707 -11.7450 -11.7261 -11.7000  -9.8969  -9.8961  -9.8328  -9.8125
    -9.7431  -9.7266  -9.7116  -9.7097  -9.6983  -9.6921  -9.3214  -9.2862
    -9.2750  -9.2327  -9.1465  -9.1386  -9.0979  -9.0657  -9.0593  -9.0567
    -8.9626  -8.9527  -8.8586  -8.8309  -8.8120  -8.7808  -8.7595  -8.7412
    -8.7303  -8.7251  -7.8682  -7.8321  -7.7697  -7.7315  -7.7171  -7.6936
    -7.6722  -7.6621  -7.6002  -7.5881  -7.5637  -7.5606  -7.5200  -7.5160
    -7.5057  -7.5028  -7.5025  -7.4631  -7.4622  -7.4571  -7.4277  -7.4268
    -7.4126  -7.4011  -7.3828  -7.3700  -7.3630  -7.3541  -7.3339  -7.3045
    -7.2965  -7.2475  -7.2472  -7.2427  -7.2151  -7.2141  -7.1997  -7.1560
    -7.1466  -7.1464  -7.1316  -7.1254  -7.0300  -6.9996  -6.9744  -6.9628
    -6.9357  -6.8961  -6.8789  -6.8155  -6.6683  -6.6588  -6.6545  -6.6517
    -6.5944  -6.5847  -6.5332  -6.5247  -6.5163  -6.4958  -6.4925  -6.4867
    -6.4837  -6.4779  -6.4359  -6.4327  -6.4320  -6.4071  -6.4062  -6.3570
    -5.9628  -5.9350  -5.9340  -5.9277  -5.9041  -5.8955  -5.8649  -5.8611
    -5.8060  -5.7860  -5.7694  -5.7644  -5.7413  -5.7317  -5.7301  -5.7239
    -5.7028  -5.6974  -5.6481  -5.6443  -5.6377  -5.6369  -5.5796  -5.5172
    -5.5133  -5.5048  -5.4814  -5.4654  -5.4590  -5.4355  -5.4196  -5.4124
    -5.3774  -5.3626  -5.3525  -5.3450  -5.3249  -5.3238  -5.3182  -5.2940
    -5.0107  -5.0062  -4.9492  -4.9490  -4.9287  -4.9225  -4.8401  -4.8368
    -4.8309  -4.8237  -3.4717  -3.4697  -3.4504  -3.4441  -3.3759  -3.3663
    -3.3656  -3.3572  -3.3505  -3.3386  -3.3148  -3.3039  -3.2939  -3.2571
    -3.1885  -3.1880  -3.1756  -3.1685  -3.1679  -3.1484  -3.0983  -3.0911
    -3.0230  -3.0029  -2.9276  -2.9185  -2.9157  -2.8837  -2.8781  -2.8765
    -2.8714  -2.8550  -2.7345  -2.6887  -2.6714  -2.6504  -2.6267  -2.6108
    -2.6065  -2.5583  -2.2421  -2.2417  -2.1478  -2.1453  -2.0922  -2.0849
    -2.0666  -2.0595  -2.0409  -2.0354   1.6684   1.6724   1.7175   1.7239
     1.7243   1.7274   1.8793   1.8842   1.8874   1.8918   2.5617   2.5645
     2.6839   2.6883   2.7431   2.7475   2.8400   2.8408   2.8422   2.8435
     3.1326   3.2026   3.4987   3.5652   3.6554   3.7244   3.7545   3.8464
     3.8818   3.9159   3.9241   3.9541   3.9999   4.0367   4.1164   4.1671
     4.1720   4.2351   4.2805   4.2814   4.3501   4.4268   4.5076   4.5220
     4.5939   4.6990   4.7348   4.7924   4.8197   4.8762   4.9559   4.9575
     5.0146   5.0817   5.0866   5.1594   5.1935   5.1957   5.2235   5.2768

          k =-0.5000 0.0000 0.0000 (339050 PWs)   bands (ev):

   -23.5440 -23.5432 -23.4904 -23.4896 -23.4001 -23.4000 -23.3615 -23.3614
   -23.3041 -23.3041 -22.7867 -22.7864 -22.7138 -22.7131 -22.6391 -22.6382
   -22.6078 -22.6071 -22.5699 -22.5698 -22.5618 -22.5617 -22.5561 -22.5551
   -22.5102 -22.5101 -22.4935 -22.4926 -22.4868 -22.4867 -20.3235 -20.3233
   -20.2505 -20.2489 -20.1661 -20.1660 -20.1356 -20.1343 -20.0800 -20.0799
   -19.7900 -19.7900 -19.6463 -19.6456 -19.5826 -19.5815 -19.5411 -19.5407
   -19.5370 -19.5366 -15.9743 -15.9721 -15.8607 -15.8537 -15.8323 -15.8320
   -15.8137 -15.8056 -15.8046 -15.8042 -14.3327 -14.3325 -14.1429 -14.1396
   -14.1258 -14.0953 -14.0532 -14.0523 -14.0279 -14.0270 -13.9025 -13.9024
   -13.6969 -13.6729 -13.6180 -13.6126 -13.5845 -13.5841 -13.5233 -13.5225
   -12.5744 -12.5743 -12.5049 -12.4963 -12.3890 -12.3875 -12.3792 -12.3785
   -12.3774 -12.3772 -11.9932 -11.9931 -11.8367 -11.8222 -11.8058 -11.7821
   -11.7410 -11.7398 -11.7209 -11.7196  -9.9029  -9.9026  -9.8327  -9.8299
    -9.7360  -9.7347  -9.7298  -9.7217  -9.7004  -9.6991  -9.3240  -9.3027
    -9.2772  -9.2759  -9.2332  -9.2327  -8.9797  -8.9604  -8.9318  -8.9261
    -8.8904  -8.8897  -8.7620  -8.7171  -8.6962  -8.6733  -8.6730  -8.6266
    -8.6260  -8.6211  -7.9534  -7.9216  -7.8691  -7.8545  -7.7933  -7.7931
    -7.7821  -7.7217  -7.7138  -7.6955  -7.6494  -7.6464  -7.6451  -7.6360
    -7.6077  -7.5455  -7.5403  -7.5367  -7.5366  -7.5065  -7.4681  -7.4603
    -7.4571  -7.4111  -7.3890  -7.3874  -7.3644  -7.3642  -7.3286  -7.3205
    -7.2606  -7.2600  -7.2587  -7.2555  -7.2441  -7.2440  -7.1912  -7.1776
    -7.1550  -7.1548  -7.0558  -7.0515  -6.9672  -6.9392  -6.8920  -6.8714
    -6.8542  -6.8538  -6.7830  -6.7820  -6.7578  -6.7549  -6.6982  -6.6642
    -6.6438  -6.6276  -6.6266  -6.6173  -6.5735  -6.5720  -6.5266  -6.5229
    -6.4129  -6.4113  -6.3370  -6.3208  -6.3045  -6.3039  -6.2700  -6.2691
    -6.1099  -6.0795  -6.0156  -6.0109  -5.9692  -5.9685  -5.9480  -5.9382
    -5.9345  -5.8900  -5.8874  -5.8600  -5.8123  -5.8118  -5.7453  -5.7296
    -5.7202  -5.7187  -5.6423  -5.6422  -5.6191  -5.6175  -5.5957  -5.5260
    -5.4981  -5.4979  -5.4889  -5.4796  -5.4778  -5.4271  -5.3903  -5.3534
    -5.3531  -5.3530  -5.3186  -5.3050  -5.3042  -5.2863  -5.2412  -5.2410
    -4.9437  -4.9436  -4.9294  -4.9002  -4.8640  -4.8356  -4.6671  -4.6669
    -4.6608  -4.6584  -3.4531  -3.4501  -3.4260  -3.4224  -3.3596  -3.3589
    -3.3289  -3.3117  -3.2658  -3.2656  -3.2569  -3.2513  -3.2013  -3.1797
    -3.1495  -3.1174  -3.0853  -3.0851  -3.0599  -3.0508  -3.0390  -3.0333
    -3.0232  -3.0223  -2.9561  -2.9366  -2.9225  -2.9203  -2.9159  -2.9131
    -2.8809  -2.8707  -2.7450  -2.7310  -2.6829  -2.6827  -2.5873  -2.5757
    -2.5336  -2.5331  -2.2577  -2.2565  -2.1535  -2.1469  -2.1017  -2.1015
    -2.0648  -2.0647  -2.0495  -2.0494   1.4741   1.4878   1.5607   1.5615
     1.5671   1.5835   1.8585   1.8663   1.8993   1.9005   2.5083   2.5406
     2.6021   2.6486   2.6566   2.6567   2.8173   2.8308   2.8482   2.8489
     2.8823   2.9440   3.0089   3.0833   3.4429   3.5084   3.6436   3.6962
     3.7530   3.7831   3.7983   3.8517   3.8824   3.9225   4.0160   4.0601
     4.0973   4.1660   4.2763   4.2966   4.3178   4.3714   4.4014   4.4177
     4.4327   4.4336   4.6632   4.7570   4.8473   4.8544   4.8644   4.9340
     5.0441   5.1507   5.3694   5.3890   5.5009   5.5147   5.5526   5.5735

          k =-0.5000 0.0000 0.7953 (338914 PWs)   bands (ev):

   -23.5375 -23.5374 -23.4707 -23.4705 -23.3732 -23.3731 -23.3726 -23.3726
   -23.3241 -23.3241 -22.7871 -22.7871 -22.7160 -22.7158 -22.6445 -22.6441
   -22.6080 -22.6076 -22.5675 -22.5674 -22.5629 -22.5627 -22.5598 -22.5596
   -22.5108 -22.5107 -22.5000 -22.4997 -22.4985 -22.4984 -20.3230 -20.3229
   -20.2358 -20.2353 -20.1481 -20.1480 -20.1440 -20.1440 -20.1011 -20.1010
   -19.7927 -19.7927 -19.6490 -19.6482 -19.5853 -19.5844 -19.5433 -19.5429
   -19.5400 -19.5396 -15.9618 -15.9613 -15.8526 -15.8501 -15.8198 -15.8193
   -15.8099 -15.8051 -15.8046 -15.8045 -14.3155 -14.3155 -14.1318 -14.1254
   -14.1139 -14.0883 -14.0456 -14.0450 -14.0210 -14.0203 -13.8946 -13.8945
   -13.6807 -13.6589 -13.6158 -13.6097 -13.5639 -13.5635 -13.5259 -13.5252
   -12.5981 -12.5981 -12.5210 -12.5122 -12.3990 -12.3965 -12.3932 -12.3927
   -12.3914 -12.3886 -11.9987 -11.9986 -11.8435 -11.8302 -11.8107 -11.7883
   -11.7496 -11.7488 -11.7244 -11.7234  -9.8964  -9.8962  -9.8278  -9.8259
    -9.7323  -9.7301  -9.7289  -9.7244  -9.7067  -9.7056  -9.2909  -9.2900
    -9.2257  -9.2076  -9.1449  -9.1449  -9.1192  -9.0735  -9.0369  -8.9903
    -8.9899  -8.9882  -8.8565  -8.8446  -8.7752  -8.7729  -8.7727  -8.7660
    -8.7326  -8.7318  -7.8752  -7.8340  -7.7403  -7.7347  -7.7101  -7.6909
    -7.6533  -7.6480  -7.5968  -7.5866  -7.5850  -7.5599  -7.5588  -7.5581
    -7.5353  -7.5278  -7.5271  -7.4958  -7.4630  -7.4626  -7.4472  -7.4426
    -7.4064  -7.4024  -7.3828  -7.3486  -7.3056  -7.3027  -7.3023  -7.2971
    -7.2831  -7.2586  -7.2579  -7.2415  -7.2158  -7.2148  -7.2109  -7.1682
    -7.1610  -7.1598  -7.1273  -7.1008  -7.0108  -7.0072  -6.9164  -6.9151
    -6.9053  -6.9033  -6.8632  -6.8619  -6.6906  -6.6872  -6.6568  -6.6520
    -6.6174  -6.6091  -6.5908  -6.5897  -6.5817  -6.5803  -6.5536  -6.5521
    -6.4324  -6.4256  -6.3963  -6.3827  -6.3481  -6.3474  -6.3299  -6.3290
    -5.9553  -5.9418  -5.9344  -5.9340  -5.9084  -5.9022  -5.8782  -5.8624
    -5.7945  -5.7835  -5.7815  -5.7772  -5.7420  -5.7412  -5.7315  -5.7119
    -5.7109  -5.7104  -5.6360  -5.6355  -5.6201  -5.6025  -5.5704  -5.5409
    -5.4888  -5.4888  -5.4742  -5.4605  -5.4509  -5.4499  -5.4360  -5.4332
    -5.3820  -5.3811  -5.3473  -5.3442  -5.3436  -5.3283  -5.2988  -5.2975
    -5.0118  -5.0061  -4.9524  -4.9519  -4.9260  -4.9250  -4.8335  -4.8332
    -4.8322  -4.8265  -3.4734  -3.4679  -3.4477  -3.4471  -3.3778  -3.3663
    -3.3636  -3.3635  -3.3497  -3.3423  -3.3093  -3.3089  -3.2925  -3.2552
    -3.1958  -3.1813  -3.1741  -3.1727  -3.1569  -3.1548  -3.0952  -3.0920
    -3.0166  -3.0082  -2.9305  -2.9148  -2.8964  -2.8956  -2.8867  -2.8833
    -2.8669  -2.8660  -2.7174  -2.7071  -2.6532  -2.6530  -2.6380  -2.6138
    -2.5755  -2.5747  -2.2423  -2.2419  -2.1471  -2.1448  -2.0918  -2.0912
    -2.0528  -2.0528  -2.0508  -2.0508   1.6694   1.6730   1.7185   1.7229
     1.7252   1.7270   1.8841   1.8848   1.8879   1.8885   2.5610   2.5641
     2.6793   2.6865   2.7411   2.7413   2.8409   2.8425   2.8435   2.8444
     3.1903   3.2501   3.3499   3.4299   3.7376   3.7499   3.8168   3.8295
     3.8685   3.8792   3.9359   3.9624   4.0672   4.1305   4.1642   4.1814
     4.1930   4.2334   4.2692   4.3059   4.4442   4.4593   4.5481   4.5550
     4.5781   4.6007   4.6813   4.6914   4.7372   4.7809   4.9040   4.9078
     4.9620   4.9933   5.0912   5.1056   5.1835   5.2027   5.2494   5.2765

     highest occupied, lowest unoccupied level (ev):    -2.0282    1.4730

!    total energy              =   -3016.40768139 Ry
     Harris-Foulkes estimate   =   -3016.40768139 Ry
     estimated scf accuracy    <          3.3E-09 Ry

     total all-electron energy =    -11373.636215 Ry

     The total energy is the sum of the following terms:

     one-electron contribution =   -6744.89520087 Ry
     hartree contribution      =    3545.76760127 Ry
     xc contribution           =    -637.15076789 Ry
     ewald contribution        =    1670.58982061 Ry
     Dispersion Correction     =      -0.65397641 Ry
     one-center paw contrib.   =    -850.06515809 Ry

     convergence has been achieved in  19 iterations

     negative rho (up, down):  3.408E-04 0.000E+00

     Forces acting on atoms (cartesian axes, Ry/au):

     atom    1 type  4   force =    -0.00420947    0.00061916    0.00166734
     atom    2 type  4   force =     0.00354845   -0.00091471    0.00122624
     atom    3 type  4   force =     0.00328486    0.00011029    0.00161887
     atom    4 type  4   force =    -0.00328486   -0.00011029    0.00161887
     atom    5 type  4   force =    -0.00352671    0.00096277    0.00139945
     atom    6 type  4   force =     0.00356547   -0.00064685    0.00175744
     atom    7 type  4   force =    -0.00356547    0.00064685    0.00175744
     atom    8 type  4   force =     0.00352671   -0.00096277    0.00139945
     atom    9 type  4   force =    -0.00354845    0.00091471    0.00122624
     atom   10 type  4   force =     0.00420947   -0.00061916    0.00166734
     atom   11 type  4   force =     0.00422128    0.00141647    0.00150907
     atom   12 type  4   force =    -0.00392602   -0.00066660    0.00182014
     atom   13 type  4   force =    -0.00490588    0.00022438    0.00115356
     atom   14 type  4   force =     0.00490588   -0.00022438    0.00115356
     atom   15 type  4   force =     0.00396852    0.00065999    0.00172124
     atom   16 type  4   force =    -0.00457641   -0.00031184    0.00192702
     atom   17 type  4   force =     0.00457641    0.00031184    0.00192702
     atom   18 type  4   force =    -0.00396852   -0.00065999    0.00172124
     atom   19 type  4   force =     0.00392602    0.00066660    0.00182014
     atom   20 type  4   force =    -0.00422128   -0.00141647    0.00150907
     atom   21 type  4   force =     0.00033783    0.00023018   -0.00495809
     atom   22 type  4   force =    -0.00003744   -0.00009531   -0.00351964
     atom   23 type  4   force =    -0.00022631   -0.00045649   -0.00426013
     atom   24 type  4   force =     0.00022631    0.00045649   -0.00426013
     atom   25 type  4   force =     0.00021454    0.00000715   -0.00329194
     atom   26 type  4   force =    -0.00023253   -0.00074372   -0.00285387
     atom   27 type  4   force =     0.00023253    0.00074372   -0.00285387
     atom   28 type  4   force =    -0.00021454   -0.00000715   -0.00329194
     atom   29 type  4   force =     0.00003744    0.00009531   -0.00351964
     atom   30 type  4   force =    -0.00033783   -0.00023018   -0.00495809
     atom   31 type  2   force =     0.00475769    0.00338345    0.00199460
     atom   32 type  2   force =    -0.00367232   -0.00285398    0.00273048
     atom   33 type  2   force =    -0.00376072    0.00259056    0.00122072
     atom   34 type  2   force =     0.00376072   -0.00259056    0.00122072
     atom   35 type  2   force =     0.00443051    0.00268545    0.00289561
     atom   36 type  2   force =    -0.00365510   -0.00251772    0.00314341
     atom   37 type  2   force =     0.00365510    0.00251772    0.00314341
     atom   38 type  2   force =    -0.00443051   -0.00268545    0.00289561
     atom   39 type  2   force =     0.00367232    0.00285398    0.00273048
     atom   40 type  2   force =    -0.00475769   -0.00338345    0.00199460
     atom   41 type  2   force =    -0.00314325    0.00343342    0.00269625
     atom   42 type  2   force =     0.00389098   -0.00268595    0.00267891
     atom   43 type  2   force =     0.00480905    0.00355308    0.00380266
     atom   44 type  2   force =    -0.00480905   -0.00355308    0.00380266
     atom   45 type  2   force =    -0.00307238    0.00267965    0.00255155
     atom   46 type  2   force =     0.00403277   -0.00216366    0.00296093
     atom   47 type  2   force =    -0.00403277    0.00216366    0.00296093
     atom   48 type  2   force =     0.00307238   -0.00267965    0.00255155
     atom   49 type  2   force =    -0.00389098    0.00268595    0.00267891
     atom   50 type  2   force =     0.00314325   -0.00343342    0.00269625
     atom   51 type  1   force =     0.00511944   -0.00078803   -0.00338930
     atom   52 type  1   force =    -0.00424631    0.00037730   -0.00348211
     atom   53 type  1   force =    -0.00472511   -0.00069941   -0.00185328
     atom   54 type  1   force =     0.00472511    0.00069941   -0.00185328
     atom   55 type  1   force =     0.00393740   -0.00018639   -0.00383062
     atom   56 type  1   force =    -0.00398156    0.00014111   -0.00394510
     atom   57 type  1   force =     0.00398156   -0.00014111   -0.00394510
     atom   58 type  1   force =    -0.00393740    0.00018639   -0.00383062
     atom   59 type  1   force =     0.00424631   -0.00037730   -0.00348211
     atom   60 type  1   force =    -0.00511944    0.00078803   -0.00338930
     atom   61 type  1   force =    -0.00095482   -0.00304756   -0.00712707
     atom   62 type  1   force =    -0.00015799    0.00133211   -0.00506761
     atom   63 type  1   force =     0.00075023   -0.00135935   -0.00712695
     atom   64 type  1   force =    -0.00075023    0.00135935   -0.00712695
     atom   65 type  1   force =     0.00041448   -0.00125363   -0.00492151
     atom   66 type  1   force =    -0.00043971    0.00115956   -0.00400537
     atom   67 type  1   force =     0.00043971   -0.00115956   -0.00400537
     atom   68 type  1   force =    -0.00041448    0.00125363   -0.00492151
     atom   69 type  1   force =     0.00015799   -0.00133211   -0.00506761
     atom   70 type  1   force =     0.00095482    0.00304756   -0.00712707
     atom   71 type  3   force =    -0.00033742    0.00299944    0.00608416
     atom   72 type  3   force =    -0.00050699   -0.00214292    0.00429423
     atom   73 type  3   force =     0.00013109    0.00212969    0.00564026
     atom   74 type  3   force =    -0.00013109   -0.00212969    0.00564026
     atom   75 type  3   force =     0.00051473    0.00211254    0.00421018
     atom   76 type  3   force =    -0.00090415   -0.00207117    0.00390044
     atom   77 type  3   force =     0.00090415    0.00207117    0.00390044
     atom   78 type  3   force =    -0.00051473   -0.00211254    0.00421018
     atom   79 type  3   force =     0.00050699    0.00214292    0.00429423
     atom   80 type  3   force =     0.00033742   -0.00299944    0.00608416
     atom   81 type  3   force =    -0.00011262    0.00089378    0.00234433
     atom   82 type  3   force =     0.00010686   -0.00045905    0.00175719
     atom   83 type  3   force =    -0.00000999    0.00060215    0.00271060
     atom   84 type  3   force =     0.00000999   -0.00060215    0.00271060
     atom   85 type  3   force =    -0.00015156    0.00044639    0.00172410
     atom   86 type  3   force =     0.00005746    0.00011995    0.00183982
     atom   87 type  3   force =    -0.00005746   -0.00011995    0.00183982
     atom   88 type  3   force =     0.00015156   -0.00044639    0.00172410
     atom   89 type  3   force =    -0.00010686    0.00045905    0.00175719
     atom   90 type  3   force =     0.00011262   -0.00089378    0.00234433
     atom   91 type  1   force =    -0.00447340    0.00021130   -0.00262333
     atom   92 type  1   force =     0.00409359   -0.00031626   -0.00378978
     atom   93 type  1   force =     0.00476950    0.00050408   -0.00381035
     atom   94 type  1   force =    -0.00476950   -0.00050408   -0.00381035
     atom   95 type  1   force =    -0.00443304    0.00024146   -0.00351034
     atom   96 type  1   force =     0.00424149   -0.00039924   -0.00449331
     atom   97 type  1   force =    -0.00424149    0.00039924   -0.00449331
     atom   98 type  1   force =     0.00443304   -0.00024146   -0.00351034
     atom   99 type  1   force =    -0.00409359    0.00031626   -0.00378978
     atom  100 type  1   force =     0.00447340   -0.00021130   -0.00262333
     atom  101 type  1   force =     0.00004257   -0.00392505    0.00194857
     atom  102 type  1   force =    -0.00036588    0.00280645    0.00198809
     atom  103 type  1   force =     0.00055460   -0.00252696    0.00305403
     atom  104 type  1   force =    -0.00055460    0.00252696    0.00305403
     atom  105 type  1   force =    -0.00067837   -0.00261569    0.00179192
     atom  106 type  1   force =     0.00016215    0.00204060    0.00164464
     atom  107 type  1   force =    -0.00016215   -0.00204060    0.00164464
     atom  108 type  1   force =     0.00067837    0.00261569    0.00179192
     atom  109 type  1   force =     0.00036588   -0.00280645    0.00198809
     atom  110 type  1   force =    -0.00004257    0.00392505    0.00194857
     atom  111 type  1   force =    -0.00193026   -0.00080641    0.00192987
     atom  112 type  1   force =     0.00177505    0.00101475    0.00204775
     atom  113 type  1   force =    -0.00017068    0.00020558    0.00089995
     atom  114 type  1   force =     0.00017068   -0.00020558    0.00089995
     atom  115 type  1   force =    -0.00197328   -0.00095792    0.00207226
     atom  116 type  1   force =     0.00183516    0.00051649    0.00194665
     atom  117 type  1   force =    -0.00183516   -0.00051649    0.00194665
     atom  118 type  1   force =     0.00197328    0.00095792    0.00207226
     atom  119 type  1   force =    -0.00177505   -0.00101475    0.00204775
     atom  120 type  1   force =     0.00193026    0.00080641    0.00192987
     atom  121 type  3   force =     0.00039476   -0.00035936    0.00068239
     atom  122 type  3   force =    -0.00030720    0.00019856    0.00030724
     atom  123 type  3   force =     0.00060669   -0.00033410    0.00048249
     atom  124 type  3   force =    -0.00060669    0.00033410    0.00048249
     atom  125 type  3   force =     0.00033744   -0.00019309    0.00025607
     atom  126 type  3   force =    -0.00025489    0.00071569    0.00058874
     atom  127 type  3   force =     0.00025489   -0.00071569    0.00058874
     atom  128 type  3   force =    -0.00033744    0.00019309    0.00025607
     atom  129 type  3   force =     0.00030720   -0.00019856    0.00030724
     atom  130 type  3   force =    -0.00039476    0.00035936    0.00068239
     atom  131 type  3   force =    -0.00093878   -0.00095157   -0.00242112
     atom  132 type  3   force =     0.00074921    0.00075216   -0.00269694
     atom  133 type  3   force =     0.00050900   -0.00079765   -0.00179920
     atom  134 type  3   force =    -0.00050900    0.00079765   -0.00179920
     atom  135 type  3   force =    -0.00073460   -0.00075657   -0.00273062
     atom  136 type  3   force =     0.00040697    0.00123752   -0.00296237
     atom  137 type  3   force =    -0.00040697   -0.00123752   -0.00296237
     atom  138 type  3   force =     0.00073460    0.00075657   -0.00273062
     atom  139 type  3   force =    -0.00074921   -0.00075216   -0.00269694
     atom  140 type  3   force =     0.00093878    0.00095157   -0.00242112
     atom  141 type  3   force =     0.00048772   -0.00052884   -0.00029989
     atom  142 type  3   force =    -0.00046559    0.00026934   -0.00043001
     atom  143 type  3   force =     0.00050074   -0.00051519   -0.00041096
     atom  144 type  3   force =    -0.00050074    0.00051519   -0.00041096
     atom  145 type  3   force =     0.00042385   -0.00029466   -0.00045307
     atom  146 type  3   force =    -0.00044721    0.00012055   -0.00045346
     atom  147 type  3   force =     0.00044721   -0.00012055   -0.00045346
     atom  148 type  3   force =    -0.00042385    0.00029466   -0.00045307
     atom  149 type  3   force =     0.00046559   -0.00026934   -0.00043001
     atom  150 type  3   force =    -0.00048772    0.00052884   -0.00029989
     atom  151 type  1   force =     0.00132055   -0.00089462    0.00220458
     atom  152 type  1   force =    -0.00164037    0.00045585    0.00241337
     atom  153 type  1   force =    -0.00123531   -0.00041714    0.00238100
     atom  154 type  1   force =     0.00123531    0.00041714    0.00238100
     atom  155 type  1   force =     0.00147056   -0.00050374    0.00243003
     atom  156 type  1   force =    -0.00215198    0.00050646    0.00227135
     atom  157 type  1   force =     0.00215198   -0.00050646    0.00227135
     atom  158 type  1   force =    -0.00147056    0.00050374    0.00243003
     atom  159 type  1   force =     0.00164037   -0.00045585    0.00241337
     atom  160 type  1   force =    -0.00132055    0.00089462    0.00220458
     atom  161 type  3   force =     0.00043331   -0.00101918   -0.00337643
     atom  162 type  3   force =    -0.00059452    0.00082731   -0.00269565
     atom  163 type  3   force =    -0.00041923   -0.00096391   -0.00284369
     atom  164 type  3   force =     0.00041923    0.00096391   -0.00284369
     atom  165 type  3   force =     0.00058044   -0.00081860   -0.00268001
     atom  166 type  3   force =    -0.00035829    0.00097611   -0.00276297
     atom  167 type  3   force =     0.00035829   -0.00097611   -0.00276297
     atom  168 type  3   force =    -0.00058044    0.00081860   -0.00268001
     atom  169 type  3   force =     0.00059452   -0.00082731   -0.00269565
     atom  170 type  3   force =    -0.00043331    0.00101918   -0.00337643
     atom  171 type  3   force =    -0.00016805   -0.00041648    0.00025316
     atom  172 type  3   force =     0.00010671    0.00015986    0.00052022
     atom  173 type  3   force =     0.00020802   -0.00028812    0.00007062
     atom  174 type  3   force =    -0.00020802    0.00028812    0.00007062
     atom  175 type  3   force =    -0.00008479   -0.00021249    0.00055237
     atom  176 type  3   force =     0.00010798    0.00062021    0.00052917
     atom  177 type  3   force =    -0.00010798   -0.00062021    0.00052917
     atom  178 type  3   force =     0.00008479    0.00021249    0.00055237
     atom  179 type  3   force =    -0.00010671   -0.00015986    0.00052022
     atom  180 type  3   force =     0.00016805    0.00041648    0.00025316
     atom  181 type  3   force =    -0.00072496   -0.00073946   -0.00026433
     atom  182 type  3   force =     0.00047279    0.00059909   -0.00016818
     atom  183 type  3   force =     0.00009942   -0.00081501   -0.00070257
     atom  184 type  3   force =    -0.00009942    0.00081501   -0.00070257
     atom  185 type  3   force =    -0.00045901   -0.00056102   -0.00013333
     atom  186 type  3   force =     0.00039230    0.00025302   -0.00010286
     atom  187 type  3   force =    -0.00039230   -0.00025302   -0.00010286
     atom  188 type  3   force =     0.00045901    0.00056102   -0.00013333
     atom  189 type  3   force =    -0.00047279   -0.00059909   -0.00016818
     atom  190 type  3   force =     0.00072496    0.00073946   -0.00026433

     Total force =     0.054776     Total SCF correction =     0.000095


     Computing stress (Cartesian axis) and pressure


     negative rho (up, down):  3.408E-04 0.000E+00
          total   stress  (Ry/bohr**3)                   (kbar)     P=   -0.72
   0.00000449  -0.00000135   0.00000000          0.66     -0.20      0.00
  -0.00000135  -0.00000742   0.00000000         -0.20     -1.09      0.00
   0.00000000   0.00000000  -0.00001177          0.00      0.00     -1.73


     Writing output data file scf.save
 
     init_run     :    204.68s CPU    211.17s WALL (       1 calls)
     electrons    :   9290.81s CPU   9536.73s WALL (       1 calls)
     forces       :    105.65s CPU    106.60s WALL (       1 calls)
     stress       :    528.69s CPU    529.83s WALL (       1 calls)

     Called by init_run:
     wfcinit      :    186.73s CPU    192.59s WALL (       1 calls)
     potinit      :      6.03s CPU      6.23s WALL (       1 calls)

     Called by electrons:
     c_bands      :   8431.90s CPU   8637.52s WALL (      19 calls)
     sum_band     :    812.48s CPU    845.95s WALL (      19 calls)
     v_of_rho     :      7.71s CPU      8.42s WALL (      20 calls)
     newd         :     23.34s CPU     29.57s WALL (      20 calls)
     PAW_pot      :     14.54s CPU     14.55s WALL (      20 calls)
     mix_rho      :      1.99s CPU      2.10s WALL (      19 calls)

     Called by c_bands:
     init_us_2    :     25.51s CPU     25.69s WALL (     164 calls)
     cegterg      :   8325.76s CPU   8531.24s WALL (      76 calls)

     Called by sum_band:
     sum_band:bec :      0.18s CPU      0.18s WALL (      76 calls)
     addusdens    :     24.26s CPU     30.17s WALL (      19 calls)

     Called by *egterg:
     h_psi        :   4201.57s CPU   4366.30s WALL (     366 calls)
     s_psi        :   1156.16s CPU   1156.55s WALL (     366 calls)
     g_psi        :     13.29s CPU     13.30s WALL (     286 calls)
     cdiaghg      :    350.74s CPU    350.94s WALL (     362 calls)

     Called by h_psi:
     h_psi:pot    :   4182.52s CPU   4346.98s WALL (     366 calls)
     h_psi:calbec :   1129.82s CPU   1130.81s WALL (     366 calls)
     vloc_psi     :   1895.45s CPU   2058.49s WALL (     366 calls)
     add_vuspsi   :   1157.24s CPU   1157.67s WALL (     366 calls)

     General routines
     calbec       :   1626.12s CPU   1627.56s WALL (     462 calls)
     fft          :      5.14s CPU      6.37s WALL (     284 calls)
     fftw         :   1943.99s CPU   2132.98s WALL (  182696 calls)
 
     Parallel routines
     fft_scatter  :    353.78s CPU    542.81s WALL (  182980 calls)
 
     PWSCF        :     2h49m CPU        2h54m WALL

 
   This run was terminated on:  15:18: 4  13Nov2017            

=------------------------------------------------------------------------------=
   JOB DONE.
=------------------------------------------------------------------------------=
