
     Program PWSCF v.6.1 (svn rev. 13369) starts on  7Dec2017 at  3: 7:53 

     This program is part of the open-source Quantum ESPRESSO suite
     for quantum simulation of materials; please cite
         "P. Giannozzi et al., J. Phys.:Condens. Matter 21 395502 (2009);
          URL http://www.quantum-espresso.org", 
     in publications or presentations arising from this work. More details at
     http://www.quantum-espresso.org/quote

     Parallel version (MPI), running on     8 processors
     R & G space division:  proc/nbgrp/npool/nimage =       8
     Waiting for input...
     Reading input from standard input

     Current dimensions of program PWSCF are:
     Max number of different atomic species (ntypx) = 10
     Max number of k-points (npk) =  40000
     Max angular momentum in pseudopotentials (lmaxx) =  3
               file C.pbe-n-kjpaw_psl.0.1.UPF: wavefunction(s)  2P renormalized
               file N.pbe-n-kjpaw_psl.0.1.UPF: wavefunction(s)  2P renormalized
               file H.pbe-kjpaw_psl.0.1.UPF: wavefunction(s)  1S renormalized
               file O.pbe-n-kjpaw_psl.0.1.UPF: wavefunction(s)  2P renormalized

     -------------------------------------
     Parameters for Dispersion Correction:
     -------------------------------------
       atom      VdW radius       C_6     

        C          2.744         60.710
        N          2.640         42.670
        H          1.892          4.857
        O          2.536         24.284

     Subspace diagonalization in iterative solution of the eigenvalue problem:
     a serial algorithm will be used

 
     Parallelization info
     --------------------
     sticks:   dense  smooth     PW     G-vecs:    dense   smooth      PW
     Min        1721    1721    455                89600    89600   12124
     Max        1722    1722    456                89603    89603   12125
     Sum       13773   13773   3645               716815   716815   96997
 


     bravais-lattice index     =            0
     lattice parameter (alat)  =      16.0457  a.u.
     unit-cell volume          =    5305.7067 (a.u.)^3
     number of atoms/cell      =           84
     number of atomic types    =            4
     number of electrons       =       288.00
     number of Kohn-Sham states=          172
     kinetic-energy cutoff     =     100.0000  Ry
     charge density cutoff     =     400.0000  Ry
     convergence threshold     =      1.0E-08
     mixing beta               =       0.5000
     number of iterations used =            8  plain     mixing
     Exchange-correlation      =  SLA  PW   PBX  PBC ( 1  4  3  4 0 0)

     celldm(1)=  16.045665  celldm(2)=   0.000000  celldm(3)=   0.000000
     celldm(4)=   0.000000  celldm(5)=   0.000000  celldm(6)=   0.000000

     crystal axes: (cart. coord. in units of alat)
               a(1) = (   1.000000   0.000000   0.000000 )  
               a(2) = (   0.000000   1.681781   0.000000 )  
               a(3) = (  -0.098993   0.000000   0.763661 )  

     reciprocal axes: (cart. coord. in units 2 pi/alat)
               b(1) = (  1.000000  0.000000  0.129629 )  
               b(2) = (  0.000000  0.594608  0.000000 )  
               b(3) = (  0.000000  0.000000  1.309481 )  


     PseudoPot. # 1 for  C read from file:
     /scratch/ahofstet/pseudo/C.pbe-n-kjpaw_psl.0.1.UPF
     MD5 check sum: 430fe95172b1e11ef3f8ed03bac87931
     Pseudo is Projector augmented-wave + core cor, Zval =  4.0
     Generated using "atomic" code by A. Dal Corso  v.5.0.99 svn rev. 10869
     Shape of augmentation charge: BESSEL
     Using radial grid of 1073 points,  4 beta functions with: 
                l(1) =   0
                l(2) =   0
                l(3) =   1
                l(4) =   1
     Q(r) pseudized with 0 coefficients 


     PseudoPot. # 2 for  N read from file:
     /scratch/ahofstet/pseudo/N.pbe-n-kjpaw_psl.0.1.UPF
     MD5 check sum: f73187c8b701007e77325f868c9291d7
     Pseudo is Projector augmented-wave + core cor, Zval =  5.0
     Generated using "atomic" code by A. Dal Corso  v.5.0.99 svn rev. 10869
     Shape of augmentation charge: PSQ
     Using radial grid of 1085 points,  4 beta functions with: 
                l(1) =   0
                l(2) =   0
                l(3) =   1
                l(4) =   1
     Q(r) pseudized with 0 coefficients 


     PseudoPot. # 3 for  H read from file:
     /scratch/ahofstet/pseudo/H.pbe-kjpaw_psl.0.1.UPF
     MD5 check sum: 94e484f906d9e9773b2f6e52662335b2
     Pseudo is Projector augmented-wave, Zval =  1.0
     Generated using "atomic" code by A. Dal Corso  v.5.0.99 svn rev. 10869
     Shape of augmentation charge: PSQ
     Using radial grid of  929 points,  2 beta functions with: 
                l(1) =   0
                l(2) =   0
     Q(r) pseudized with 0 coefficients 


     PseudoPot. # 4 for  O read from file:
     /scratch/ahofstet/pseudo/O.pbe-n-kjpaw_psl.0.1.UPF
     MD5 check sum: 3f94a2996a3169367d6eb21d9b593f20
     Pseudo is Projector augmented-wave + core cor, Zval =  6.0
     Generated using "atomic" code by A. Dal Corso  v.5.0.99 svn rev. 10869
     Shape of augmentation charge: BESSEL
     Using radial grid of 1095 points,  4 beta functions with: 
                l(1) =   0
                l(2) =   0
                l(3) =   1
                l(4) =   1
     Q(r) pseudized with 0 coefficients 


     atomic species   valence    mass     pseudopotential
        C              4.00    12.01070      C( 1.00)
        N              5.00    14.00670      N( 1.00)
        H              1.00     1.00794      H( 1.00)
        O              6.00    15.99940      O( 1.00)

      2 Sym. Ops., with inversion, found



   Cartesian axes

     site n.     atom                  positions (alat units)
         1           O   tau(   1) = (   0.5041165   1.4815926   0.1836263  )
         2           O   tau(   2) = (   0.4464869   0.6406252   0.1981908  )
         3           O   tau(   3) = (   0.3968910   0.2001881   0.5800350  )
         4           O   tau(   4) = (   0.4545206   1.0411555   0.5654704  )
         5           O   tau(   5) = (   0.1331289   1.1405684   0.0936315  )
         6           O   tau(   6) = (   0.8173440   0.2994422   0.2881955  )
         7           O   tau(   7) = (   0.7678785   0.5412124   0.6700298  )
         8           O   tau(   8) = (   0.0836635   1.3823385   0.4754657  )
         9           H   tau(   9) = (   0.1986605   1.2787955   0.1076613  )
        10           H   tau(  10) = (   0.7518550   0.4376875   0.2741835  )
        11           H   tau(  11) = (   0.7023470   0.4029852   0.6559999  )
        12           H   tau(  12) = (   0.1491525   1.2440932   0.4894777  )
        13           N   tau(  13) = (   0.5047519   0.9530720   0.1950073  )
        14           N   tau(  14) = (   0.4456529   0.1120531   0.1868063  )
        15           N   tau(  15) = (   0.3962555   0.7287087   0.5686540  )
        16           N   tau(  16) = (   0.4553545   1.5697276   0.5768549  )
        17           H   tau(  17) = (   0.4853594   0.8299000   0.1961232  )
        18           H   tau(  18) = (   0.4650525  -0.0110926   0.1856714  )
        19           H   tau(  19) = (   0.4156481   0.8518807   0.5675380  )
        20           H   tau(  20) = (   0.4359549   1.6928733   0.5779899  )
        21           O   tau(  21) = (   0.2627734   1.3946985   0.1207585  )
        22           O   tau(  22) = (   0.6878016   0.5536254   0.2610998  )
        23           O   tau(  23) = (   0.6382341   0.2870822   0.6429027  )
        24           O   tau(  24) = (   0.2132058   1.1281553   0.5025614  )
        25           N   tau(  25) = (   0.6200163   1.1799450   0.2197347  )
        26           N   tau(  26) = (   0.3304644   0.3390061   0.1621023  )
        27           N   tau(  27) = (   0.2809912   0.5018357   0.5439265  )
        28           N   tau(  28) = (   0.5705431   1.3427747   0.6015589  )
        29           H   tau(  29) = (   0.7087435   1.2687870   0.2422397  )
        30           H   tau(  30) = (   0.2418097   0.4278757   0.1396252  )
        31           H   tau(  31) = (   0.1922639   0.4129937   0.5214215  )
        32           H   tau(  32) = (   0.6591978   1.2539050   0.6240360  )
        33           C   tau(  33) = (   0.4659858   1.2093262   0.1783042  )
        34           C   tau(  34) = (   0.4845328   0.3683435   0.2035462  )
        35           C   tau(  35) = (   0.4350217   0.4724545   0.5853570  )
        36           C   tau(  36) = (   0.4164746   1.3134372   0.5601150  )
        37           C   tau(  37) = (   0.3921496   1.0647096   0.1627230  )
        38           C   tau(  38) = (   0.5583239   0.2236622   0.2191093  )
        39           C   tau(  39) = (   0.5088579   0.6170711   0.6009382  )
        40           C   tau(  40) = (   0.3426835   1.4581185   0.5445519  )
        41           C   tau(  41) = (   0.4088353   1.3729064   0.1602439  )
        42           C   tau(  42) = (   0.5417124   0.5318701   0.2215886  )
        43           C   tau(  43) = (   0.4921722   0.3088743   0.6034173  )
        44           C   tau(  44) = (   0.3592950   1.1499106   0.5420726  )
        45           C   tau(  45) = (   0.6425682   1.0241262   0.2292119  )
        46           C   tau(  46) = (   0.3078765   0.1831921   0.1526106  )
        47           C   tau(  47) = (   0.2584393   0.6576545   0.5344493  )
        48           C   tau(  48) = (   0.5931309   1.4985886   0.6110507  )
        49           C   tau(  49) = (   0.2264098   1.0227496   0.1199697  )
        50           C   tau(  50) = (   0.7240212   0.1816293   0.2618562  )
        51           C   tau(  51) = (   0.6745976   0.6590311   0.6436915  )
        52           C   tau(  52) = (   0.1769862   1.5001514   0.5018050  )
        53           O   tau(  53) = (   0.1887231   0.8821643   0.1120678  )
        54           O   tau(  54) = (   0.7616962   0.0410475   0.2697669  )
        55           O   tau(  55) = (   0.7122843   0.7996164   0.6515934  )
        56           O   tau(  56) = (   0.1393113   1.6407332   0.4938943  )
        57           C   tau(  57) = (   0.7933763   0.9465339   0.2668639  )
        58           C   tau(  58) = (   0.1570178   0.1056898   0.1149406  )
        59           C   tau(  59) = (   0.1076312   0.7352468   0.4967973  )
        60           C   tau(  60) = (   0.7439896   1.5760909   0.6487206  )
        61           H   tau(  61) = (   0.8471173   0.8980573   0.1593620  )
        62           H   tau(  62) = (   0.1032684   0.0571881   0.2224228  )
        63           H   tau(  63) = (   0.0538901   0.7837234   0.6042992  )
        64           H   tau(  64) = (   0.7977391   1.6245926   0.5412384  )
        65           H   tau(  65) = (   0.7744797   0.8494365   0.3499589  )
        66           H   tau(  66) = (   0.1758463   0.0086355   0.0317858  )
        67           H   tau(  67) = (   0.1265278   0.8323442   0.4137023  )
        68           H   tau(  68) = (   0.7251612   1.6731452   0.7318755  )
        69           H   tau(  69) = (   0.8741106   1.0326277   0.3190309  )
        70           H   tau(  70) = (   0.0763269   0.1918612   0.0628373  )
        71           H   tau(  71) = (   0.0268968   0.6491530   0.4446303  )
        72           H   tau(  72) = (   0.8246806   1.4899195   0.7008239  )
        73           O   tau(  73) = (   0.8387059   1.3970569   0.2629309  )
        74           O   tau(  74) = (   0.1118372   0.5562214   0.1189249  )
        75           O   tau(  75) = (   0.0623016   0.2847238   0.5007303  )
        76           O   tau(  76) = (   0.7891703   1.1255593   0.6447363  )
        77           H   tau(  77) = (   0.9238103   1.3948973   0.3425858  )
        78           H   tau(  78) = (   0.0267256   0.5539841   0.0392667  )
        79           H   tau(  79) = (  -0.0228028   0.2868834   0.4210754  )
        80           H   tau(  80) = (   0.8742819   1.1277966   0.7243945  )
        81           H   tau(  81) = (   0.7975052   1.5049885   0.2615162  )
        82           H   tau(  82) = (   0.1529844   0.6641627   0.1203057  )
        83           H   tau(  83) = (   0.1035022   0.1767922   0.5021451  )
        84           H   tau(  84) = (   0.7480230   1.0176180   0.6433555  )

     number of k points=     8
                       cart. coord. in units 2pi/alat
        k(    1) = (   0.0000000   0.0000000   0.0000000), wk =   0.1666667
        k(    2) = (   0.0000000   0.0000000   0.4364937), wk =   0.3333333
        k(    3) = (   0.0000000  -0.2973039   0.0000000), wk =   0.1666667
        k(    4) = (   0.0000000  -0.2973039   0.4364937), wk =   0.3333333
        k(    5) = (  -0.5000000   0.0000000  -0.0648144), wk =   0.1666667
        k(    6) = (  -0.5000000   0.0000000   0.3716793), wk =   0.3333333
        k(    7) = (  -0.5000000  -0.2973039  -0.0648144), wk =   0.1666667
        k(    8) = (  -0.5000000  -0.2973039   0.3716793), wk =   0.3333333

     Dense  grid:   716815 G-vectors     FFT dimensions: ( 108, 180,  80)

     Estimated max dynamical RAM per process >     650.73MB

     Estimated total allocated dynamical RAM >    5205.85MB

     Check: negative/imaginary core charge=   -0.000002    0.000000

     Initial potential from superposition of free atoms

     starting charge  287.99861, renormalised to  288.00000
     Starting wfc are  240 randomized atomic wfcs
     Checking if some PAW data can be deallocated... 

     total cpu time spent up to now is       39.7 secs

     per-process dynamical memory:   454.4 Mb

     Self-consistent Calculation

     iteration #  1     ecut=   100.00 Ry     beta=0.50
     Davidson diagonalization with overlap
     ethr =  1.00E-02,  avg # of iterations =  3.6

     total cpu time spent up to now is      147.2 secs

     total energy              =   -1538.37930830 Ry
     Harris-Foulkes estimate   =   -1543.22309341 Ry
     estimated scf accuracy    <       8.65806224 Ry

     iteration #  2     ecut=   100.00 Ry     beta=0.50
     Davidson diagonalization with overlap
     ethr =  3.01E-03,  avg # of iterations =  3.1

     total cpu time spent up to now is      219.2 secs

     total energy              =   -1539.86235621 Ry
     Harris-Foulkes estimate   =   -1540.59053276 Ry
     estimated scf accuracy    <       1.51703220 Ry

     iteration #  3     ecut=   100.00 Ry     beta=0.50
     Davidson diagonalization with overlap
     ethr =  5.27E-04,  avg # of iterations =  6.5

     total cpu time spent up to now is      318.2 secs

     total energy              =   -1540.31238926 Ry
     Harris-Foulkes estimate   =   -1540.47519998 Ry
     estimated scf accuracy    <       0.40511617 Ry

     iteration #  4     ecut=   100.00 Ry     beta=0.50
     Davidson diagonalization with overlap
     ethr =  1.41E-04,  avg # of iterations =  3.9

     total cpu time spent up to now is      382.5 secs

     total energy              =   -1540.35208909 Ry
     Harris-Foulkes estimate   =   -1540.38431076 Ry
     estimated scf accuracy    <       0.08131060 Ry

     iteration #  5     ecut=   100.00 Ry     beta=0.50
     Davidson diagonalization with overlap
     ethr =  2.82E-05,  avg # of iterations =  8.5

     total cpu time spent up to now is      490.6 secs

     total energy              =   -1540.37935681 Ry
     Harris-Foulkes estimate   =   -1540.38936734 Ry
     estimated scf accuracy    <       0.03077142 Ry

     iteration #  6     ecut=   100.00 Ry     beta=0.50
     Davidson diagonalization with overlap
     ethr =  1.07E-05,  avg # of iterations =  2.0

     total cpu time spent up to now is      546.7 secs

     total energy              =   -1540.38003606 Ry
     Harris-Foulkes estimate   =   -1540.38270777 Ry
     estimated scf accuracy    <       0.00571214 Ry

     iteration #  7     ecut=   100.00 Ry     beta=0.50
     Davidson diagonalization with overlap
     ethr =  1.98E-06,  avg # of iterations =  5.8

     total cpu time spent up to now is      648.3 secs

     total energy              =   -1540.38280965 Ry
     Harris-Foulkes estimate   =   -1540.38303385 Ry
     estimated scf accuracy    <       0.00103149 Ry

     iteration #  8     ecut=   100.00 Ry     beta=0.50
     Davidson diagonalization with overlap
     ethr =  3.58E-07,  avg # of iterations =  2.0

     total cpu time spent up to now is      706.6 secs

     total energy              =   -1540.38272348 Ry
     Harris-Foulkes estimate   =   -1540.38291813 Ry
     estimated scf accuracy    <       0.00047111 Ry

     iteration #  9     ecut=   100.00 Ry     beta=0.50
     Davidson diagonalization with overlap
     ethr =  1.64E-07,  avg # of iterations =  4.0

     total cpu time spent up to now is      774.0 secs

     total energy              =   -1540.38278901 Ry
     Harris-Foulkes estimate   =   -1540.38280839 Ry
     estimated scf accuracy    <       0.00004184 Ry

     iteration # 10     ecut=   100.00 Ry     beta=0.50
     Davidson diagonalization with overlap
     ethr =  1.45E-08,  avg # of iterations =  4.0

     total cpu time spent up to now is      879.3 secs

     total energy              =   -1540.38280858 Ry
     Harris-Foulkes estimate   =   -1540.38281902 Ry
     estimated scf accuracy    <       0.00002405 Ry

     iteration # 11     ecut=   100.00 Ry     beta=0.50
     Davidson diagonalization with overlap
     ethr =  8.35E-09,  avg # of iterations =  2.8

     total cpu time spent up to now is      937.6 secs

     total energy              =   -1540.38280968 Ry
     Harris-Foulkes estimate   =   -1540.38281124 Ry
     estimated scf accuracy    <       0.00000372 Ry

     iteration # 12     ecut=   100.00 Ry     beta=0.50
     Davidson diagonalization with overlap
     ethr =  1.29E-09,  avg # of iterations =  4.0

     total cpu time spent up to now is     1031.4 secs

     total energy              =   -1540.38281223 Ry
     Harris-Foulkes estimate   =   -1540.38281252 Ry
     estimated scf accuracy    <       0.00000084 Ry

     iteration # 13     ecut=   100.00 Ry     beta=0.50
     Davidson diagonalization with overlap
     ethr =  2.92E-10,  avg # of iterations =  1.0

     total cpu time spent up to now is     1085.4 secs

     total energy              =   -1540.38281221 Ry
     Harris-Foulkes estimate   =   -1540.38281231 Ry
     estimated scf accuracy    <       0.00000021 Ry

     iteration # 14     ecut=   100.00 Ry     beta=0.50
     Davidson diagonalization with overlap
     ethr =  7.41E-11,  avg # of iterations =  4.0

     total cpu time spent up to now is     1175.0 secs

     total energy              =   -1540.38281233 Ry
     Harris-Foulkes estimate   =   -1540.38281235 Ry
     estimated scf accuracy    <       0.00000006 Ry

     iteration # 15     ecut=   100.00 Ry     beta=0.50
     Davidson diagonalization with overlap
     ethr =  1.91E-11,  avg # of iterations =  1.2

     total cpu time spent up to now is     1229.9 secs

     total energy              =   -1540.38281232 Ry
     Harris-Foulkes estimate   =   -1540.38281233 Ry
     estimated scf accuracy    <       0.00000002 Ry

     iteration # 16     ecut=   100.00 Ry     beta=0.50
     Davidson diagonalization with overlap
     ethr =  8.02E-12,  avg # of iterations =  4.0

     total cpu time spent up to now is     1311.2 secs

     End of self-consistent calculation

          k = 0.0000 0.0000 0.0000 ( 89615 PWs)   bands (ev):

   -20.7849 -20.7461 -20.6773 -20.6528 -20.1038 -20.0399 -20.0318 -19.9958
   -19.8166 -19.8131 -19.7858 -19.7839 -18.4837 -18.4784 -18.4782 -18.4724
   -18.0216 -17.9540 -17.9084 -17.8654 -17.7308 -17.6875 -17.6235 -17.5887
   -16.3266 -16.2501 -16.2329 -16.2010 -13.6078 -13.5630 -13.5468 -13.5248
   -11.2833 -11.2429 -11.2385 -11.2220 -10.3602 -10.3184 -10.1320 -10.0627
    -9.7065  -9.6750  -9.5760  -9.4832  -8.4700  -8.4034  -8.3870  -8.3676
    -7.6901  -7.6523  -7.6490  -7.6257  -7.0619  -7.0589  -7.0198  -6.8633
    -6.4202  -6.3997  -6.2204  -6.1574  -6.0963  -6.0717  -5.9838  -5.9638
    -5.8739  -5.8424  -5.6315  -5.5263  -5.3729  -5.3505  -5.2833  -5.1387
    -4.9676  -4.9661  -4.8109  -4.7730  -4.4331  -4.3337  -4.2696  -4.2326
    -4.2199  -4.1885  -4.1705  -4.1211  -4.0720  -4.0663  -4.0661  -3.9852
    -3.9221  -3.7851  -3.7371  -3.7021  -3.6986  -3.6044  -3.5788  -3.5254
    -3.0576  -3.0552  -2.9608  -2.9376  -2.8947  -2.8501  -2.7878  -2.7236
    -2.4815  -2.3978  -2.2430  -2.1853  -1.9420  -1.9026  -1.8963  -1.8876
    -1.7308  -1.5020  -1.3359  -1.1709  -0.9019  -0.8378  -0.7057  -0.6514
    -0.5202  -0.4717  -0.3083  -0.2654  -0.2612  -0.2260  -0.2197  -0.1908
    -0.1737  -0.1723  -0.0933  -0.0872  -0.0605   0.0638   0.0909   0.1709
     0.2059   0.2476   0.3525   0.4206   0.4614   0.5234   0.5745   0.6225
     3.8908   4.0045   4.2615   4.4315   5.1411   5.4037   5.4046   5.4079
     6.5084   6.6394   6.7272   6.8228   6.8990   7.4175   7.5573   8.1836
     8.4222   8.5486   8.5603   8.6057   8.6149   8.7756   8.9119   8.9140
     9.0462   9.0513   9.0830   9.1256

          k = 0.0000 0.0000 0.4365 ( 89595 PWs)   bands (ev):

   -20.7574 -20.7218 -20.7033 -20.6747 -20.0878 -20.0517 -20.0295 -20.0071
   -19.8092 -19.8052 -19.7938 -19.7905 -18.4827 -18.4793 -18.4790 -18.4753
   -18.0068 -17.9735 -17.8966 -17.8744 -17.7200 -17.6981 -17.6140 -17.5967
   -16.3077 -16.2694 -16.2250 -16.2090 -13.5948 -13.5644 -13.5552 -13.5361
   -11.2809 -11.2616 -11.2306 -11.2170 -10.3506 -10.3299 -10.1155 -10.0811
    -9.6999  -9.6840  -9.5543  -9.5080  -8.4594  -8.4283  -8.3806  -8.3728
    -7.6796  -7.6571  -7.6526  -7.6416  -7.0698  -7.0667  -6.9868  -6.9101
    -6.4238  -6.4099  -6.2141  -6.1831  -6.0724  -6.0247  -5.9054  -5.8621
    -5.7625  -5.6762  -5.6089  -5.5542  -5.3840  -5.3197  -5.2918  -5.2433
    -4.9594  -4.9589  -4.8081  -4.7885  -4.3547  -4.3467  -4.3147  -4.2811
    -4.2427  -4.2079  -4.1582  -4.1571  -4.0868  -4.0709  -4.0065  -3.9612
    -3.8950  -3.8517  -3.8049  -3.8015  -3.6934  -3.6498  -3.5927  -3.5417
    -3.0265  -2.9639  -2.9507  -2.9390  -2.8759  -2.8735  -2.7900  -2.7630
    -2.4527  -2.3990  -2.2263  -2.1891  -1.9431  -1.9141  -1.8767  -1.8633
    -1.6081  -1.4843  -1.4029  -1.3207  -0.9294  -0.8527  -0.8317  -0.7456
    -0.5120  -0.5000  -0.3339  -0.3331  -0.2454  -0.2337  -0.2185  -0.1987
    -0.1969  -0.1517  -0.1403  -0.0842  -0.0033   0.0743   0.1184   0.1648
     0.2083   0.2691   0.3209   0.3476   0.4764   0.5156   0.5808   0.6098
     3.9370   4.0696   4.1088   4.2746   5.1792   5.3093   5.3893   5.3919
     6.5341   6.6473   6.6852   6.7817   7.3495   7.9003   8.0174   8.4264
     8.4981   8.5636   8.6402   8.6531   8.7730   8.8433   8.9595   8.9866
     9.1077   9.2427   9.3000   9.3614

          k = 0.0000-0.2973 0.0000 ( 89678 PWs)   bands (ev):

   -20.7665 -20.7662 -20.6654 -20.6650 -20.0723 -20.0722 -20.0135 -20.0133
   -19.8143 -19.8142 -19.7843 -19.7841 -18.4831 -18.4823 -18.4769 -18.4760
   -17.9903 -17.9898 -17.8793 -17.8787 -17.7136 -17.7133 -17.6058 -17.6056
   -16.2818 -16.2813 -16.2234 -16.2229 -13.5872 -13.5871 -13.5353 -13.5352
   -11.2718 -11.2709 -11.2259 -11.2252 -10.2292 -10.2288 -10.1775 -10.1772
    -9.6608  -9.6596  -9.6164  -9.6153  -8.4225  -8.4225  -8.3789  -8.3788
    -7.6775  -7.6762  -7.6330  -7.6317  -7.0426  -7.0419  -6.9428  -6.9426
    -6.3019  -6.2999  -6.2357  -6.2349  -6.0308  -6.0305  -5.9576  -5.9574
    -5.8219  -5.8215  -5.6103  -5.6094  -5.5646  -5.5633  -5.2545  -5.2543
    -4.9613  -4.9613  -4.7751  -4.7741  -4.3800  -4.3786  -4.2214  -4.2210
    -4.1562  -4.1559  -4.1483  -4.1482  -4.0931  -4.0921  -3.9422  -3.9416
    -3.8481  -3.8470  -3.7515  -3.7507  -3.6882  -3.6880  -3.5535  -3.5528
    -3.0337  -3.0334  -2.9678  -2.9678  -2.8740  -2.8732  -2.7528  -2.7527
    -2.4656  -2.4655  -2.1788  -2.1785  -1.9510  -1.9506  -1.8675  -1.8671
    -1.6305  -1.6302  -1.2423  -1.2422  -0.8624  -0.8621  -0.6773  -0.6771
    -0.3926  -0.3924  -0.3605  -0.3601  -0.2493  -0.2489  -0.2076  -0.2075
    -0.1962  -0.1955  -0.1117  -0.1115   0.0325   0.0326   0.1407   0.1410
     0.1878   0.1879   0.3808   0.3811   0.5269   0.5279   0.5750   0.5762
     3.9476   3.9476   4.3378   4.3378   5.2639   5.2648   5.4209   5.4221
     6.5730   6.5732   6.8622   6.8623   6.9399   6.9400   8.1928   8.1931
     8.3401   8.3401   8.5302   8.5304   8.5768   8.5774   8.9673   8.9675
     9.0026   9.0028   9.2017   9.2023

          k = 0.0000-0.2973 0.4365 ( 89640 PWs)   bands (ev):

   -20.7404 -20.7401 -20.6896 -20.6892 -20.0593 -20.0591 -20.0289 -20.0286
   -19.8068 -19.8066 -19.7915 -19.7913 -18.4836 -18.4818 -18.4791 -18.4772
   -17.9856 -17.9851 -17.8862 -17.8856 -17.7088 -17.7086 -17.6084 -17.6082
   -16.2674 -16.2669 -16.2381 -16.2377 -13.5763 -13.5762 -13.5503 -13.5502
   -11.2735 -11.2725 -11.2261 -11.2252 -10.2176 -10.2169 -10.1903 -10.1895
    -9.6515  -9.6504  -9.6293  -9.6281  -8.4262  -8.4260  -8.3821  -8.3818
    -7.6712  -7.6698  -7.6458  -7.6444  -7.0328  -7.0322  -6.9655  -6.9652
    -6.3120  -6.3101  -6.2519  -6.2505  -5.9833  -5.9819  -5.8206  -5.8194
    -5.7333  -5.7330  -5.6096  -5.6088  -5.5567  -5.5554  -5.3121  -5.3121
    -4.9516  -4.9511  -4.7851  -4.7840  -4.3424  -4.3418  -4.2567  -4.2555
    -4.2276  -4.2270  -4.1257  -4.1249  -4.0856  -4.0853  -3.9343  -3.9342
    -3.8532  -3.8528  -3.8093  -3.8091  -3.6965  -3.6959  -3.6035  -3.6028
    -2.9955  -2.9948  -2.9295  -2.9292  -2.8831  -2.8823  -2.7908  -2.7907
    -2.4281  -2.4277  -2.1900  -2.1897  -1.9414  -1.9409  -1.8553  -1.8548
    -1.5510  -1.5507  -1.3566  -1.3566  -0.8907  -0.8902  -0.7861  -0.7858
    -0.4164  -0.4156  -0.3649  -0.3642  -0.2934  -0.2929  -0.2150  -0.2144
    -0.1870  -0.1867  -0.1034  -0.1030   0.0629   0.0630   0.1161   0.1165
     0.2293   0.2296   0.3296   0.3301   0.5159   0.5169   0.5763   0.5776
     4.0015   4.0018   4.1873   4.1877   5.2782   5.2791   5.3603   5.3615
     6.5885   6.5887   6.7373   6.7376   7.5246   7.5246   8.3604   8.3606
     8.5754   8.5755   8.6799   8.6805   8.7868   8.7870   8.9326   8.9336
     9.0369   9.0372   9.3038   9.3050

          k =-0.5000 0.0000-0.0648 ( 89572 PWs)   bands (ev):

   -20.7823 -20.7447 -20.6784 -20.6532 -20.0995 -20.0465 -20.0330 -19.9853
   -19.8288 -19.8240 -19.7858 -19.7747 -18.4812 -18.4799 -18.4779 -18.4758
   -18.0050 -17.9650 -17.8860 -17.8789 -17.7245 -17.6973 -17.6211 -17.5958
   -16.3258 -16.2499 -16.2332 -16.2006 -13.5973 -13.5627 -13.5453 -13.5114
   -11.3130 -11.2730 -11.2656 -11.2048 -10.3635 -10.3177 -10.1304 -10.0791
    -9.7042  -9.6919  -9.5723  -9.4937  -8.4420  -8.4162  -8.3658  -8.3585
    -7.6559  -7.6342  -7.6291  -7.5900  -7.0649  -6.9957  -6.9912  -6.9178
    -6.4298  -6.3964  -6.2195  -6.1198  -6.0652  -6.0620  -6.0469  -5.9345
    -5.9250  -5.8267  -5.5890  -5.5817  -5.3783  -5.3341  -5.2950  -5.1622
    -4.9615  -4.9440  -4.8211  -4.8072  -4.4188  -4.3463  -4.2970  -4.2679
    -4.2302  -4.2152  -4.1786  -4.1751  -4.1240  -4.0741  -4.0661  -3.9088
    -3.8312  -3.8284  -3.7058  -3.6980  -3.6090  -3.6038  -3.5816  -3.5397
    -3.1085  -3.0357  -2.9912  -2.9316  -2.9239  -2.9142  -2.7877  -2.7556
    -2.4248  -2.3654  -2.2294  -2.2267  -1.9507  -1.9118  -1.9067  -1.8598
    -1.7940  -1.5731  -1.3283  -1.1676  -0.8730  -0.8395  -0.7071  -0.6493
    -0.5215  -0.4187  -0.3672  -0.3305  -0.2585  -0.2269  -0.2084  -0.1786
    -0.1360  -0.1349  -0.1011  -0.0864   0.0166   0.0805   0.1392   0.1442
     0.1911   0.2671   0.3265   0.4838   0.4893   0.5435   0.5491   0.6072
     3.9064   4.0200   4.2642   4.4394   5.1308   5.3790   5.3842   5.3890
     6.5253   6.6627   6.8328   6.8977   7.0985   7.2222   7.7041   7.8815
     7.8852   7.9642   8.5380   8.5429   8.5959   8.8163   8.8878   8.9649
     9.1227   9.1832   9.3256   9.4989

          k =-0.5000 0.0000 0.3717 ( 89568 PWs)   bands (ev):

   -20.7558 -20.7209 -20.7036 -20.6748 -20.0844 -20.0509 -20.0328 -20.0022
   -19.8163 -19.8118 -19.7953 -19.7868 -18.4821 -18.4813 -18.4790 -18.4777
   -17.9962 -17.9764 -17.8841 -17.8803 -17.7173 -17.7036 -17.6139 -17.6014
   -16.3072 -16.2693 -16.2251 -16.2088 -13.5855 -13.5595 -13.5501 -13.5245
   -11.2998 -11.2804 -11.2608 -11.2301 -10.3543 -10.3315 -10.1203 -10.0945
    -9.7023  -9.6961  -9.5544  -9.5151  -8.4408  -8.4284  -8.3579  -8.3537
    -7.6524  -7.6385  -7.6199  -7.5987  -7.0560  -7.0318  -6.9514  -6.9224
    -6.4321  -6.4146  -6.2116  -6.1653  -6.0818  -6.0697  -5.9120  -5.8757
    -5.7580  -5.6603  -5.5931  -5.5832  -5.3741  -5.3111  -5.3068  -5.2651
    -4.9635  -4.9623  -4.8008  -4.7922  -4.3998  -4.3358  -4.2998  -4.2933
    -4.2607  -4.2225  -4.1934  -4.1743  -4.1478  -4.1202  -4.0668  -3.9147
    -3.8876  -3.8626  -3.7837  -3.7809  -3.5832  -3.5802  -3.5715  -3.5334
    -3.0306  -3.0176  -2.9828  -2.9545  -2.9094  -2.9066  -2.7956  -2.7945
    -2.4005  -2.3716  -2.2199  -2.2194  -1.9693  -1.9426  -1.8815  -1.8622
    -1.6347  -1.4963  -1.3872  -1.3159  -0.9019  -0.8644  -0.8210  -0.7453
    -0.5111  -0.4572  -0.3859  -0.3362  -0.2749  -0.2285  -0.2125  -0.1731
    -0.1693  -0.1474  -0.1029  -0.0766   0.0200   0.0525   0.1477   0.1550
     0.2176   0.2911   0.3145   0.3752   0.4987   0.5097   0.5828   0.6036
     3.9464   4.0795   4.1094   4.2811   5.1646   5.2931   5.3611   5.3688
     6.5325   6.6746   6.7019   6.7827   7.6058   7.8581   8.0823   8.2846
     8.3833   8.5292   8.5804   8.6290   8.6700   8.7656   8.7679   8.8342
     9.0801   9.1459   9.2688   9.3391

          k =-0.5000-0.2973-0.0648 ( 89612 PWs)   bands (ev):

   -20.7645 -20.7641 -20.6662 -20.6658 -20.0735 -20.0735 -20.0088 -20.0088
   -19.8253 -19.8250 -19.7803 -19.7800 -18.4829 -18.4813 -18.4788 -18.4771
   -17.9815 -17.9809 -17.8821 -17.8814 -17.7116 -17.7114 -17.6108 -17.6105
   -16.2817 -16.2812 -16.2230 -16.2226 -13.5806 -13.5806 -13.5289 -13.5289
   -11.3037 -11.3028 -11.2290 -11.2283 -10.2319 -10.2317 -10.1821 -10.1818
    -9.6652  -9.6633  -9.6232  -9.6214  -8.4074  -8.4073  -8.3737  -8.3736
    -7.6530  -7.6519  -7.6025  -7.6014  -6.9975  -6.9969  -6.9689  -6.9687
    -6.2983  -6.2962  -6.2356  -6.2350  -6.0110  -6.0107  -5.9829  -5.9828
    -5.7864  -5.7857  -5.6552  -5.6544  -5.5621  -5.5608  -5.2625  -5.2622
    -4.9519  -4.9517  -4.7963  -4.7953  -4.3821  -4.3810  -4.2589  -4.2585
    -4.2136  -4.2131  -4.1454  -4.1445  -4.0831  -4.0825  -3.8981  -3.8980
    -3.8163  -3.8163  -3.7742  -3.7738  -3.6165  -3.6164  -3.5948  -3.5942
    -3.0182  -3.0176  -3.0052  -3.0047  -2.9117  -2.9110  -2.7712  -2.7710
    -2.4434  -2.4433  -2.1806  -2.1802  -1.9382  -1.9376  -1.8677  -1.8671
    -1.6986  -1.6982  -1.2394  -1.2393  -0.8515  -0.8510  -0.6749  -0.6745
    -0.4089  -0.4088  -0.3396  -0.3394  -0.2763  -0.2760  -0.2055  -0.2053
    -0.1742  -0.1740  -0.0835  -0.0833   0.0687   0.0690   0.1269   0.1272
     0.1951   0.1953   0.4094   0.4098   0.5265   0.5273   0.5779   0.5791
     3.9631   3.9631   4.3426   4.3427   5.2520   5.2530   5.3966   5.3979
     6.5924   6.5927   6.8657   6.8659   7.2701   7.2702   7.4602   7.4603
     8.2871   8.2871   8.5208   8.5208   8.6113   8.6118   8.9402   8.9408
     9.1231   9.1234   9.4110   9.4117

          k =-0.5000-0.2973 0.3717 ( 89508 PWs)   bands (ev):

   -20.7392 -20.7388 -20.6898 -20.6893 -20.0589 -20.0588 -20.0263 -20.0262
   -19.8135 -19.8131 -19.7906 -19.7903 -18.4847 -18.4820 -18.4807 -18.4779
   -17.9808 -17.9802 -17.8841 -17.8834 -17.7096 -17.7093 -17.6113 -17.6110
   -16.2673 -16.2669 -16.2378 -16.2374 -13.5691 -13.5690 -13.5419 -13.5418
   -11.2953 -11.2943 -11.2448 -11.2440 -10.2221 -10.2217 -10.1968 -10.1964
    -9.6570  -9.6551  -9.6346  -9.6328  -8.4157  -8.4153  -8.3652  -8.3647
    -7.6471  -7.6456  -7.6088  -7.6073  -6.9999  -6.9993  -6.9624  -6.9620
    -6.3035  -6.3016  -6.2679  -6.2666  -5.9904  -5.9892  -5.8193  -5.8182
    -5.7196  -5.7195  -5.6406  -5.6398  -5.5735  -5.5723  -5.3021  -5.3020
    -4.9560  -4.9555  -4.7865  -4.7854  -4.3434  -4.3433  -4.2576  -4.2571
    -4.2522  -4.2512  -4.1866  -4.1860  -4.0903  -4.0898  -3.9618  -3.9614
    -3.8720  -3.8718  -3.7976  -3.7972  -3.5990  -3.5989  -3.5673  -3.5672
    -3.0281  -3.0276  -2.9598  -2.9594  -2.9026  -2.9018  -2.7978  -2.7974
    -2.4287  -2.4282  -2.1830  -2.1826  -1.9490  -1.9484  -1.8676  -1.8670
    -1.5711  -1.5708  -1.3476  -1.3475  -0.8828  -0.8822  -0.7793  -0.7787
    -0.4095  -0.4091  -0.3465  -0.3460  -0.3232  -0.3225  -0.2179  -0.2176
    -0.1616  -0.1614  -0.0850  -0.0846   0.0737   0.0743   0.1097   0.1102
     0.2390   0.2394   0.3502   0.3507   0.5174   0.5184   0.5804   0.5816
     4.0107   4.0111   4.1908   4.1914   5.2615   5.2625   5.3369   5.3380
     6.5986   6.5989   6.7457   6.7460   7.7456   7.7457   8.1331   8.1333
     8.4955   8.4961   8.6080   8.6088   8.6720   8.6722   8.8771   8.8772
     9.1057   9.1058   9.3283   9.3288

     highest occupied, lowest unoccupied level (ev):     0.6225    3.8908

!    total energy              =   -1540.38281233 Ry
     Harris-Foulkes estimate   =   -1540.38281233 Ry
     estimated scf accuracy    <          2.9E-09 Ry

     total all-electron energy =     -5754.049365 Ry

     The total energy is the sum of the following terms:

     one-electron contribution =    -831.47980722 Ry
     hartree contribution      =     533.48031375 Ry
     xc contribution           =    -314.51457291 Ry
     ewald contribution        =    -511.42829813 Ry
     Dispersion Correction     =      -0.37307148 Ry
     one-center paw contrib.   =    -416.06737635 Ry

     convergence has been achieved in  16 iterations

     Forces acting on atoms (cartesian axes, Ry/au):

     atom    1 type  4   force =     0.00140670    0.00395927   -0.00036569
     atom    2 type  4   force =    -0.00123382    0.00368567    0.00040016
     atom    3 type  4   force =    -0.00140670   -0.00395927    0.00036569
     atom    4 type  4   force =     0.00123382   -0.00368567   -0.00040016
     atom    5 type  4   force =     0.00030934    0.00158743   -0.00007676
     atom    6 type  4   force =    -0.00046554    0.00136285    0.00002026
     atom    7 type  4   force =    -0.00030934   -0.00158743    0.00007676
     atom    8 type  4   force =     0.00046554   -0.00136285   -0.00002026
     atom    9 type  3   force =    -0.00001053   -0.00103904    0.00045207
     atom   10 type  3   force =     0.00000349   -0.00097042   -0.00045294
     atom   11 type  3   force =     0.00001053    0.00103904   -0.00045207
     atom   12 type  3   force =    -0.00000349    0.00097042    0.00045294
     atom   13 type  2   force =     0.00079929   -0.00071709    0.00019397
     atom   14 type  2   force =    -0.00062703    0.00028332   -0.00012041
     atom   15 type  2   force =    -0.00079929    0.00071709   -0.00019397
     atom   16 type  2   force =     0.00062703   -0.00028332    0.00012041
     atom   17 type  3   force =    -0.00000056   -0.00085486   -0.00065828
     atom   18 type  3   force =     0.00002323   -0.00123798    0.00064613
     atom   19 type  3   force =     0.00000056    0.00085486    0.00065828
     atom   20 type  3   force =    -0.00002323    0.00123798   -0.00064613
     atom   21 type  4   force =    -0.00243947    0.00121221    0.00065618
     atom   22 type  4   force =     0.00209443    0.00107376   -0.00075803
     atom   23 type  4   force =     0.00243947   -0.00121221   -0.00065618
     atom   24 type  4   force =    -0.00209443   -0.00107376    0.00075803
     atom   25 type  2   force =     0.00213729   -0.00048846    0.00020206
     atom   26 type  2   force =    -0.00144617   -0.00069242   -0.00001765
     atom   27 type  2   force =    -0.00213729    0.00048846   -0.00020206
     atom   28 type  2   force =     0.00144617    0.00069242    0.00001765
     atom   29 type  3   force =    -0.00020685    0.00030111   -0.00050546
     atom   30 type  3   force =     0.00002611    0.00043483    0.00045381
     atom   31 type  3   force =     0.00020685   -0.00030111    0.00050546
     atom   32 type  3   force =    -0.00002611   -0.00043483   -0.00045381
     atom   33 type  1   force =    -0.00170713    0.00309639    0.00069782
     atom   34 type  1   force =     0.00141382    0.00229791   -0.00082136
     atom   35 type  1   force =     0.00170713   -0.00309639   -0.00069782
     atom   36 type  1   force =    -0.00141382   -0.00229791    0.00082136
     atom   37 type  1   force =    -0.00163171    0.00139680   -0.00084560
     atom   38 type  1   force =     0.00098945    0.00157476    0.00069742
     atom   39 type  1   force =     0.00163171   -0.00139680    0.00084560
     atom   40 type  1   force =    -0.00098945   -0.00157476   -0.00069742
     atom   41 type  1   force =     0.00032764   -0.00391487   -0.00055047
     atom   42 type  1   force =    -0.00002589   -0.00309230    0.00066558
     atom   43 type  1   force =    -0.00032764    0.00391487    0.00055047
     atom   44 type  1   force =     0.00002589    0.00309230   -0.00066558
     atom   45 type  1   force =    -0.00084723    0.00148576   -0.00160740
     atom   46 type  1   force =     0.00071206    0.00141255    0.00158421
     atom   47 type  1   force =     0.00084723   -0.00148576    0.00160740
     atom   48 type  1   force =    -0.00071206   -0.00141255   -0.00158421
     atom   49 type  1   force =     0.00069133    0.00091495    0.00010570
     atom   50 type  1   force =    -0.00031360    0.00129420   -0.00000109
     atom   51 type  1   force =    -0.00069133   -0.00091495   -0.00010570
     atom   52 type  1   force =     0.00031360   -0.00129420    0.00000109
     atom   53 type  4   force =     0.00031229   -0.00199758    0.00027858
     atom   54 type  4   force =    -0.00034909   -0.00204465   -0.00028742
     atom   55 type  4   force =    -0.00031229    0.00199758   -0.00027858
     atom   56 type  4   force =     0.00034909    0.00204465    0.00028742
     atom   57 type  1   force =     0.00095783   -0.00058570    0.00256167
     atom   58 type  1   force =    -0.00089881   -0.00053496   -0.00255527
     atom   59 type  1   force =    -0.00095783    0.00058570   -0.00256167
     atom   60 type  1   force =     0.00089881    0.00053496    0.00255527
     atom   61 type  3   force =     0.00017878   -0.00053866   -0.00050553
     atom   62 type  3   force =    -0.00018241   -0.00055162    0.00052924
     atom   63 type  3   force =    -0.00017878    0.00053866    0.00050553
     atom   64 type  3   force =     0.00018241    0.00055162   -0.00052924
     atom   65 type  3   force =    -0.00015866   -0.00041727   -0.00003474
     atom   66 type  3   force =     0.00017293   -0.00044266    0.00001861
     atom   67 type  3   force =     0.00015866    0.00041727    0.00003474
     atom   68 type  3   force =    -0.00017293    0.00044266   -0.00001861
     atom   69 type  3   force =     0.00039294   -0.00054986    0.00017422
     atom   70 type  3   force =    -0.00040727   -0.00054990   -0.00017895
     atom   71 type  3   force =    -0.00039294    0.00054986   -0.00017422
     atom   72 type  3   force =     0.00040727    0.00054990    0.00017895
     atom   73 type  4   force =    -0.00147137    0.00089660   -0.00130281
     atom   74 type  4   force =     0.00132223    0.00078295    0.00119832
     atom   75 type  4   force =     0.00147137   -0.00089660    0.00130281
     atom   76 type  4   force =    -0.00132223   -0.00078295   -0.00119832
     atom   77 type  3   force =    -0.00000805    0.00082171   -0.00021098
     atom   78 type  3   force =     0.00010454    0.00083880    0.00029790
     atom   79 type  3   force =     0.00000805   -0.00082171    0.00021098
     atom   80 type  3   force =    -0.00010454   -0.00083880   -0.00029790
     atom   81 type  3   force =     0.00075685   -0.00044826    0.00043503
     atom   82 type  3   force =    -0.00071580   -0.00034982   -0.00043363
     atom   83 type  3   force =    -0.00075685    0.00044826   -0.00043503
     atom   84 type  3   force =     0.00071580    0.00034982    0.00043363

     Total force =     0.018714     Total SCF correction =     0.000118


     Computing stress (Cartesian axis) and pressure

          total   stress  (Ry/bohr**3)                   (kbar)     P=   -4.62
  -0.00004157   0.00000017  -0.00000543         -6.12      0.02     -0.80
   0.00000017  -0.00000640   0.00000005          0.02     -0.94      0.01
  -0.00000543   0.00000005  -0.00004617         -0.80      0.01     -6.79


     Writing output data file scf.save
 
     init_run     :     37.66s CPU     39.01s WALL (       1 calls)
     electrons    :   1227.76s CPU   1271.74s WALL (       1 calls)
     forces       :     19.70s CPU     19.85s WALL (       1 calls)
     stress       :     80.49s CPU     80.71s WALL (       1 calls)

     Called by init_run:
     wfcinit      :     28.64s CPU     29.87s WALL (       1 calls)
     potinit      :      3.18s CPU      3.20s WALL (       1 calls)

     Called by electrons:
     c_bands      :   1098.10s CPU   1136.03s WALL (      16 calls)
     sum_band     :    117.20s CPU    122.25s WALL (      16 calls)
     v_of_rho     :      1.83s CPU      1.95s WALL (      17 calls)
     newd         :      4.23s CPU      5.06s WALL (      17 calls)
     PAW_pot      :      5.87s CPU      5.88s WALL (      17 calls)
     mix_rho      :      0.44s CPU      0.48s WALL (      16 calls)

     Called by c_bands:
     init_us_2    :      7.05s CPU      7.10s WALL (     280 calls)
     cegterg      :   1073.02s CPU   1110.67s WALL (     128 calls)

     Called by sum_band:
     sum_band:bec :      0.08s CPU      0.08s WALL (     128 calls)
     addusdens    :      4.16s CPU      5.00s WALL (      16 calls)

     Called by *egterg:
     h_psi        :    591.41s CPU    619.22s WALL (     619 calls)
     s_psi        :    122.20s CPU    122.24s WALL (     619 calls)
     g_psi        :      2.80s CPU      2.80s WALL (     483 calls)
     cdiaghg      :     66.47s CPU     66.49s WALL (     611 calls)

     Called by h_psi:
     h_psi:pot    :    586.76s CPU    614.49s WALL (     619 calls)
     h_psi:calbec :    121.81s CPU    122.23s WALL (     619 calls)
     vloc_psi     :    342.80s CPU    370.06s WALL (     619 calls)
     add_vuspsi   :    122.15s CPU    122.20s WALL (     619 calls)

     General routines
     calbec       :    177.28s CPU    177.84s WALL (     787 calls)
     fft          :      1.33s CPU      1.55s WALL (     245 calls)
     fftw         :    368.77s CPU    398.07s WALL (  145370 calls)
 
     Parallel routines
     fft_scatter  :     86.48s CPU    109.86s WALL (  145615 calls)
 
     PWSCF        : 22m54.61s CPU    24m22.72s WALL

 
   This run was terminated on:   3:32:16   7Dec2017            

=------------------------------------------------------------------------------=
   JOB DONE.
=------------------------------------------------------------------------------=
