
     Program PWSCF v.6.1 (svn rev. 13369) starts on 13Nov2017 at 12:24: 4 

     This program is part of the open-source Quantum ESPRESSO suite
     for quantum simulation of materials; please cite
         "P. Giannozzi et al., J. Phys.:Condens. Matter 21 395502 (2009);
          URL http://www.quantum-espresso.org", 
     in publications or presentations arising from this work. More details at
     http://www.quantum-espresso.org/quote

     Parallel version (MPI), running on     8 processors
     R & G space division:  proc/nbgrp/npool/nimage =       8
     Waiting for input...
     Reading input from standard input

     Current dimensions of program PWSCF are:
     Max number of different atomic species (ntypx) = 10
     Max number of k-points (npk) =  40000
     Max angular momentum in pseudopotentials (lmaxx) =  3
               file C.pbe-n-kjpaw_psl.0.1.UPF: wavefunction(s)  2P renormalized
               file N.pbe-n-kjpaw_psl.0.1.UPF: wavefunction(s)  2P renormalized
               file H.pbe-kjpaw_psl.0.1.UPF: wavefunction(s)  1S renormalized
               file O.pbe-n-kjpaw_psl.0.1.UPF: wavefunction(s)  2P renormalized

     -------------------------------------
     Parameters for Dispersion Correction:
     -------------------------------------
       atom      VdW radius       C_6     

        C          2.744         60.710
        N          2.640         42.670
        H          1.892          4.857
        O          2.536         24.284

     Subspace diagonalization in iterative solution of the eigenvalue problem:
     a serial algorithm will be used

 
     Parallelization info
     --------------------
     sticks:   dense  smooth     PW     G-vecs:    dense   smooth      PW
     Min        1664    1664    433               157296   157296   20962
     Max        1665    1665    434               157299   157299   20966
     Sum       13313   13313   3467              1258377  1258377  167709
 


     bravais-lattice index     =            0
     lattice parameter (alat)  =      11.3862  a.u.
     unit-cell volume          =    9314.3888 (a.u.)^3
     number of atoms/cell      =          156
     number of atomic types    =            4
     number of electrons       =       504.00
     number of Kohn-Sham states=          302
     kinetic-energy cutoff     =     100.0000  Ry
     charge density cutoff     =     400.0000  Ry
     convergence threshold     =      1.0E-08
     mixing beta               =       0.5000
     number of iterations used =            8  plain     mixing
     Exchange-correlation      =  SLA  PW   PBX  PBC ( 1  4  3  4 0 0)

     celldm(1)=  11.386167  celldm(2)=   0.000000  celldm(3)=   0.000000
     celldm(4)=   0.000000  celldm(5)=   0.000000  celldm(6)=   0.000000

     crystal axes: (cart. coord. in units of alat)
               a(1) = (   1.000000   0.000000   0.000000 )  
               a(2) = (   0.000000   3.220504   0.000000 )  
               a(3) = (  -0.313862   0.000000   1.959287 )  

     reciprocal axes: (cart. coord. in units 2 pi/alat)
               b(1) = (  1.000000  0.000000  0.160192 )  
               b(2) = (  0.000000  0.310510  0.000000 )  
               b(3) = (  0.000000  0.000000  0.510390 )  


     PseudoPot. # 1 for  C read from file:
     /scratch/ahofstet/pseudo/C.pbe-n-kjpaw_psl.0.1.UPF
     MD5 check sum: 430fe95172b1e11ef3f8ed03bac87931
     Pseudo is Projector augmented-wave + core cor, Zval =  4.0
     Generated using "atomic" code by A. Dal Corso  v.5.0.99 svn rev. 10869
     Shape of augmentation charge: BESSEL
     Using radial grid of 1073 points,  4 beta functions with: 
                l(1) =   0
                l(2) =   0
                l(3) =   1
                l(4) =   1
     Q(r) pseudized with 0 coefficients 


     PseudoPot. # 2 for  N read from file:
     /scratch/ahofstet/pseudo/N.pbe-n-kjpaw_psl.0.1.UPF
     MD5 check sum: f73187c8b701007e77325f868c9291d7
     Pseudo is Projector augmented-wave + core cor, Zval =  5.0
     Generated using "atomic" code by A. Dal Corso  v.5.0.99 svn rev. 10869
     Shape of augmentation charge: PSQ
     Using radial grid of 1085 points,  4 beta functions with: 
                l(1) =   0
                l(2) =   0
                l(3) =   1
                l(4) =   1
     Q(r) pseudized with 0 coefficients 


     PseudoPot. # 3 for  H read from file:
     /scratch/ahofstet/pseudo/H.pbe-kjpaw_psl.0.1.UPF
     MD5 check sum: 94e484f906d9e9773b2f6e52662335b2
     Pseudo is Projector augmented-wave, Zval =  1.0
     Generated using "atomic" code by A. Dal Corso  v.5.0.99 svn rev. 10869
     Shape of augmentation charge: PSQ
     Using radial grid of  929 points,  2 beta functions with: 
                l(1) =   0
                l(2) =   0
     Q(r) pseudized with 0 coefficients 


     PseudoPot. # 4 for  O read from file:
     /scratch/ahofstet/pseudo/O.pbe-n-kjpaw_psl.0.1.UPF
     MD5 check sum: 3f94a2996a3169367d6eb21d9b593f20
     Pseudo is Projector augmented-wave + core cor, Zval =  6.0
     Generated using "atomic" code by A. Dal Corso  v.5.0.99 svn rev. 10869
     Shape of augmentation charge: BESSEL
     Using radial grid of 1095 points,  4 beta functions with: 
                l(1) =   0
                l(2) =   0
                l(3) =   1
                l(4) =   1
     Q(r) pseudized with 0 coefficients 


     atomic species   valence    mass     pseudopotential
        C              4.00    12.01070      C( 1.00)
        N              5.00    14.00670      N( 1.00)
        H              1.00     1.00794      H( 1.00)
        O              6.00    15.99940      O( 1.00)

      4 Sym. Ops., with inversion, found ( 2 have fractional translation)



   Cartesian axes

     site n.     atom                  positions (alat units)
         1           O   tau(   1) = (   0.2825442   0.7848183   0.9411391  )
         2           O   tau(   2) = (   0.5605248   2.3950700   0.0385042  )
         3           O   tau(   3) = (   0.4035938   2.4356853   1.0181474  )
         4           O   tau(   4) = (   0.1256133   0.8254335   1.9207823  )
         5           O   tau(   5) = (   0.4049231   1.0116180   1.1981253  )
         6           O   tau(   6) = (   0.1242840   2.6218697   1.7408044  )
         7           O   tau(   7) = (   0.2812150   2.2088856   0.7611612  )
         8           O   tau(   8) = (   0.5618541   0.5986338   0.2184821  )
         9           O   tau(   9) = (   0.8407074   1.1803878   0.9628376  )
        10           O   tau(  10) = (   0.0023616   2.7906396   0.0168056  )
        11           O   tau(  11) = (  -0.1545694   2.0401157   0.9964489  )
        12           O   tau(  12) = (   0.6837765   0.4298640   1.9424809  )
        13           N   tau(  13) = (   0.6491194   0.8325286   0.9802514  )
        14           N   tau(  14) = (   0.1939496   2.4427804  -0.0006082  )
        15           N   tau(  15) = (   0.0370186   2.3879750   0.9790351  )
        16           N   tau(  16) = (   0.4921885   0.7777232   1.9598947  )
        17           N   tau(  17) = (   0.4335747   0.8802158   1.0429080  )
        18           N   tau(  18) = (   0.0956324   2.4904676   1.8960217  )
        19           N   tau(  19) = (   0.2525634   2.3402878   0.9163785  )
        20           N   tau(  20) = (   0.5905057   0.7300360   0.0632648  )
        21           C   tau(  21) = (   0.6805103   0.6897329   0.7889708  )
        22           C   tau(  22) = (   0.1625587   2.2999846   0.1906725  )
        23           C   tau(  23) = (   0.0056278   2.5307707   1.1703157  )
        24           C   tau(  24) = (   0.5235793   0.9205189   1.7686141  )
        25           C   tau(  25) = (   0.8257845   0.9685682   1.0668697  )
        26           C   tau(  26) = (  -0.2965774   2.5788199   1.8720600  )
        27           C   tau(  27) = (  -0.1396465   2.2519354   0.8924168  )
        28           C   tau(  28) = (   0.9827155   0.6416836   0.0872265  )
        29           H   tau(  29) = (   0.7963523   0.9960114   1.2444939  )
        30           H   tau(  30) = (  -0.2671452   2.6062632   1.6944358  )
        31           H   tau(  31) = (  -0.1102142   2.2244921   0.7147926  )
        32           H   tau(  32) = (   0.9532833   0.6142404   0.2648507  )
        33           H   tau(  33) = (  -0.0194913   0.8730272   1.0394962  )
        34           H   tau(  34) = (   0.5486984   2.4832790   1.8994336  )
        35           H   tau(  35) = (   0.7056293   2.3474763   0.9197903  )
        36           H   tau(  36) = (   0.1374397   0.7372245   0.0598529  )
        37           H   tau(  37) = (   0.6219248   0.7675783   0.6342110  )
        38           H   tau(  38) = (   0.2211443   2.3778301   0.3454323  )
        39           H   tau(  39) = (   0.0642133   2.4529252   1.3250755  )
        40           H   tau(  40) = (   0.4649938   0.8426735   1.6138542  )
        41           H   tau(  41) = (   0.5927113   0.5323871   0.8131465  )
        42           H   tau(  42) = (   0.2503577   2.1426388   0.1664968  )
        43           H   tau(  43) = (   0.0934268   2.6881165   1.1461400  )
        44           H   tau(  44) = (   0.4357804   1.0778647   1.7927897  )
        45           H   tau(  45) = (   0.8588481   0.6557647   0.7779085  )
        46           H   tau(  46) = (  -0.0157791   2.2660165   0.2017347  )
        47           H   tau(  47) = (  -0.1727101   2.5647388   1.1813780  )
        48           H   tau(  48) = (   0.7019172   0.9544871   1.7575518  )
        49           H   tau(  49) = (  -0.0421837   1.1743371   0.8440745  )
        50           H   tau(  50) = (   0.8852527   2.7845889   0.1355688  )
        51           H   tau(  51) = (   0.7283217   2.0461664   1.1152120  )
        52           H   tau(  52) = (  -0.1991146   0.4359147   1.8237177  )
        53           O   tau(  53) = (   0.9936505   0.3079151   0.6072518  )
        54           O   tau(  54) = (  -0.1505814   1.9181669   0.3723914  )
        55           O   tau(  55) = (  -0.3075124   2.9125884   1.3520347  )
        56           O   tau(  56) = (   0.8367195   1.3023366   1.5868951  )
        57           O   tau(  57) = (   0.8725713   0.0720117   0.3579313  )
        58           O   tau(  58) = (  -0.0295023   1.6822635   0.6217120  )
        59           O   tau(  59) = (  -0.1864333   3.1484918   1.6013552  )
        60           O   tau(  60) = (   0.7156404   1.5382401   1.3375745  )
        61           O   tau(  61) = (   0.3351986   3.0015702   0.2170042  )
        62           O   tau(  62) = (   0.5078704   1.3913185   0.7626390  )
        63           O   tau(  63) = (   0.3509394   0.2189333   1.7422823  )
        64           O   tau(  64) = (   0.1782677   1.8291851   1.1966475  )
        65           N   tau(  65) = (   0.2407444   0.1175827   0.4074071  )
        66           N   tau(  66) = (   0.6023247   1.7278345   0.5722362  )
        67           N   tau(  67) = (   0.4453937   3.1029208   1.5518794  )
        68           N   tau(  68) = (   0.0838134   1.4926690   1.3870503  )
        69           N   tau(  69) = (   0.0234961   0.1689798   0.4588103  )
        70           N   tau(  70) = (   0.8195729   1.7792315   0.5208330  )
        71           N   tau(  71) = (   0.6626420   3.0515238   1.5004762  )
        72           N   tau(  72) = (  -0.1334348   1.4412720   1.4384535  )
        73           C   tau(  73) = (   0.4135600   0.2186781   0.5381139  )
        74           C   tau(  74) = (   0.4295090   1.8289299   0.4415294  )
        75           C   tau(  75) = (   0.2725781   3.0018254   1.4211726  )
        76           C   tau(  76) = (   0.2566291   1.3915737   1.5177571  )
        77           C   tau(  77) = (   0.2930983   0.0114823   0.1980240  )
        78           C   tau(  78) = (   0.5499707   1.6217340   0.7816193  )
        79           C   tau(  79) = (   0.3930398   3.2090213   1.7612625  )
        80           C   tau(  80) = (   0.1361673   1.5987695   1.1776672  )
        81           H   tau(  81) = (   0.1578796   0.0428071   0.0803861  )
        82           H   tau(  82) = (   0.6851894   1.6530589   0.8992572  )
        83           H   tau(  83) = (   0.5282584   3.1776965   1.8789005  )
        84           H   tau(  84) = (   0.0009487   1.5674447   1.0600293  )
        85           H   tau(  85) = (   0.4453896   0.0945845   0.1409591  )
        86           H   tau(  86) = (   0.3976794   1.7048363   0.8386842  )
        87           H   tau(  87) = (   0.2407484   3.1259190   1.8183274  )
        88           H   tau(  88) = (   0.2884587   1.5156672   1.1206024  )
        89           H   tau(  89) = (   0.5727477   0.1558486   0.4723715  )
        90           H   tau(  90) = (   0.2703213   1.7661003   0.5072717  )
        91           H   tau(  91) = (   0.1133903   3.0646550   1.4869150  )
        92           H   tau(  92) = (   0.4158168   1.4544032   1.4520148  )
        93           H   tau(  93) = (   0.4096784   0.4003365   0.5232248  )
        94           H   tau(  94) = (   0.4333907   2.0105883   0.4564185  )
        95           H   tau(  95) = (   0.2764597   2.8201670   1.4360617  )
        96           H   tau(  96) = (   0.2527474   1.2099152   1.5028680  )
        97           H   tau(  97) = (   0.2120354   2.9167696   0.1448904  )
        98           H   tau(  98) = (   0.6310336   1.3065178   0.8347528  )
        99           H   tau(  99) = (   0.4741027   0.3037340   1.8143961  )
       100           H   tau( 100) = (   0.0551045   1.9139857   1.1245337  )
       101           H   tau( 101) = (   0.3970734   0.1739351   0.7141071  )
       102           H   tau( 102) = (   0.4459957   1.7841869   0.2655362  )
       103           H   tau( 103) = (   0.2890647   3.0465684   1.2451794  )
       104           H   tau( 104) = (   0.2401424   1.4363166   1.6937503  )
       105           O   tau( 105) = (   0.8424426   1.4174037   0.1115005  )
       106           O   tau( 106) = (   0.0006264   3.0276555   0.8681428  )
       107           O   tau( 107) = (  -0.1563045   1.8030998   1.8477860  )
       108           O   tau( 108) = (   0.6855116   0.1928480   1.0911437  )
       109           O   tau( 109) = (   0.7112060   1.1546025   0.3251619  )
       110           O   tau( 110) = (   0.1318631   2.7648542   0.6544814  )
       111           O   tau( 111) = (  -0.0250679   2.0659011   1.6341246  )
       112           O   tau( 112) = (   0.5542750   0.4556493   1.3048051  )
       113           O   tau( 113) = (   0.1393174   1.1742373   0.6547141  )
       114           O   tau( 114) = (   0.7037516   2.7844891   0.3249292  )
       115           O   tau( 115) = (   0.5468207   2.0462663   1.3045724  )
       116           O   tau( 116) = (  -0.0176136   0.4360145   1.6343573  )
       117           N   tau( 117) = (   0.0818965   1.1729045   0.2630586  )
       118           N   tau( 118) = (   0.7611725   2.7831563   0.7165847  )
       119           N   tau( 119) = (   0.6042416   2.0475990   1.6962279  )
       120           N   tau( 120) = (  -0.0750345   0.4373472   1.2427018  )
       121           N   tau( 121) = (   0.8655508   1.2559121   0.2345770  )
       122           N   tau( 122) = (  -0.0224817   2.8661639   0.7450663  )
       123           N   tau( 123) = (  -0.1794127   1.9645915   1.7247095  )
       124           N   tau( 124) = (   0.7086198   0.3543397   1.2142203  )
       125           C   tau( 125) = (   0.2612400   1.3125169   0.1883881  )
       126           C   tau( 126) = (   0.5818291   2.9227686   0.7912552  )
       127           C   tau( 127) = (   0.4248981   1.9079867   1.7708984  )
       128           C   tau( 128) = (   0.1043090   0.2977349   1.1680313  )
       129           C   tau( 129) = (   0.1225917   1.0427911   0.4618356  )
       130           C   tau( 130) = (   0.7204774   2.6530429   0.5178077  )
       131           C   tau( 131) = (   0.5635464   2.1777124   1.4974509  )
       132           C   tau( 132) = (  -0.0343393   0.5674606   1.4414788  )
       133           H   tau( 133) = (   0.4153681   1.2158428   0.2101433  )
       134           H   tau( 134) = (   0.4277010   2.8260945   0.7694999  )
       135           H   tau( 135) = (   0.2707700   2.0046608   1.7491432  )
       136           H   tau( 136) = (   0.2584371   0.3944090   1.1897866  )
       137           H   tau( 137) = (   0.2770920   0.9506753   0.4298401  )
       138           H   tau( 138) = (   0.5659770   2.5609271   0.5498031  )
       139           H   tau( 139) = (   0.4090461   2.2698283   1.5294464  )
       140           H   tau( 140) = (   0.1201611   0.6595765   1.4094834  )
       141           H   tau( 141) = (  -0.0151956   0.9271168   0.4860490  )
       142           H   tau( 142) = (   0.8582647   2.5373686   0.4935943  )
       143           H   tau( 143) = (   0.7013337   2.2933867   1.4732375  )
       144           H   tau( 144) = (  -0.1721266   0.6831349   1.4656922  )
       145           H   tau( 145) = (   0.2382161   1.3595417   0.0144261  )
       146           H   tau( 146) = (   0.6048529   2.9697935   0.9652171  )
       147           H   tau( 147) = (   0.4479219   1.8609618   1.9448604  )
       148           H   tau( 148) = (   0.0812852   0.2507101   0.9940694  )
       149           H   tau( 149) = (   0.2736736   1.4631995   0.2904789  )
       150           H   tau( 150) = (   0.5693954   3.0734513   0.6891643  )
       151           H   tau( 151) = (   0.4124645   1.7573040   1.6688076  )
       152           H   tau( 152) = (   0.1167426   0.1470523   1.2701222  )
       153           H   tau( 153) = (   0.2836830   1.2543910   0.6709814  )
       154           H   tau( 154) = (   0.5593860   2.8646428   0.3086618  )
       155           H   tau( 155) = (   0.4024551   1.9661125   1.2883051  )
       156           H   tau( 156) = (   0.1267520   0.3558608   1.6506247  )

     number of k points=     4
                       cart. coord. in units 2pi/alat
        k(    1) = (   0.0000000   0.0000000   0.0000000), wk =   0.3333333
        k(    2) = (   0.0000000   0.0000000  -0.2551949), wk =   0.3333333
        k(    3) = (   0.3333333   0.0000000   0.0533973), wk =   0.6666667
        k(    4) = (   0.3333333   0.0000000  -0.2017976), wk =   0.6666667

     Dense  grid:  1258377 G-vectors     FFT dimensions: (  75, 240, 144)

     Estimated max dynamical RAM per process >    1563.36MB

     Estimated total allocated dynamical RAM >   12506.88MB

     Check: negative/imaginary core charge=   -0.000002    0.000000

     Initial potential from superposition of free atoms

     starting charge  503.99809, renormalised to  504.00000
     Starting wfc are  408 randomized atomic wfcs
     Checking if some PAW data can be deallocated... 

     total cpu time spent up to now is       74.6 secs

     per-process dynamical memory:   855.5 Mb

     Self-consistent Calculation

     iteration #  1     ecut=   100.00 Ry     beta=0.50
     Davidson diagonalization with overlap
     ethr =  1.00E-02,  avg # of iterations =  3.0

     total cpu time spent up to now is      282.3 secs

     total energy              =   -2699.18473855 Ry
     Harris-Foulkes estimate   =   -2707.54532868 Ry
     estimated scf accuracy    <      15.42898866 Ry

     iteration #  2     ecut=   100.00 Ry     beta=0.50
     Davidson diagonalization with overlap
     ethr =  3.06E-03,  avg # of iterations =  3.0

     total cpu time spent up to now is      432.3 secs

     total energy              =   -2701.92073166 Ry
     Harris-Foulkes estimate   =   -2703.67086278 Ry
     estimated scf accuracy    <       3.77680660 Ry

     iteration #  3     ecut=   100.00 Ry     beta=0.50
     Davidson diagonalization with overlap
     ethr =  7.49E-04,  avg # of iterations =  5.8

     total cpu time spent up to now is      600.3 secs

     total energy              =   -2702.71766585 Ry
     Harris-Foulkes estimate   =   -2702.95742218 Ry
     estimated scf accuracy    <       0.61828581 Ry

     iteration #  4     ecut=   100.00 Ry     beta=0.50
     Davidson diagonalization with overlap
     ethr =  1.23E-04,  avg # of iterations =  9.2

     total cpu time spent up to now is      755.1 secs

     total energy              =   -2702.77099563 Ry
     Harris-Foulkes estimate   =   -2702.85291530 Ry
     estimated scf accuracy    <       0.20026286 Ry

     iteration #  5     ecut=   100.00 Ry     beta=0.50
     Davidson diagonalization with overlap
     ethr =  3.97E-05,  avg # of iterations =  9.5

     total cpu time spent up to now is      917.1 secs

     total energy              =   -2702.80942004 Ry
     Harris-Foulkes estimate   =   -2702.83382730 Ry
     estimated scf accuracy    <       0.06666862 Ry

     iteration #  6     ecut=   100.00 Ry     beta=0.50
     Davidson diagonalization with overlap
     ethr =  1.32E-05,  avg # of iterations =  4.2

     total cpu time spent up to now is     1047.7 secs

     total energy              =   -2702.82172079 Ry
     Harris-Foulkes estimate   =   -2702.82464611 Ry
     estimated scf accuracy    <       0.00747606 Ry

     iteration #  7     ecut=   100.00 Ry     beta=0.50
     Davidson diagonalization with overlap
     ethr =  1.48E-06,  avg # of iterations = 10.2

     total cpu time spent up to now is     1235.5 secs

     total energy              =   -2702.82333048 Ry
     Harris-Foulkes estimate   =   -2702.82370459 Ry
     estimated scf accuracy    <       0.00087928 Ry

     iteration #  8     ecut=   100.00 Ry     beta=0.50
     Davidson diagonalization with overlap
     ethr =  1.74E-07,  avg # of iterations =  3.2

     total cpu time spent up to now is     1389.7 secs

     total energy              =   -2702.82356653 Ry
     Harris-Foulkes estimate   =   -2702.82359912 Ry
     estimated scf accuracy    <       0.00013991 Ry

     iteration #  9     ecut=   100.00 Ry     beta=0.50
     Davidson diagonalization with overlap
     ethr =  2.78E-08,  avg # of iterations =  2.5

     total cpu time spent up to now is     1518.8 secs

     total energy              =   -2702.82358350 Ry
     Harris-Foulkes estimate   =   -2702.82359820 Ry
     estimated scf accuracy    <       0.00004145 Ry

     iteration # 10     ecut=   100.00 Ry     beta=0.50
     Davidson diagonalization with overlap
     ethr =  8.22E-09,  avg # of iterations =  3.0

     total cpu time spent up to now is     1659.2 secs

     total energy              =   -2702.82359270 Ry
     Harris-Foulkes estimate   =   -2702.82359549 Ry
     estimated scf accuracy    <       0.00000972 Ry

     iteration # 11     ecut=   100.00 Ry     beta=0.50
     Davidson diagonalization with overlap
     ethr =  1.93E-09,  avg # of iterations =  4.0

     total cpu time spent up to now is     1805.3 secs

     total energy              =   -2702.82359461 Ry
     Harris-Foulkes estimate   =   -2702.82359544 Ry
     estimated scf accuracy    <       0.00000199 Ry

     iteration # 12     ecut=   100.00 Ry     beta=0.50
     Davidson diagonalization with overlap
     ethr =  3.95E-10,  avg # of iterations =  3.5

     total cpu time spent up to now is     1935.6 secs

     total energy              =   -2702.82359492 Ry
     Harris-Foulkes estimate   =   -2702.82359498 Ry
     estimated scf accuracy    <       0.00000018 Ry

     iteration # 13     ecut=   100.00 Ry     beta=0.50
     Davidson diagonalization with overlap
     ethr =  3.65E-11,  avg # of iterations =  4.0

     total cpu time spent up to now is     2135.0 secs

     total energy              =   -2702.82359504 Ry
     Harris-Foulkes estimate   =   -2702.82359506 Ry
     estimated scf accuracy    <       0.00000007 Ry

     iteration # 14     ecut=   100.00 Ry     beta=0.50
     Davidson diagonalization with overlap
     ethr =  1.35E-11,  avg # of iterations =  2.0

     total cpu time spent up to now is     2247.8 secs

     total energy              =   -2702.82359504 Ry
     Harris-Foulkes estimate   =   -2702.82359505 Ry
     estimated scf accuracy    <       0.00000001 Ry

     iteration # 15     ecut=   100.00 Ry     beta=0.50
     Davidson diagonalization with overlap
     ethr =  2.64E-12,  avg # of iterations =  4.0

     total cpu time spent up to now is     2437.9 secs

     End of self-consistent calculation

          k = 0.0000 0.0000 0.0000 (157223 PWs)   bands (ev):

   -24.7085 -24.7084 -24.7078 -24.7078 -24.5873 -24.5870 -24.5850 -24.5848
   -24.4530 -24.4530 -24.4528 -24.4528 -19.9842 -19.9829 -19.9828 -19.9814
   -19.9590 -19.9540 -19.9507 -19.9456 -19.8409 -19.8376 -19.8287 -19.8266
   -19.7206 -19.7201 -19.7194 -19.7186 -19.4102 -19.4066 -19.3990 -19.3947
   -19.2636 -19.2628 -19.2594 -19.2591 -17.7536 -17.7449 -17.7445 -17.7375
   -17.5581 -17.5570 -17.5536 -17.5499 -17.4748 -17.4739 -17.4697 -17.4677
   -12.3347 -12.3203 -12.2801 -12.2744 -12.1702 -12.1341 -12.1316 -12.1280
   -12.0190 -12.0147 -11.9976 -11.9975 -11.6355 -11.6227 -11.6219 -11.6049
   -11.4586 -11.4574 -11.4064 -11.3984 -11.2872 -11.2839 -11.2396 -11.2204
    -8.1041  -8.1041  -8.0916  -8.0415  -8.0289  -8.0006  -7.9839  -7.9684
    -7.7796  -7.7672  -7.6634  -7.6255  -7.5937  -7.5824  -7.5776  -7.5721
    -7.5509  -7.5037  -7.4690  -7.4651  -7.3952  -7.3543  -7.3266  -7.2983
    -7.2941  -7.2732  -7.1893  -7.1239  -7.1165  -7.0689  -6.9956  -6.9955
    -6.9388  -6.9269  -6.9265  -6.8668  -6.7272  -6.6359  -6.6176  -6.6059
    -6.4663  -6.4655  -6.4416  -6.4209  -6.3438  -6.3038  -6.2201  -6.2015
    -6.1949  -6.1758  -6.1426  -6.1295  -6.1196  -6.1182  -6.0612  -6.0229
    -5.9712  -5.9421  -5.8458  -5.7861  -5.3653  -5.3441  -5.2840  -5.2818
    -5.2680  -5.2401  -5.1417  -5.1278  -5.0820  -5.0771  -4.9306  -4.9127
    -4.8305  -4.8044  -4.6765  -4.6712  -4.6298  -4.6257  -4.5602  -4.4786
    -4.4509  -4.3969  -4.3894  -4.3464  -3.9598  -3.9471  -3.9417  -3.9219
    -3.8061  -3.7553  -3.7471  -3.7379  -3.5662  -3.5630  -3.4837  -3.4759
    -3.4009  -3.3490  -3.3058  -3.2906  -3.1498  -3.1156  -3.1070  -3.1029
    -3.0552  -3.0502  -2.9695  -2.9371  -2.5072  -2.4654  -2.4245  -2.3452
    -2.3161  -2.3059  -2.2396  -2.2151  -1.6328  -1.5885  -1.5883  -1.5686
    -1.4434  -1.4216  -1.4051  -1.3955  -1.3663  -1.3244  -1.2726  -1.2633
    -1.2167  -1.2109  -1.1946  -1.1811  -1.1600  -1.1244  -1.1018  -1.0911
    -1.0883  -1.0756  -0.9741  -0.9714  -0.8847  -0.8750  -0.8698  -0.8651
    -0.8346  -0.8309  -0.8154  -0.7419  -0.7371  -0.7255  -0.7186  -0.6686
    -0.6497  -0.6064  -0.4368  -0.4347  -0.3117  -0.3063  -0.3002  -0.2996
    -0.2722  -0.2534  -0.2062  -0.1893  -0.1829  -0.1819  -0.1708  -0.1633
    -0.0955  -0.0948   0.0428   0.0432   0.0613   0.0753   0.0984   0.1139
     0.2440   0.2484   0.3155   0.3233   3.8637   3.8672   4.0126   4.0192
     4.0383   4.0403   4.0766   4.0852   4.2571   4.2588   4.2729   4.2799
     6.4241   6.5405   6.9060   7.0648   7.1866   7.2941   7.3015   7.4324
     7.5027   7.6396   7.6855   7.7967   7.8147   7.8853   7.9302   8.0502
     8.0548   8.2530   8.2540   8.2734   8.3336   8.3404   8.3691   8.4738
     8.5135   8.5201   8.6399   8.7177   8.7717   8.7790   8.8117   8.9006
     8.9081   8.9596   9.0051   9.0304   9.0374   9.0916

          k = 0.0000 0.0000-0.2552 (157318 PWs)   bands (ev):

   -24.7081 -24.7081 -24.7081 -24.7081 -24.5872 -24.5872 -24.5849 -24.5849
   -24.4534 -24.4534 -24.4524 -24.4524 -19.9833 -19.9833 -19.9823 -19.9823
   -19.9537 -19.9537 -19.9511 -19.9511 -19.8388 -19.8388 -19.8285 -19.8285
   -19.7215 -19.7215 -19.7172 -19.7172 -19.4086 -19.4086 -19.3968 -19.3968
   -19.2632 -19.2632 -19.2593 -19.2593 -17.7487 -17.7487 -17.7415 -17.7415
   -17.5592 -17.5592 -17.5503 -17.5503 -17.4720 -17.4720 -17.4709 -17.4709
   -12.3100 -12.3100 -12.2982 -12.2982 -12.1511 -12.1511 -12.1313 -12.1313
   -12.0119 -12.0119 -11.9989 -11.9989 -11.6321 -11.6321 -11.6091 -11.6091
   -11.4479 -11.4479 -11.4142 -11.4142 -11.2854 -11.2854 -11.2296 -11.2296
    -8.1020  -8.1020  -8.0561  -8.0561  -8.0124  -8.0124  -7.9943  -7.9943
    -7.7543  -7.7543  -7.6582  -7.6582  -7.5865  -7.5865  -7.5682  -7.5682
    -7.5290  -7.5290  -7.4699  -7.4699  -7.3992  -7.3992  -7.3236  -7.3236
    -7.2816  -7.2816  -7.1366  -7.1366  -7.0846  -7.0846  -7.0138  -7.0138
    -6.9224  -6.9224  -6.8884  -6.8884  -6.6673  -6.6673  -6.6290  -6.6290
    -6.4766  -6.4766  -6.3948  -6.3948  -6.3474  -6.3474  -6.2129  -6.2129
    -6.1974  -6.1974  -6.1595  -6.1595  -6.1095  -6.1095  -6.0340  -6.0340
    -5.9055  -5.9055  -5.8511  -5.8511  -5.3271  -5.3271  -5.2935  -5.2935
    -5.2462  -5.2462  -5.1380  -5.1380  -5.0934  -5.0934  -4.9420  -4.9420
    -4.7745  -4.7745  -4.7315  -4.7315  -4.5998  -4.5998  -4.5010  -4.5010
    -4.4150  -4.4150  -4.3899  -4.3899  -3.9602  -3.9602  -3.9251  -3.9251
    -3.7940  -3.7940  -3.7313  -3.7313  -3.5645  -3.5645  -3.4816  -3.4816
    -3.3660  -3.3660  -3.3227  -3.3227  -3.1112  -3.1112  -3.0856  -3.0856
    -3.0665  -3.0665  -2.9507  -2.9507  -2.4883  -2.4883  -2.4075  -2.4075
    -2.3420  -2.3420  -2.1988  -2.1988  -1.6003  -1.6003  -1.5804  -1.5804
    -1.4350  -1.4350  -1.3944  -1.3944  -1.3449  -1.3449  -1.2793  -1.2793
    -1.1793  -1.1793  -1.1651  -1.1651  -1.1509  -1.1509  -1.1288  -1.1288
    -1.0526  -1.0526  -0.9842  -0.9842  -0.8921  -0.8921  -0.8757  -0.8757
    -0.8457  -0.8457  -0.7794  -0.7794  -0.7227  -0.7227  -0.6815  -0.6815
    -0.6199  -0.6199  -0.4723  -0.4723  -0.3150  -0.3150  -0.2959  -0.2959
    -0.2604  -0.2604  -0.2121  -0.2121  -0.1653  -0.1653  -0.1520  -0.1520
    -0.0230  -0.0230  -0.0188  -0.0188   0.0769   0.0769   0.1088   0.1088
     0.2563   0.2563   0.2902   0.2902   3.9251   3.9251   3.9353   3.9353
     4.0663   4.0663   4.0745   4.0745   4.2540   4.2540   4.2804   4.2804
     6.6918   6.6918   6.7533   6.7533   7.1025   7.1025   7.3693   7.3693
     7.6003   7.6003   7.7868   7.7868   7.9744   7.9744   8.0759   8.0759
     8.1301   8.1301   8.2287   8.2287   8.2825   8.2825   8.4679   8.4679
     8.5010   8.5010   8.6244   8.6244   8.7728   8.7728   8.8257   8.8257
     8.8653   8.8653   9.0249   9.0249   9.0456   9.0457

          k = 0.3333 0.0000 0.0534 (157276 PWs)   bands (ev):

   -24.7061 -24.7061 -24.7057 -24.7057 -24.5857 -24.5857 -24.5835 -24.5835
   -24.4514 -24.4514 -24.4512 -24.4512 -19.9972 -19.9965 -19.9959 -19.9952
   -19.9362 -19.9332 -19.9296 -19.9266 -19.8029 -19.8000 -19.7946 -19.7926
   -19.7274 -19.7273 -19.7243 -19.7242 -19.5346 -19.5331 -19.5286 -19.5270
   -19.2097 -19.2038 -19.1881 -19.1831 -17.7568 -17.7513 -17.7437 -17.7397
   -17.5911 -17.5882 -17.5846 -17.5830 -17.4861 -17.4838 -17.4735 -17.4711
   -12.2259 -12.2211 -12.1940 -12.1896 -12.0147 -12.0045 -11.9955 -11.9937
   -11.8782 -11.8618 -11.8611 -11.8426 -11.5826 -11.5731 -11.5534 -11.5494
   -11.4395 -11.4318 -11.4119 -11.3736 -11.2589 -11.2291 -11.2262 -11.2056
    -8.2146  -8.2078  -8.2058  -8.1735  -8.1548  -8.1526  -8.1067  -8.0632
    -7.9916  -7.9165  -7.8415  -7.7956  -7.7113  -7.6960  -7.6793  -7.6602
    -7.6141  -7.5732  -7.5457  -7.5317  -7.3957  -7.3898  -7.3731  -7.3409
    -7.2700  -7.2462  -7.1777  -7.1211  -7.0849  -7.0807  -7.0378  -7.0163
    -7.0075  -7.0041  -6.9195  -6.8589  -6.6901  -6.6741  -6.6401  -6.6087
    -6.5832  -6.5648  -6.5295  -6.5148  -6.4647  -6.4496  -6.4116  -6.4022
    -6.3340  -6.3228  -6.2922  -6.2443  -6.1654  -6.1310  -6.1218  -6.0365
    -5.9870  -5.9248  -5.9085  -5.8388  -5.3370  -5.3198  -5.2157  -5.1623
    -5.1410  -5.0921  -5.0781  -5.0459  -5.0229  -5.0013  -4.8614  -4.8529
    -4.8363  -4.7804  -4.7138  -4.6768  -4.5831  -4.5704  -4.5466  -4.5093
    -4.4295  -4.4183  -4.3740  -4.3532  -3.9313  -3.9164  -3.9036  -3.9018
    -3.8233  -3.8124  -3.8086  -3.7995  -3.6196  -3.5702  -3.5283  -3.4846
    -3.4052  -3.3942  -3.3309  -3.3178  -3.2502  -3.2306  -3.1894  -3.1844
    -3.1569  -3.1498  -3.0514  -3.0340  -2.7437  -2.7220  -2.7173  -2.6000
    -2.0956  -2.0950  -1.9960  -1.9012  -1.7512  -1.6785  -1.5455  -1.5314
    -1.3787  -1.3729  -1.3589  -1.3483  -1.2808  -1.2607  -1.2112  -1.1784
    -1.1675  -1.1468  -1.1427  -1.1132  -1.0935  -1.0876  -1.0472  -1.0438
    -1.0141  -1.0056  -0.9604  -0.9473  -0.8908  -0.8621  -0.8148  -0.8130
    -0.6954  -0.6748  -0.6149  -0.6069  -0.5695  -0.5536  -0.5379  -0.5265
    -0.4830  -0.4782  -0.2872  -0.2838  -0.1726  -0.1626  -0.1552  -0.1368
    -0.0925  -0.0921  -0.0826  -0.0428  -0.0376  -0.0186  -0.0110  -0.0044
    -0.0027   0.0536   0.0615   0.0989   0.1211   0.1642   0.1699   0.2170
     0.2663   0.2793   0.3089   0.3150   3.9362   3.9403   3.9949   4.0049
     4.0345   4.0393   4.0846   4.0940   4.1875   4.2011   4.2754   4.2765
     6.6239   6.7508   7.0960   7.2092   7.2249   7.3294   7.4124   7.4599
     7.4911   7.5808   7.6101   7.6313   7.6989   7.7415   7.8706   7.9688
     7.9735   8.0047   8.0879   8.1214   8.1868   8.2746   8.3303   8.3783
     8.4131   8.4712   8.4725   8.5572   8.5753   8.6444   8.7435   8.7589
     8.8147   8.8399   8.9431   9.0302   9.0647   9.0745

          k = 0.3333 0.0000-0.2018 (157341 PWs)   bands (ev):

   -24.7060 -24.7059 -24.7058 -24.7058 -24.5857 -24.5856 -24.5836 -24.5834
   -24.4517 -24.4517 -24.4509 -24.4509 -19.9968 -19.9964 -19.9959 -19.9956
   -19.9349 -19.9342 -19.9287 -19.9279 -19.8031 -19.8026 -19.7932 -19.7922
   -19.7277 -19.7274 -19.7236 -19.7235 -19.5352 -19.5326 -19.5291 -19.5267
   -19.2074 -19.2062 -19.1862 -19.1850 -17.7516 -17.7490 -17.7483 -17.7426
   -17.5905 -17.5871 -17.5871 -17.5828 -17.4810 -17.4802 -17.4766 -17.4757
   -12.2159 -12.2093 -12.2035 -12.2028 -12.0143 -12.0060 -12.0002 -11.9896
   -11.8696 -11.8692 -11.8546 -11.8491 -11.5773 -11.5682 -11.5637 -11.5530
   -11.4374 -11.4118 -11.4078 -11.3885 -11.2615 -11.2508 -11.2205 -11.1933
    -8.2238  -8.2201  -8.1988  -8.1794  -8.1627  -8.1402  -8.0931  -8.0652
    -7.9819  -7.9648  -7.8050  -7.7453  -7.6995  -7.6944  -7.6703  -7.6579
    -7.6048  -7.5916  -7.5833  -7.5636  -7.4054  -7.3866  -7.3749  -7.3412
    -7.2700  -7.2417  -7.1552  -7.1278  -7.1077  -7.0978  -7.0371  -7.0357
    -6.9571  -6.9329  -6.9317  -6.9026  -6.6710  -6.6590  -6.6469  -6.6408
    -6.6095  -6.5764  -6.5308  -6.5191  -6.4525  -6.4253  -6.4134  -6.4048
    -6.3288  -6.3069  -6.2907  -6.2829  -6.1354  -6.1202  -6.0983  -6.0606
    -5.9565  -5.9413  -5.9263  -5.8782  -5.3191  -5.2768  -5.1707  -5.1502
    -5.1450  -5.1196  -5.0731  -5.0684  -5.0367  -5.0217  -4.9004  -4.8488
    -4.7782  -4.7746  -4.7292  -4.7263  -4.5672  -4.5493  -4.5368  -4.5219
    -4.4317  -4.4105  -4.3844  -4.3475  -3.9342  -3.9219  -3.9113  -3.9006
    -3.8347  -3.8246  -3.8191  -3.7898  -3.6229  -3.5862  -3.4892  -3.4608
    -3.4271  -3.3643  -3.3159  -3.3107  -3.2890  -3.2423  -3.2057  -3.1619
    -3.1525  -3.1369  -3.0469  -3.0361  -2.7639  -2.7215  -2.6868  -2.6358
    -2.1436  -2.0436  -1.9698  -1.9243  -1.7778  -1.6735  -1.5660  -1.5169
    -1.3843  -1.3804  -1.3691  -1.3481  -1.2514  -1.2427  -1.2102  -1.1890
    -1.1679  -1.1267  -1.1206  -1.1145  -1.1018  -1.0940  -1.0465  -1.0340
    -1.0196  -0.9943  -0.9714  -0.9650  -0.8521  -0.8438  -0.8192  -0.8161
    -0.6929  -0.6646  -0.6574  -0.6181  -0.5614  -0.5443  -0.5338  -0.5191
    -0.5061  -0.4981  -0.2810  -0.2779  -0.1743  -0.1585  -0.1411  -0.1326
    -0.1092  -0.0739  -0.0652  -0.0620  -0.0494  -0.0396   0.0104   0.0161
     0.0174   0.0310   0.0693   0.0812   0.1056   0.1530   0.1733   0.2185
     0.2809   0.2865   0.2911   0.3057   3.9672   3.9719   3.9948   4.0126
     4.0317   4.0388   4.0570   4.0651   4.1832   4.1889   4.2810   4.2837
     6.7436   6.8110   6.9245   6.9955   7.2553   7.2730   7.3839   7.4631
     7.5097   7.5592   7.6591   7.6847   7.8137   7.8529   7.9523   7.9653
     8.0274   8.0494   8.0877   8.1103   8.1738   8.1907   8.2440   8.2896
     8.3551   8.4702   8.4796   8.5181   8.5645   8.6388   8.7185   8.8178
     8.9086   8.9278   8.9738   8.9954   9.0558   9.1179

     highest occupied, lowest unoccupied level (ev):     0.3233    3.8637

!    total energy              =   -2702.82359505 Ry
     Harris-Foulkes estimate   =   -2702.82359505 Ry
     estimated scf accuracy    <          5.1E-09 Ry

     total all-electron energy =     -9958.821071 Ry

     The total energy is the sum of the following terms:

     one-electron contribution =   -1519.13935945 Ry
     hartree contribution      =     959.00856996 Ry
     xc contribution           =    -547.86391941 Ry
     ewald contribution        =    -893.35662142 Ry
     Dispersion Correction     =      -0.67403496 Ry
     one-center paw contrib.   =    -700.79822978 Ry

     convergence has been achieved in  15 iterations

     Forces acting on atoms (cartesian axes, Ry/au):

     atom    1 type  4   force =     0.00780087   -0.01481166   -0.00954263
     atom    2 type  4   force =    -0.00780087   -0.01481166    0.00954263
     atom    3 type  4   force =    -0.00780087    0.01481166    0.00954263
     atom    4 type  4   force =     0.00780087    0.01481166   -0.00954263
     atom    5 type  4   force =     0.00060340    0.00208166    0.00439454
     atom    6 type  4   force =    -0.00060340    0.00208166   -0.00439454
     atom    7 type  4   force =    -0.00060340   -0.00208166   -0.00439454
     atom    8 type  4   force =     0.00060340   -0.00208166    0.00439454
     atom    9 type  4   force =     0.00026145   -0.00099688   -0.00172217
     atom   10 type  4   force =    -0.00026145   -0.00099688    0.00172217
     atom   11 type  4   force =    -0.00026145    0.00099688    0.00172217
     atom   12 type  4   force =     0.00026145    0.00099688   -0.00172217
     atom   13 type  2   force =    -0.02247782    0.00413328    0.00023149
     atom   14 type  2   force =     0.02247782    0.00413328   -0.00023149
     atom   15 type  2   force =     0.02247782   -0.00413328   -0.00023149
     atom   16 type  2   force =    -0.02247782   -0.00413328    0.00023149
     atom   17 type  2   force =     0.01924207   -0.00145847   -0.00320250
     atom   18 type  2   force =    -0.01924207   -0.00145847    0.00320250
     atom   19 type  2   force =    -0.01924207    0.00145847    0.00320250
     atom   20 type  2   force =     0.01924207    0.00145847   -0.00320250
     atom   21 type  1   force =     0.00038812   -0.00239556   -0.00276457
     atom   22 type  1   force =    -0.00038812   -0.00239556    0.00276457
     atom   23 type  1   force =    -0.00038812    0.00239556    0.00276457
     atom   24 type  1   force =     0.00038812    0.00239556   -0.00276457
     atom   25 type  1   force =     0.00965779    0.00392712    0.00875163
     atom   26 type  1   force =    -0.00965779    0.00392712   -0.00875163
     atom   27 type  1   force =    -0.00965779   -0.00392712   -0.00875163
     atom   28 type  1   force =     0.00965779   -0.00392712    0.00875163
     atom   29 type  3   force =    -0.00063424   -0.00008719   -0.00193978
     atom   30 type  3   force =     0.00063424   -0.00008719    0.00193978
     atom   31 type  3   force =     0.00063424    0.00008719    0.00193978
     atom   32 type  3   force =    -0.00063424    0.00008719   -0.00193978
     atom   33 type  3   force =    -0.01270934    0.01111536    0.00612564
     atom   34 type  3   force =     0.01270934    0.01111536   -0.00612564
     atom   35 type  3   force =     0.01270934   -0.01111536   -0.00612564
     atom   36 type  3   force =    -0.01270934   -0.01111536    0.00612564
     atom   37 type  3   force =     0.00008215   -0.00103108    0.00054716
     atom   38 type  3   force =    -0.00008215   -0.00103108   -0.00054716
     atom   39 type  3   force =    -0.00008215    0.00103108   -0.00054716
     atom   40 type  3   force =     0.00008215    0.00103108    0.00054716
     atom   41 type  3   force =     0.00014175    0.00103448   -0.00119805
     atom   42 type  3   force =    -0.00014175    0.00103448    0.00119805
     atom   43 type  3   force =    -0.00014175   -0.00103448    0.00119805
     atom   44 type  3   force =     0.00014175   -0.00103448   -0.00119805
     atom   45 type  3   force =    -0.00206672   -0.00019492   -0.00109426
     atom   46 type  3   force =     0.00206672   -0.00019492    0.00109426
     atom   47 type  3   force =     0.00206672    0.00019492    0.00109426
     atom   48 type  3   force =    -0.00206672    0.00019492   -0.00109426
     atom   49 type  3   force =     0.00066667   -0.00015634    0.00066375
     atom   50 type  3   force =    -0.00066667   -0.00015634   -0.00066375
     atom   51 type  3   force =    -0.00066667    0.00015634   -0.00066375
     atom   52 type  3   force =     0.00066667    0.00015634    0.00066375
     atom   53 type  4   force =     0.00191484    0.00277474    0.00368735
     atom   54 type  4   force =    -0.00191484    0.00277474   -0.00368735
     atom   55 type  4   force =    -0.00191484   -0.00277474   -0.00368735
     atom   56 type  4   force =     0.00191484   -0.00277474    0.00368735
     atom   57 type  4   force =     0.00952340   -0.01147447   -0.01515551
     atom   58 type  4   force =    -0.00952340   -0.01147447    0.01515551
     atom   59 type  4   force =    -0.00952340    0.01147447    0.01515551
     atom   60 type  4   force =     0.00952340    0.01147447   -0.01515551
     atom   61 type  4   force =     0.00017203   -0.00185056    0.00009221
     atom   62 type  4   force =    -0.00017203   -0.00185056   -0.00009221
     atom   63 type  4   force =    -0.00017203    0.00185056   -0.00009221
     atom   64 type  4   force =     0.00017203    0.00185056    0.00009221
     atom   65 type  2   force =    -0.02471343   -0.00104225   -0.00123961
     atom   66 type  2   force =     0.02471343   -0.00104225    0.00123961
     atom   67 type  2   force =     0.02471343    0.00104225    0.00123961
     atom   68 type  2   force =    -0.02471343    0.00104225   -0.00123961
     atom   69 type  2   force =     0.01815236   -0.00294418   -0.00095147
     atom   70 type  2   force =    -0.01815236   -0.00294418    0.00095147
     atom   71 type  2   force =    -0.01815236    0.00294418    0.00095147
     atom   72 type  2   force =     0.01815236    0.00294418   -0.00095147
     atom   73 type  1   force =     0.00950353    0.00912589    0.00964139
     atom   74 type  1   force =    -0.00950353    0.00912589   -0.00964139
     atom   75 type  1   force =    -0.00950353   -0.00912589   -0.00964139
     atom   76 type  1   force =     0.00950353   -0.00912589    0.00964139
     atom   77 type  1   force =     0.00060736    0.00060981   -0.00412655
     atom   78 type  1   force =    -0.00060736    0.00060981    0.00412655
     atom   79 type  1   force =    -0.00060736   -0.00060981    0.00412655
     atom   80 type  1   force =     0.00060736   -0.00060981   -0.00412655
     atom   81 type  3   force =     0.00079236   -0.00036881    0.00032595
     atom   82 type  3   force =    -0.00079236   -0.00036881   -0.00032595
     atom   83 type  3   force =    -0.00079236    0.00036881   -0.00032595
     atom   84 type  3   force =     0.00079236    0.00036881    0.00032595
     atom   85 type  3   force =    -0.00314010   -0.00110062   -0.00102471
     atom   86 type  3   force =     0.00314010   -0.00110062    0.00102471
     atom   87 type  3   force =     0.00314010    0.00110062    0.00102471
     atom   88 type  3   force =    -0.00314010    0.00110062   -0.00102471
     atom   89 type  3   force =    -0.01105411    0.00828406    0.00887861
     atom   90 type  3   force =     0.01105411    0.00828406   -0.00887861
     atom   91 type  3   force =     0.01105411   -0.00828406   -0.00887861
     atom   92 type  3   force =    -0.01105411   -0.00828406    0.00887861
     atom   93 type  3   force =    -0.00066172   -0.00149789   -0.00008217
     atom   94 type  3   force =     0.00066172   -0.00149789    0.00008217
     atom   95 type  3   force =     0.00066172    0.00149789    0.00008217
     atom   96 type  3   force =    -0.00066172    0.00149789   -0.00008217
     atom   97 type  3   force =    -0.00024321   -0.00081856   -0.00079627
     atom   98 type  3   force =     0.00024321   -0.00081856    0.00079627
     atom   99 type  3   force =     0.00024321    0.00081856    0.00079627
     atom  100 type  3   force =    -0.00024321    0.00081856   -0.00079627
     atom  101 type  3   force =    -0.00141321   -0.00041302   -0.00048255
     atom  102 type  3   force =     0.00141321   -0.00041302    0.00048255
     atom  103 type  3   force =     0.00141321    0.00041302    0.00048255
     atom  104 type  3   force =    -0.00141321    0.00041302   -0.00048255
     atom  105 type  4   force =     0.00198049    0.00328284   -0.00109833
     atom  106 type  4   force =    -0.00198049    0.00328284    0.00109833
     atom  107 type  4   force =    -0.00198049   -0.00328284    0.00109833
     atom  108 type  4   force =     0.00198049   -0.00328284   -0.00109833
     atom  109 type  4   force =     0.01159039   -0.01374684    0.01386320
     atom  110 type  4   force =    -0.01159039   -0.01374684   -0.01386320
     atom  111 type  4   force =    -0.01159039    0.01374684   -0.01386320
     atom  112 type  4   force =     0.01159039    0.01374684    0.01386320
     atom  113 type  4   force =     0.00060821    0.00059132    0.00033827
     atom  114 type  4   force =    -0.00060821    0.00059132   -0.00033827
     atom  115 type  4   force =    -0.00060821   -0.00059132   -0.00033827
     atom  116 type  4   force =     0.00060821   -0.00059132    0.00033827
     atom  117 type  2   force =    -0.02687892   -0.00370058    0.00116599
     atom  118 type  2   force =     0.02687892   -0.00370058   -0.00116599
     atom  119 type  2   force =     0.02687892    0.00370058   -0.00116599
     atom  120 type  2   force =    -0.02687892    0.00370058    0.00116599
     atom  121 type  2   force =     0.01806770   -0.00366887    0.00031623
     atom  122 type  2   force =    -0.01806770   -0.00366887   -0.00031623
     atom  123 type  2   force =    -0.01806770    0.00366887   -0.00031623
     atom  124 type  2   force =     0.01806770    0.00366887    0.00031623
     atom  125 type  1   force =     0.01379392    0.00946930   -0.00793122
     atom  126 type  1   force =    -0.01379392    0.00946930    0.00793122
     atom  127 type  1   force =    -0.01379392   -0.00946930    0.00793122
     atom  128 type  1   force =     0.01379392   -0.00946930   -0.00793122
     atom  129 type  1   force =     0.00074865   -0.00248563    0.00111400
     atom  130 type  1   force =    -0.00074865   -0.00248563   -0.00111400
     atom  131 type  1   force =    -0.00074865    0.00248563   -0.00111400
     atom  132 type  1   force =     0.00074865    0.00248563    0.00111400
     atom  133 type  3   force =    -0.01456809    0.01012109   -0.00728207
     atom  134 type  3   force =     0.01456809    0.01012109    0.00728207
     atom  135 type  3   force =     0.01456809   -0.01012109    0.00728207
     atom  136 type  3   force =    -0.01456809   -0.01012109   -0.00728207
     atom  137 type  3   force =    -0.00146253    0.00017460    0.00019580
     atom  138 type  3   force =     0.00146253    0.00017460   -0.00019580
     atom  139 type  3   force =     0.00146253   -0.00017460   -0.00019580
     atom  140 type  3   force =    -0.00146253   -0.00017460    0.00019580
     atom  141 type  3   force =     0.00016356    0.00004276    0.00015083
     atom  142 type  3   force =    -0.00016356    0.00004276   -0.00015083
     atom  143 type  3   force =    -0.00016356   -0.00004276   -0.00015083
     atom  144 type  3   force =     0.00016356   -0.00004276    0.00015083
     atom  145 type  3   force =    -0.00080720   -0.00106966    0.00082137
     atom  146 type  3   force =     0.00080720   -0.00106966   -0.00082137
     atom  147 type  3   force =     0.00080720    0.00106966   -0.00082137
     atom  148 type  3   force =    -0.00080720    0.00106966    0.00082137
     atom  149 type  3   force =    -0.00187994    0.00073577   -0.00198632
     atom  150 type  3   force =     0.00187994    0.00073577    0.00198632
     atom  151 type  3   force =     0.00187994   -0.00073577    0.00198632
     atom  152 type  3   force =    -0.00187994   -0.00073577   -0.00198632
     atom  153 type  3   force =     0.00045951    0.00043043    0.00108611
     atom  154 type  3   force =    -0.00045951    0.00043043   -0.00108611
     atom  155 type  3   force =    -0.00045951   -0.00043043   -0.00108611
     atom  156 type  3   force =     0.00045951   -0.00043043    0.00108611

     Total force =     0.157343     Total SCF correction =     0.000171


     Computing stress (Cartesian axis) and pressure

          total   stress  (Ry/bohr**3)                   (kbar)     P=    3.63
   0.00000043   0.00000000  -0.00000369          0.06      0.00     -0.54
   0.00000000   0.00003035   0.00000000          0.00      4.46      0.00
  -0.00000369   0.00000000   0.00004329         -0.54      0.00      6.37


     Writing output data file scf.save
 
     init_run     :     69.91s CPU     71.91s WALL (       1 calls)
     electrons    :   2291.36s CPU   2363.62s WALL (       1 calls)
     forces       :     41.04s CPU     41.45s WALL (       1 calls)
     stress       :    177.64s CPU    178.17s WALL (       1 calls)

     Called by init_run:
     wfcinit      :     54.49s CPU     56.26s WALL (       1 calls)
     potinit      :      5.56s CPU      5.61s WALL (       1 calls)

     Called by electrons:
     c_bands      :   2078.31s CPU   2138.37s WALL (      15 calls)
     sum_band     :    191.63s CPU    201.41s WALL (      15 calls)
     v_of_rho     :      2.66s CPU      2.92s WALL (      16 calls)
     newd         :      8.41s CPU     10.53s WALL (      16 calls)
     PAW_pot      :      9.67s CPU      9.68s WALL (      16 calls)
     mix_rho      :      0.63s CPU      0.68s WALL (      15 calls)

     Called by c_bands:
     init_us_2    :      7.53s CPU      7.59s WALL (     132 calls)
     cegterg      :   2048.59s CPU   2108.58s WALL (      60 calls)

     Called by sum_band:
     sum_band:bec :      0.09s CPU      0.09s WALL (      60 calls)
     addusdens    :      8.27s CPU     10.27s WALL (      15 calls)

     Called by *egterg:
     h_psi        :    990.00s CPU   1036.28s WALL (     349 calls)
     s_psi        :    280.99s CPU    281.14s WALL (     349 calls)
     g_psi        :      3.90s CPU      3.90s WALL (     285 calls)
     cdiaghg      :    146.93s CPU    147.02s WALL (     345 calls)

     Called by h_psi:
     h_psi:pot    :    984.44s CPU   1030.62s WALL (     349 calls)
     h_psi:calbec :    270.77s CPU    271.18s WALL (     349 calls)
     vloc_psi     :    432.31s CPU    477.91s WALL (     349 calls)
     add_vuspsi   :    281.35s CPU    281.53s WALL (     349 calls)

     General routines
     calbec       :    398.03s CPU    398.67s WALL (     429 calls)
     fft          :      2.11s CPU      2.59s WALL (     232 calls)
     fftw         :    462.82s CPU    515.74s WALL (  118690 calls)
 
     Parallel routines
     fft_scatter  :     78.55s CPU    129.34s WALL (  118922 calls)
 
     PWSCF        : 43m13.12s CPU    45m 4.26s WALL

 
   This run was terminated on:  13: 9: 9  13Nov2017            

=------------------------------------------------------------------------------=
   JOB DONE.
=------------------------------------------------------------------------------=
