
     Program PWSCF v.6.1 (svn rev. 13369) starts on  7Dec2017 at 19:48:24 

     This program is part of the open-source Quantum ESPRESSO suite
     for quantum simulation of materials; please cite
         "P. Giannozzi et al., J. Phys.:Condens. Matter 21 395502 (2009);
          URL http://www.quantum-espresso.org", 
     in publications or presentations arising from this work. More details at
     http://www.quantum-espresso.org/quote

     Parallel version (MPI), running on     8 processors
     R & G space division:  proc/nbgrp/npool/nimage =       8
     Waiting for input...
     Reading input from standard input

     Current dimensions of program PWSCF are:
     Max number of different atomic species (ntypx) = 10
     Max number of k-points (npk) =  40000
     Max angular momentum in pseudopotentials (lmaxx) =  3
               file C.pbe-n-kjpaw_psl.0.1.UPF: wavefunction(s)  2P renormalized
               file N.pbe-n-kjpaw_psl.0.1.UPF: wavefunction(s)  2P renormalized
               file H.pbe-kjpaw_psl.0.1.UPF: wavefunction(s)  1S renormalized
               file O.pbe-n-kjpaw_psl.0.1.UPF: wavefunction(s)  2P renormalized

     -------------------------------------
     Parameters for Dispersion Correction:
     -------------------------------------
       atom      VdW radius       C_6     

        C          2.744         60.710
        N          2.640         42.670
        H          1.892          4.857
        O          2.536         24.284

     Subspace diagonalization in iterative solution of the eigenvalue problem:
     a serial algorithm will be used

 
     Parallelization info
     --------------------
     sticks:   dense  smooth     PW     G-vecs:    dense   smooth      PW
     Min        1607    1607    425               141628   141628   19169
     Max        1609    1609    426               141632   141632   19172
     Sum       12863   12863   3403              1133039  1133039  153369
 


     bravais-lattice index     =            0
     lattice parameter (alat)  =      19.7030  a.u.
     unit-cell volume          =    8387.4790 (a.u.)^3
     number of atoms/cell      =          120
     number of atomic types    =            4
     number of electrons       =       480.00
     number of Kohn-Sham states=          288
     kinetic-energy cutoff     =     100.0000  Ry
     charge density cutoff     =     400.0000  Ry
     convergence threshold     =      1.0E-08
     mixing beta               =       0.5000
     number of iterations used =            8  plain     mixing
     Exchange-correlation      =  SLA  PW   PBX  PBC ( 1  4  3  4 0 0)

     celldm(1)=  19.703041  celldm(2)=   0.000000  celldm(3)=   0.000000
     celldm(4)=   0.000000  celldm(5)=   0.000000  celldm(6)=   0.000000

     crystal axes: (cart. coord. in units of alat)
               a(1) = (   1.000000   0.000000   0.000000 )  
               a(2) = (   0.000000   1.040532   0.000000 )  
               a(3) = (   0.000000   0.000000   1.053844 )  

     reciprocal axes: (cart. coord. in units 2 pi/alat)
               b(1) = (  1.000000  0.000000  0.000000 )  
               b(2) = (  0.000000  0.961047  0.000000 )  
               b(3) = (  0.000000  0.000000  0.948907 )  


     PseudoPot. # 1 for  C read from file:
     /scratch/ahofstet/pseudo/C.pbe-n-kjpaw_psl.0.1.UPF
     MD5 check sum: 430fe95172b1e11ef3f8ed03bac87931
     Pseudo is Projector augmented-wave + core cor, Zval =  4.0
     Generated using "atomic" code by A. Dal Corso  v.5.0.99 svn rev. 10869
     Shape of augmentation charge: BESSEL
     Using radial grid of 1073 points,  4 beta functions with: 
                l(1) =   0
                l(2) =   0
                l(3) =   1
                l(4) =   1
     Q(r) pseudized with 0 coefficients 


     PseudoPot. # 2 for  N read from file:
     /scratch/ahofstet/pseudo/N.pbe-n-kjpaw_psl.0.1.UPF
     MD5 check sum: f73187c8b701007e77325f868c9291d7
     Pseudo is Projector augmented-wave + core cor, Zval =  5.0
     Generated using "atomic" code by A. Dal Corso  v.5.0.99 svn rev. 10869
     Shape of augmentation charge: PSQ
     Using radial grid of 1085 points,  4 beta functions with: 
                l(1) =   0
                l(2) =   0
                l(3) =   1
                l(4) =   1
     Q(r) pseudized with 0 coefficients 


     PseudoPot. # 3 for  H read from file:
     /scratch/ahofstet/pseudo/H.pbe-kjpaw_psl.0.1.UPF
     MD5 check sum: 94e484f906d9e9773b2f6e52662335b2
     Pseudo is Projector augmented-wave, Zval =  1.0
     Generated using "atomic" code by A. Dal Corso  v.5.0.99 svn rev. 10869
     Shape of augmentation charge: PSQ
     Using radial grid of  929 points,  2 beta functions with: 
                l(1) =   0
                l(2) =   0
     Q(r) pseudized with 0 coefficients 


     PseudoPot. # 4 for  O read from file:
     /scratch/ahofstet/pseudo/O.pbe-n-kjpaw_psl.0.1.UPF
     MD5 check sum: 3f94a2996a3169367d6eb21d9b593f20
     Pseudo is Projector augmented-wave + core cor, Zval =  6.0
     Generated using "atomic" code by A. Dal Corso  v.5.0.99 svn rev. 10869
     Shape of augmentation charge: BESSEL
     Using radial grid of 1095 points,  4 beta functions with: 
                l(1) =   0
                l(2) =   0
                l(3) =   1
                l(4) =   1
     Q(r) pseudized with 0 coefficients 


     atomic species   valence    mass     pseudopotential
        C              4.00    12.01070      C( 1.00)
        N              5.00    14.00670      N( 1.00)
        H              1.00     1.00794      H( 1.00)
        O              6.00    15.99940      O( 1.00)

     No symmetry found
          (note:  3 additional sym.ops. were found but ignored
           their fractional translations are incommensurate with FFT grid)


   Cartesian axes

     site n.     atom                  positions (alat units)
         1           O   tau(   1) = (   0.3928160   0.7811400   0.8281211  )
         2           O   tau(   2) = (   0.1071840   0.2593917   0.3011990  )
         3           O   tau(   3) = (   0.8928160   0.7796576   0.2257230  )
         4           O   tau(   4) = (   0.6071840   0.2608741   0.7526451  )
         5           C   tau(   5) = (   0.6351164   0.7642192   0.8937034  )
         6           C   tau(   6) = (   0.8648836   0.2763126   0.3667813  )
         7           C   tau(   7) = (   0.1351164   0.7965784   0.1601407  )
         8           C   tau(   8) = (   0.3648836   0.2439533   0.6870628  )
         9           H   tau(   9) = (   0.6179486   0.8615805   0.8578322  )
        10           H   tau(  10) = (   0.8820514   0.1789512   0.3309102  )
        11           H   tau(  11) = (   0.1179486   0.6992171   0.1960118  )
        12           H   tau(  12) = (   0.3820514   0.3413147   0.7229339  )
        13           H   tau(  13) = (   0.7380128   0.7450366   0.8895395  )
        14           H   tau(  14) = (   0.7619872   0.2954951   0.3626175  )
        15           H   tau(  15) = (   0.2380128   0.8157610   0.1643045  )
        16           H   tau(  16) = (   0.2619872   0.2247707   0.6912266  )
        17           H   tau(  17) = (   0.5993655   0.7549804   0.9925671  )
        18           H   tau(  18) = (   0.9006345   0.2855513   0.4656451  )
        19           H   tau(  19) = (   0.0993655   0.8058172   0.0612770  )
        20           H   tau(  20) = (   0.4006345   0.2347146   0.5881990  )
        21           N   tau(  21) = (   0.4488551   0.6883539   0.7791851  )
        22           N   tau(  22) = (   0.0511449   0.3521779   0.2522631  )
        23           N   tau(  23) = (   0.9488551   0.8724437   0.2746589  )
        24           N   tau(  24) = (   0.5511449   0.1680880   0.8015810  )
        25           O   tau(  25) = (   0.3976404   0.6097444   0.7048136  )
        26           O   tau(  26) = (   0.1023596   0.4307874   0.1778915  )
        27           O   tau(  27) = (   0.8976404   0.9510532   0.3490305  )
        28           O   tau(  28) = (   0.6023596   0.0894785   0.8759526  )
        29           C   tau(  29) = (   0.6346925   0.5534854   0.7667929  )
        30           C   tau(  30) = (   0.8653075   0.4870463   0.2398709  )
        31           C   tau(  31) = (   0.1346925   1.0073122   0.2870511  )
        32           C   tau(  32) = (   0.3653075   0.0332195   0.8139732  )
        33           H   tau(  33) = (   0.7151540   0.5356313   0.8314367  )
        34           H   tau(  34) = (   0.7848460   0.5049004   0.3045146  )
        35           H   tau(  35) = (   0.2151540   1.0251663   0.2224074  )
        36           H   tau(  36) = (   0.2848460   0.0153654   0.7493295  )
        37           H   tau(  37) = (   0.5663478   0.4744848   0.7743932  )
        38           H   tau(  38) = (   0.9336522   0.5660469   0.2474712  )
        39           H   tau(  39) = (   0.0663478   0.0457810   0.2794508  )
        40           H   tau(  40) = (   0.4336522   0.9947507   0.8063729  )
        41           N   tau(  41) = (   0.5742048   0.6714082   0.8090110  )
        42           N   tau(  42) = (   0.9257952   0.3691236   0.2820889  )
        43           N   tau(  43) = (   0.0742048   0.8893894   0.2448331  )
        44           N   tau(  44) = (   0.4257952   0.1511423   0.7717552  )
        45           N   tau(  45) = (   0.6796168   0.5548797   0.6348812  )
        46           N   tau(  46) = (   0.8203832   0.4856520   0.1079592  )
        47           N   tau(  47) = (   0.1796168   1.0059179   0.4189629  )
        48           N   tau(  48) = (   0.3203832   0.0346138   0.9458849  )
        49           O   tau(  49) = (   0.8510296   0.5743756   0.5092024  )
        50           O   tau(  50) = (   0.6489704   0.4661562   1.0361245  )
        51           O   tau(  51) = (   0.3510296   0.9864220   0.5446417  )
        52           O   tau(  52) = (   0.1489704   0.0541097   0.0177196  )
        53           C   tau(  53) = (   0.6199332   0.4775474   0.5349524  )
        54           C   tau(  54) = (   0.8800668   0.5629844   0.0080303  )
        55           C   tau(  55) = (   0.1199332   0.0427185   0.5188917  )
        56           C   tau(  56) = (   0.3800668   0.9978132   1.0458138  )
        57           H   tau(  57) = (   0.6230957   0.5297417   0.4439910  )
        58           H   tau(  58) = (   0.8769043   0.5107900   0.9709131  )
        59           H   tau(  59) = (   0.1230957  -0.0094759   0.6098531  )
        60           H   tau(  60) = (   0.3769043   1.0500076   0.0829310  )
        61           H   tau(  61) = (   0.5197867   0.4646688   0.5626641  )
        62           H   tau(  62) = (   0.9802133   0.5758629   0.0357421  )
        63           H   tau(  63) = (   0.0197867   0.0555970   0.4911800  )
        64           H   tau(  64) = (   0.4802133   0.9849347   1.0181020  )
        65           H   tau(  65) = (   0.6674232   0.3839143   0.5270377  )
        66           H   tau(  66) = (   0.8325768   0.6566174   0.0001157  )
        67           H   tau(  67) = (   0.1674232   0.1363516   0.5268064  )
        68           H   tau(  68) = (   0.3325768   0.9041802   1.0537284  )
        69           N   tau(  69) = (   0.8018167   0.5964075   0.6150632  )
        70           N   tau(  70) = (   0.6981833   0.4441242   0.0881411  )
        71           N   tau(  71) = (   0.3018167   0.9643901   0.4387809  )
        72           N   tau(  72) = (   0.1981833   0.0761416   0.9657030  )
        73           O   tau(  73) = (   0.8557137   0.6548517   0.7042119  )
        74           O   tau(  74) = (   0.6442863   0.3856800   0.1772898  )
        75           O   tau(  75) = (   0.3557137   0.9059459   0.3496322  )
        76           O   tau(  76) = (   0.1442863   0.1345858   0.8765543  )
        77           N   tau(  77) = (   0.3791222   0.4917438   0.2592218  )
        78           N   tau(  78) = (   0.1208778   0.5487880   0.7861438  )
        79           N   tau(  79) = (   0.8791222   0.0285221   0.7946223  )
        80           N   tau(  80) = (   0.6208778   1.0120096   0.2677003  )
        81           O   tau(  81) = (   0.3786773   0.5970353   0.3130470  )
        82           O   tau(  82) = (   0.1213227   0.4434964   0.8399690  )
        83           O   tau(  83) = (   0.8786773   0.9637623   0.7407971  )
        84           O   tau(  84) = (   0.6213227   0.0767694   0.2138751  )
        85           N   tau(  85) = (   0.3828558   0.3854100   0.3290836  )
        86           N   tau(  86) = (   0.1171442   0.6551218   0.8560056  )
        87           N   tau(  87) = (   0.8828558   0.1348559   0.7247605  )
        88           N   tau(  88) = (   0.6171442   0.9056758   0.1978384  )
        89           O   tau(  89) = (   0.3843616   0.1737766   0.3372577  )
        90           O   tau(  90) = (   0.1156384   0.8667552   0.8641797  )
        91           O   tau(  91) = (   0.8843616   0.3464893   0.7165864  )
        92           O   tau(  92) = (   0.6156384   0.6940424   0.1896644  )
        93           N   tau(  93) = (   0.3814163   0.2646348   0.2622938  )
        94           N   tau(  94) = (   0.1185837   0.7758969   0.7892159  )
        95           N   tau(  95) = (   0.8814163   0.2556311   0.7915503  )
        96           N   tau(  96) = (   0.6185837   0.7849007   0.2646282  )
        97           N   tau(  97) = (   0.3767246   0.2455775   0.1381039  )
        98           N   tau(  98) = (   0.1232754   0.7949542   0.6650259  )
        99           N   tau(  99) = (   0.8767246   0.2746883   0.9157402  )
       100           N   tau( 100) = (   0.6232754   0.7658434   0.3888182  )
       101           C   tau( 101) = (   0.3748024   0.3561841   0.0704110  )
       102           C   tau( 102) = (   0.1251976   0.6843476   0.5973331  )
       103           C   tau( 103) = (   0.8748024   0.1640818   0.9834331  )
       104           C   tau( 104) = (   0.6251976   0.8764500   0.4565110  )
       105           N   tau( 105) = (   0.3708050   0.3689157   0.9978486  )
       106           N   tau( 106) = (   0.1291950   0.6716161   0.4709266  )
       107           N   tau( 107) = (   0.8708050   0.1513502   0.0559955  )
       108           N   tau( 108) = (   0.6291950   0.8891815   0.5829175  )
       109           O   tau( 109) = (   0.3683895   0.5008038   0.9797246  )
       110           O   tau( 110) = (   0.1316105   0.5397279   0.4528026  )
       111           O   tau( 111) = (   0.8683895   0.0194621   0.0741195  )
       112           O   tau( 112) = (   0.6316105   1.0210696   0.6010415  )
       113           N   tau( 113) = (   0.3715477   0.5698620   0.0380081  )
       114           N   tau( 114) = (   0.1284523   0.4706697   0.5649301  )
       115           N   tau( 115) = (   0.8715477   0.9909356   1.0158360  )
       116           N   tau( 116) = (   0.6284523   0.0495962   0.4889140  )
       117           C   tau( 117) = (   0.3757957   0.4798459   0.1253989  )
       118           C   tau( 118) = (   0.1242043   0.5606858   0.6523209  )
       119           C   tau( 119) = (   0.8757957   0.0404200   0.9284452  )
       120           C   tau( 120) = (   0.6242043   1.0001117   0.4015232  )

     number of k points=     8
                       cart. coord. in units 2pi/alat
        k(    1) = (   0.0000000   0.0000000   0.0000000), wk =   0.2500000
        k(    2) = (   0.0000000   0.0000000  -0.4744535), wk =   0.2500000
        k(    3) = (   0.0000000  -0.4805236   0.0000000), wk =   0.2500000
        k(    4) = (   0.0000000  -0.4805236  -0.4744535), wk =   0.2500000
        k(    5) = (  -0.5000000   0.0000000   0.0000000), wk =   0.2500000
        k(    6) = (  -0.5000000   0.0000000  -0.4744535), wk =   0.2500000
        k(    7) = (  -0.5000000  -0.4805236   0.0000000), wk =   0.2500000
        k(    8) = (  -0.5000000  -0.4805236  -0.4744535), wk =   0.2500000

     Dense  grid:  1133039 G-vectors     FFT dimensions: ( 125, 135, 135)

     Estimated max dynamical RAM per process >    1656.87MB

     Estimated total allocated dynamical RAM >   13254.94MB

     Check: negative/imaginary core charge=   -0.000002    0.000000

     Initial potential from superposition of free atoms

     starting charge  479.99853, renormalised to  480.00000
     Starting wfc are  384 randomized atomic wfcs
     Checking if some PAW data can be deallocated... 

     total cpu time spent up to now is      109.1 secs

     per-process dynamical memory:  1048.7 Mb

     Self-consistent Calculation

     iteration #  1     ecut=   100.00 Ry     beta=0.50
     Davidson diagonalization with overlap
     ethr =  1.00E-02,  avg # of iterations =  3.0

     total cpu time spent up to now is      467.2 secs

     total energy              =   -2694.82078899 Ry
     Harris-Foulkes estimate   =   -2701.47042040 Ry
     estimated scf accuracy    <      12.11882718 Ry

     iteration #  2     ecut=   100.00 Ry     beta=0.50
     Davidson diagonalization with overlap
     ethr =  2.52E-03,  avg # of iterations =  4.2

     total cpu time spent up to now is      744.4 secs

     total energy              =   -2696.66372980 Ry
     Harris-Foulkes estimate   =   -2698.80392076 Ry
     estimated scf accuracy    <       4.68899897 Ry

     iteration #  3     ecut=   100.00 Ry     beta=0.50
     Davidson diagonalization with overlap
     ethr =  9.77E-04,  avg # of iterations =  3.2

     total cpu time spent up to now is      975.4 secs

     total energy              =   -2697.52041438 Ry
     Harris-Foulkes estimate   =   -2698.05800877 Ry
     estimated scf accuracy    <       1.33630453 Ry

     iteration #  4     ecut=   100.00 Ry     beta=0.50
     Davidson diagonalization with overlap
     ethr =  2.78E-04,  avg # of iterations =  6.6

     total cpu time spent up to now is     1221.1 secs

     total energy              =   -2697.77913298 Ry
     Harris-Foulkes estimate   =   -2697.90234096 Ry
     estimated scf accuracy    <       0.36862562 Ry

     iteration #  5     ecut=   100.00 Ry     beta=0.50
     Davidson diagonalization with overlap
     ethr =  7.68E-05,  avg # of iterations =  9.2

     total cpu time spent up to now is     1465.3 secs

     total energy              =   -2697.83427749 Ry
     Harris-Foulkes estimate   =   -2697.84511992 Ry
     estimated scf accuracy    <       0.02911723 Ry

     iteration #  6     ecut=   100.00 Ry     beta=0.50
     Davidson diagonalization with overlap
     ethr =  6.07E-06,  avg # of iterations =  8.8

     total cpu time spent up to now is     1895.9 secs

     total energy              =   -2697.84442831 Ry
     Harris-Foulkes estimate   =   -2697.84932827 Ry
     estimated scf accuracy    <       0.01321568 Ry

     iteration #  7     ecut=   100.00 Ry     beta=0.50
     Davidson diagonalization with overlap
     ethr =  2.75E-06,  avg # of iterations =  3.0

     total cpu time spent up to now is     2098.2 secs

     total energy              =   -2697.84609763 Ry
     Harris-Foulkes estimate   =   -2697.84694434 Ry
     estimated scf accuracy    <       0.00214818 Ry

     iteration #  8     ecut=   100.00 Ry     beta=0.50
     Davidson diagonalization with overlap
     ethr =  4.48E-07,  avg # of iterations =  3.0

     total cpu time spent up to now is     2355.5 secs

     total energy              =   -2697.84663539 Ry
     Harris-Foulkes estimate   =   -2697.84704209 Ry
     estimated scf accuracy    <       0.00129702 Ry

     iteration #  9     ecut=   100.00 Ry     beta=0.50
     Davidson diagonalization with overlap
     ethr =  2.70E-07,  avg # of iterations =  2.0

     total cpu time spent up to now is     2551.0 secs

     total energy              =   -2697.84681548 Ry
     Harris-Foulkes estimate   =   -2697.84686510 Ry
     estimated scf accuracy    <       0.00013728 Ry

     iteration # 10     ecut=   100.00 Ry     beta=0.50
     Davidson diagonalization with overlap
     ethr =  2.86E-08,  avg # of iterations =  3.0

     total cpu time spent up to now is     2840.7 secs

     total energy              =   -2697.84685101 Ry
     Harris-Foulkes estimate   =   -2697.84686678 Ry
     estimated scf accuracy    <       0.00003833 Ry

     iteration # 11     ecut=   100.00 Ry     beta=0.50
     Davidson diagonalization with overlap
     ethr =  7.99E-09,  avg # of iterations =  4.0

     total cpu time spent up to now is     3084.7 secs

     total energy              =   -2697.84685750 Ry
     Harris-Foulkes estimate   =   -2697.84686264 Ry
     estimated scf accuracy    <       0.00001277 Ry

     iteration # 12     ecut=   100.00 Ry     beta=0.50
     Davidson diagonalization with overlap
     ethr =  2.66E-09,  avg # of iterations =  2.1

     total cpu time spent up to now is     3300.2 secs

     total energy              =   -2697.84685946 Ry
     Harris-Foulkes estimate   =   -2697.84686092 Ry
     estimated scf accuracy    <       0.00000440 Ry

     iteration # 13     ecut=   100.00 Ry     beta=0.50
     Davidson diagonalization with overlap
     ethr =  9.17E-10,  avg # of iterations =  3.8

     total cpu time spent up to now is     3528.5 secs

     total energy              =   -2697.84686039 Ry
     Harris-Foulkes estimate   =   -2697.84686083 Ry
     estimated scf accuracy    <       0.00000141 Ry

     iteration # 14     ecut=   100.00 Ry     beta=0.50
     Davidson diagonalization with overlap
     ethr =  2.94E-10,  avg # of iterations =  2.0

     total cpu time spent up to now is     3730.6 secs

     total energy              =   -2697.84686065 Ry
     Harris-Foulkes estimate   =   -2697.84686070 Ry
     estimated scf accuracy    <       0.00000019 Ry

     iteration # 15     ecut=   100.00 Ry     beta=0.50
     Davidson diagonalization with overlap
     ethr =  4.06E-11,  avg # of iterations =  3.0

     total cpu time spent up to now is     4028.1 secs

     total energy              =   -2697.84686070 Ry
     Harris-Foulkes estimate   =   -2697.84686072 Ry
     estimated scf accuracy    <       0.00000007 Ry

     iteration # 16     ecut=   100.00 Ry     beta=0.50
     Davidson diagonalization with overlap
     ethr =  1.54E-11,  avg # of iterations =  2.0

     total cpu time spent up to now is     4224.5 secs

     total energy              =   -2697.84686071 Ry
     Harris-Foulkes estimate   =   -2697.84686071 Ry
     estimated scf accuracy    <       0.00000002 Ry

     iteration # 17     ecut=   100.00 Ry     beta=0.50
     Davidson diagonalization with overlap
     ethr =  3.46E-12,  avg # of iterations =  3.0

     total cpu time spent up to now is     4485.8 secs

     End of self-consistent calculation

          k = 0.0000 0.0000 0.0000 (141621 PWs)   bands (ev):

   -24.0593 -24.0446 -24.0443 -24.0386 -23.9901 -23.9877 -23.9877 -23.9849
   -23.9401 -23.9351 -23.9231 -23.9132 -23.4870 -23.4863 -23.4785 -23.4783
   -23.1916 -23.1812 -23.1499 -23.1409 -19.2533 -19.2446 -19.2439 -19.2387
   -19.2244 -19.2242 -19.2230 -19.2187 -18.8675 -18.8661 -18.8520 -18.8508
   -17.9745 -17.9668 -17.9618 -17.9566 -17.6378 -17.6313 -17.6215 -17.6145
   -17.0683 -17.0626 -17.0597 -17.0515 -16.5441 -16.5427 -16.5416 -16.5398
   -15.6226 -15.6120 -15.6119 -15.6013 -12.9282 -12.9103 -12.9045 -12.8865
   -12.1888 -12.1167 -12.1165 -12.0503 -11.6503 -11.6334 -11.6290 -11.6115
   -11.6075 -11.5888 -11.5845 -11.5239 -11.3334 -11.2928 -11.2849 -11.2391
   -10.3520 -10.3368 -10.3313 -10.3179  -8.6799  -8.6647  -8.6572  -8.6473
    -8.5839  -8.5298  -8.4968  -8.4142  -8.1560  -8.1498  -8.1343  -8.1307
    -7.4140  -7.3959  -7.3868  -7.3555  -7.1707  -7.1178  -7.1045  -7.0035
    -6.9578  -6.9226  -6.8621  -6.7926  -6.7782  -6.7437  -6.6751  -6.6664
    -6.5647  -6.5143  -6.5077  -6.4339  -6.2786  -6.2150  -6.2049  -6.1800
    -6.1770  -6.1718  -6.1308  -6.0789  -6.0075  -6.0037  -6.0010  -5.9440
    -5.8304  -5.8238  -5.8196  -5.7587  -5.6364  -5.6295  -5.6254  -5.5513
    -5.5493  -5.5185  -5.4835  -5.4576  -5.3907  -5.3668  -5.2768  -5.2583
    -4.7041  -4.6501  -4.5851  -4.5075  -4.4747  -4.3391  -4.3236  -4.2217
    -4.2062  -4.2030  -4.1654  -4.1581  -3.5696  -3.5523  -3.5090  -3.5027
    -3.3743  -3.3476  -3.3403  -3.3338  -3.3248  -3.3078  -3.2657  -3.2375
    -3.1382  -2.9658  -2.9561  -2.9543  -2.9446  -2.8283  -2.8192  -2.5778
    -2.4379  -2.4350  -2.4059  -2.3895  -2.3710  -2.2929  -2.2409  -2.2069
    -1.9222  -1.9021  -1.8751  -1.8703  -1.5158  -1.4825  -1.3605  -1.3530
    -1.2776  -1.2363  -1.2235  -1.2002  -0.8671  -0.8342  -0.8309  -0.8029
    -0.7830  -0.7660  -0.7274  -0.7255  -0.7101  -0.7049  -0.6844  -0.6624
    -0.6200  -0.6135  -0.6044  -0.5703  -0.5181  -0.4752  -0.4682  -0.4223
    -0.4147  -0.3964  -0.3957  -0.3717  -0.3445  -0.3363  -0.2732  -0.2160
    -0.1143  -0.0835  -0.0394  -0.0214   0.1746   0.2015   0.2299   0.3006
     0.3034   0.3045   0.3276   0.3598   0.3700   0.4221   0.4383   0.4448
     0.5474   0.5525   0.5829   0.6142   0.6590   0.7398   0.7780   0.7803
     2.5600   2.5834   2.7350   2.7604   4.0815   4.1009   4.1092   4.1152
     4.6076   4.6331   4.7131   4.7535   4.7797   4.7913   4.8063   4.8543
     4.8786   4.9107   4.9179   4.9446   6.9041   6.9440   6.9736   6.9870
     7.2301   7.5073   7.5688   7.7627   7.8964   7.9892   8.0129   8.0159
     8.0399   8.0693   8.0744   8.1380   8.2348   8.2664   8.2711   8.2966
     8.3017   8.4065   8.4318   8.5290   8.6469   8.7599   8.9522   9.0234

          k = 0.0000 0.0000-0.4745 (141654 PWs)   bands (ev):

   -24.0522 -24.0522 -24.0414 -24.0414 -23.9877 -23.9877 -23.9873 -23.9873
   -23.9376 -23.9376 -23.9183 -23.9183 -23.4830 -23.4830 -23.4818 -23.4818
   -23.1864 -23.1864 -23.1455 -23.1455 -19.2490 -19.2490 -19.2409 -19.2409
   -19.2248 -19.2248 -19.2207 -19.2206 -18.8668 -18.8668 -18.8514 -18.8514
   -17.9707 -17.9707 -17.9592 -17.9591 -17.6344 -17.6344 -17.6180 -17.6180
   -17.0655 -17.0655 -17.0556 -17.0556 -16.5429 -16.5429 -16.5412 -16.5412
   -15.6170 -15.6170 -15.6071 -15.6071 -12.9164 -12.9164 -12.8983 -12.8983
   -12.1542 -12.1542 -12.0846 -12.0846 -11.6383 -11.6383 -11.6322 -11.6322
   -11.5866 -11.5866 -11.5585 -11.5585 -11.3093 -11.3093 -11.2629 -11.2629
   -10.3445 -10.3445 -10.3236 -10.3236  -8.6668  -8.6668  -8.6591  -8.6591
    -8.5379  -8.5379  -8.4687  -8.4687  -8.1521  -8.1521  -8.1357  -8.1357
    -7.4139  -7.4139  -7.3159  -7.3159  -7.2137  -7.2137  -7.0528  -7.0528
    -6.9512  -6.9512  -6.7924  -6.7924  -6.7378  -6.7378  -6.6984  -6.6984
    -6.5349  -6.5348  -6.4707  -6.4707  -6.2604  -6.2604  -6.1881  -6.1881
    -6.1500  -6.1500  -6.1425  -6.1425  -6.0225  -6.0225  -5.9802  -5.9802
    -5.8226  -5.8226  -5.7831  -5.7831  -5.6363  -5.6362  -5.5742  -5.5742
    -5.5459  -5.5459  -5.4113  -5.4113  -5.3734  -5.3734  -5.3210  -5.3210
    -4.6477  -4.6477  -4.5338  -4.5338  -4.4195  -4.4195  -4.2804  -4.2803
    -4.2060  -4.2060  -4.1658  -4.1658  -3.5274  -3.5274  -3.4258  -3.4258
    -3.4017  -3.4017  -3.3798  -3.3798  -3.3070  -3.3070  -3.2561  -3.2560
    -3.0478  -3.0478  -2.9615  -2.9615  -2.9556  -2.9556  -2.7008  -2.7008
    -2.4204  -2.4204  -2.3984  -2.3984  -2.3114  -2.3114  -2.2222  -2.2222
    -1.8957  -1.8957  -1.8852  -1.8852  -1.4320  -1.4320  -1.4175  -1.4175
    -1.2359  -1.2359  -1.2224  -1.2224  -0.8342  -0.8342  -0.8037  -0.8037
    -0.7774  -0.7774  -0.7592  -0.7592  -0.7163  -0.7163  -0.6734  -0.6734
    -0.6239  -0.6239  -0.5916  -0.5916  -0.5180  -0.5180  -0.4264  -0.4264
    -0.4118  -0.4118  -0.3757  -0.3757  -0.3368  -0.3368  -0.2395  -0.2395
    -0.0932  -0.0932  -0.0251  -0.0250   0.1896   0.1896   0.2555   0.2555
     0.3165   0.3165   0.3550   0.3550   0.3630   0.3630   0.4867   0.4867
     0.5169   0.5169   0.5914   0.5914   0.6908   0.6908   0.7853   0.7853
     2.5749   2.5749   2.7473   2.7473   4.0979   4.0979   4.1063   4.1063
     4.6295   4.6295   4.7335   4.7335   4.7744   4.7745   4.8416   4.8416
     4.8866   4.8866   4.9258   4.9258   6.9052   6.9052   6.9796   6.9796
     7.4694   7.4694   7.6794   7.6794   7.9156   7.9156   7.9915   7.9915
     8.0570   8.0570   8.1249   8.1249   8.1805   8.1805   8.3679   8.3679
     8.3791   8.3791   8.4474   8.4474   8.6766   8.6766   9.0138   9.0139

          k = 0.0000-0.4805 0.0000 (141686 PWs)   bands (ev):

   -24.0517 -24.0517 -24.0413 -24.0413 -23.9886 -23.9886 -23.9859 -23.9859
   -23.9331 -23.9331 -23.9243 -23.9243 -23.4868 -23.4867 -23.4784 -23.4784
   -23.1702 -23.1702 -23.1608 -23.1608 -19.2486 -19.2486 -19.2411 -19.2411
   -19.2246 -19.2246 -19.2210 -19.2210 -18.8597 -18.8597 -18.8585 -18.8585
   -17.9682 -17.9682 -17.9617 -17.9617 -17.6297 -17.6296 -17.6230 -17.6230
   -17.0640 -17.0640 -17.0569 -17.0569 -16.5434 -16.5434 -16.5408 -16.5407
   -15.6175 -15.6175 -15.6064 -15.6064 -12.9192 -12.9192 -12.8953 -12.8953
   -12.1544 -12.1544 -12.0848 -12.0848 -11.6314 -11.6314 -11.6170 -11.6170
   -11.6113 -11.6113 -11.5543 -11.5543 -11.3112 -11.3112 -11.2617 -11.2617
   -10.3419 -10.3419 -10.3273 -10.3273  -8.6733  -8.6733  -8.6518  -8.6518
    -8.5566  -8.5566  -8.4518  -8.4518  -8.1474  -8.1474  -8.1405  -8.1405
    -7.4207  -7.4207  -7.2692  -7.2692  -7.2393  -7.2393  -7.0729  -7.0729
    -6.9214  -6.9214  -6.8090  -6.8090  -6.7747  -6.7747  -6.6610  -6.6610
    -6.5731  -6.5731  -6.5045  -6.5045  -6.2450  -6.2450  -6.2121  -6.2121
    -6.1375  -6.1375  -6.0820  -6.0820  -5.9895  -5.9895  -5.9738  -5.9738
    -5.8050  -5.8050  -5.7353  -5.7353  -5.6654  -5.6654  -5.6087  -5.6087
    -5.5540  -5.5539  -5.4315  -5.4315  -5.4230  -5.4230  -5.2738  -5.2738
    -4.6455  -4.6455  -4.5128  -4.5128  -4.4674  -4.4674  -4.2734  -4.2734
    -4.1891  -4.1891  -4.1725  -4.1725  -3.5286  -3.5286  -3.4956  -3.4956
    -3.3929  -3.3929  -3.3584  -3.3584  -3.3088  -3.3088  -3.1929  -3.1929
    -3.0936  -3.0936  -2.9479  -2.9479  -2.9157  -2.9157  -2.7187  -2.7187
    -2.4388  -2.4388  -2.3868  -2.3868  -2.2975  -2.2975  -2.2441  -2.2441
    -1.9157  -1.9157  -1.8738  -1.8738  -1.5016  -1.5016  -1.3570  -1.3570
    -1.2476  -1.2476  -1.2187  -1.2187  -0.8198  -0.8197  -0.7996  -0.7996
    -0.7672  -0.7672  -0.7520  -0.7519  -0.7057  -0.7057  -0.6925  -0.6925
    -0.6064  -0.6064  -0.5856  -0.5856  -0.4694  -0.4693  -0.4476  -0.4476
    -0.4120  -0.4120  -0.3964  -0.3964  -0.3349  -0.3349  -0.3159  -0.3159
    -0.0527  -0.0527  -0.0434  -0.0434   0.2311   0.2311   0.2860   0.2860
     0.3340   0.3340   0.3415   0.3415   0.3476   0.3476   0.4662   0.4662
     0.5100   0.5100   0.5808   0.5808   0.7175   0.7175   0.7602   0.7602
     2.6489   2.6489   2.6729   2.6730   4.0911   4.0911   4.1151   4.1151
     4.6772   4.6772   4.7101   4.7101   4.7862   4.7862   4.8062   4.8062
     4.8784   4.8784   4.9219   4.9219   6.9060   6.9060   7.0000   7.0000
     7.4619   7.4620   7.6770   7.6771   7.8973   7.8973   7.9697   7.9697
     8.0916   8.0916   8.1604   8.1604   8.2354   8.2354   8.3676   8.3676
     8.4140   8.4140   8.4452   8.4452   8.5037   8.5037   8.9166   8.9166

          k = 0.0000-0.4805-0.4745 (141552 PWs)   bands (ev):

   -24.0482 -24.0482 -24.0451 -24.0451 -23.9879 -23.9879 -23.9863 -23.9862
   -23.9296 -23.9296 -23.9283 -23.9283 -23.4827 -23.4826 -23.4823 -23.4822
   -23.1657 -23.1656 -23.1655 -23.1654 -19.2460 -19.2460 -19.2435 -19.2434
   -19.2244 -19.2244 -19.2215 -19.2215 -18.8592 -18.8592 -18.8591 -18.8591
   -17.9657 -17.9657 -17.9642 -17.9642 -17.6264 -17.6264 -17.6261 -17.6261
   -17.0610 -17.0610 -17.0600 -17.0600 -16.5421 -16.5421 -16.5420 -16.5420
   -15.6121 -15.6120 -15.6120 -15.6120 -12.9073 -12.9073 -12.9071 -12.9071
   -12.1218 -12.1218 -12.1202 -12.1202 -11.6314 -11.6314 -11.6242 -11.6242
   -11.5852 -11.5852 -11.5743 -11.5743 -11.2883 -11.2883 -11.2815 -11.2815
   -10.3351 -10.3351 -10.3333 -10.3332  -8.6653  -8.6653  -8.6629  -8.6628
    -8.5013  -8.5013  -8.5009  -8.5009  -8.1445  -8.1444  -8.1443  -8.1442
    -7.3819  -7.3819  -7.2957  -7.2957  -7.2233  -7.2233  -7.1382  -7.1382
    -6.8890  -6.8890  -6.8162  -6.8162  -6.7470  -6.7470  -6.6956  -6.6956
    -6.5433  -6.5433  -6.5115  -6.5115  -6.2491  -6.2490  -6.2189  -6.2189
    -6.1135  -6.1134  -6.0961  -6.0961  -6.0070  -6.0070  -5.9922  -5.9922
    -5.7990  -5.7990  -5.7588  -5.7588  -5.6456  -5.6456  -5.6320  -5.6319
    -5.4989  -5.4989  -5.4483  -5.4483  -5.3558  -5.3558  -5.3488  -5.3488
    -4.6020  -4.6020  -4.5304  -4.5304  -4.4196  -4.4196  -4.3302  -4.3302
    -4.1879  -4.1879  -4.1787  -4.1787  -3.4796  -3.4796  -3.4676  -3.4676
    -3.3720  -3.3720  -3.3548  -3.3548  -3.3258  -3.3258  -3.2761  -3.2761
    -3.0189  -3.0189  -2.9770  -2.9769  -2.8967  -2.8967  -2.8226  -2.8226
    -2.4161  -2.4160  -2.4025  -2.4024  -2.2601  -2.2601  -2.2524  -2.2524
    -1.8882  -1.8882  -1.8817  -1.8817  -1.4297  -1.4297  -1.4218  -1.4218
    -1.2449  -1.2448  -1.2243  -1.2243  -0.8233  -0.8233  -0.8016  -0.8016
    -0.7574  -0.7573  -0.7569  -0.7568  -0.7171  -0.7171  -0.6876  -0.6876
    -0.6156  -0.6156  -0.5945  -0.5945  -0.4749  -0.4749  -0.4412  -0.4412
    -0.4050  -0.4050  -0.3987  -0.3987  -0.3443  -0.3443  -0.3120  -0.3119
    -0.0484  -0.0484  -0.0292  -0.0292   0.2480   0.2480   0.2860   0.2860
     0.2990   0.2991   0.3402   0.3402   0.3723   0.3724   0.4495   0.4495
     0.5410   0.5410   0.5529   0.5529   0.7276   0.7276   0.7448   0.7448
     2.6560   2.6560   2.6685   2.6685   4.1023   4.1023   4.1033   4.1033
     4.6921   4.6921   4.7172   4.7172   4.7865   4.7866   4.7898   4.7898
     4.8876   4.8876   4.9029   4.9029   6.9295   6.9296   6.9684   6.9684
     7.6032   7.6032   7.6186   7.6186   7.9911   7.9911   8.0008   8.0009
     8.0472   8.0473   8.1182   8.1182   8.2632   8.2632   8.2958   8.2958
     8.3868   8.3869   8.4168   8.4168   8.7301   8.7301   8.7347   8.7347

          k =-0.5000 0.0000 0.0000 (141622 PWs)   bands (ev):

   -24.0429 -24.0429 -24.0362 -24.0362 -24.0089 -24.0089 -23.9924 -23.9924
   -23.9292 -23.9292 -23.9146 -23.9146 -23.4868 -23.4868 -23.4783 -23.4783
   -23.1870 -23.1869 -23.1449 -23.1449 -19.2489 -19.2489 -19.2386 -19.2386
   -19.2262 -19.2262 -19.2224 -19.2224 -18.8658 -18.8658 -18.8507 -18.8507
   -17.9724 -17.9724 -17.9600 -17.9600 -17.6351 -17.6351 -17.6173 -17.6173
   -17.0662 -17.0662 -17.0535 -17.0535 -16.5437 -16.5437 -16.5403 -16.5403
   -15.6194 -15.6194 -15.6044 -15.6044 -12.9221 -12.9221 -12.8926 -12.8926
   -12.1695 -12.1695 -12.0713 -12.0713 -11.6374 -11.6374 -11.6297 -11.6297
   -11.6022 -11.6022 -11.5391 -11.5391 -11.3224 -11.3224 -11.2553 -11.2553
   -10.3469 -10.3469 -10.3221 -10.3221  -8.6740  -8.6740  -8.6515  -8.6515
    -8.5489  -8.5489  -8.4374  -8.4374  -8.1531  -8.1531  -8.1329  -8.1329
    -7.4776  -7.4776  -7.2284  -7.2284  -7.2131  -7.2131  -7.0836  -7.0836
    -7.0706  -7.0706  -6.8645  -6.8645  -6.6597  -6.6597  -6.5818  -6.5818
    -6.5710  -6.5710  -6.4562  -6.4562  -6.2875  -6.2875  -6.2383  -6.2383
    -6.1334  -6.1333  -6.0593  -6.0593  -6.0294  -6.0294  -5.8905  -5.8905
    -5.7912  -5.7912  -5.7079  -5.7079  -5.6789  -5.6789  -5.6364  -5.6364
    -5.5285  -5.5285  -5.5177  -5.5177  -5.3827  -5.3827  -5.3432  -5.3432
    -4.6732  -4.6732  -4.5281  -4.5281  -4.4114  -4.4114  -4.2415  -4.2415
    -4.2086  -4.2086  -4.1625  -4.1625  -3.5571  -3.5571  -3.5011  -3.5011
    -3.3992  -3.3992  -3.3573  -3.3573  -3.3001  -3.3001  -3.1962  -3.1962
    -3.1106  -3.1106  -2.9517  -2.9516  -2.9185  -2.9185  -2.6614  -2.6614
    -2.4271  -2.4271  -2.3662  -2.3662  -2.3501  -2.3501  -2.2184  -2.2184
    -1.9114  -1.9114  -1.8741  -1.8741  -1.4945  -1.4945  -1.3494  -1.3494
    -1.2551  -1.2551  -1.2106  -1.2106  -0.8363  -0.8363  -0.8205  -0.8204
    -0.7674  -0.7674  -0.7174  -0.7174  -0.6927  -0.6927  -0.6687  -0.6687
    -0.6509  -0.6509  -0.5823  -0.5823  -0.5017  -0.5017  -0.4368  -0.4368
    -0.4159  -0.4159  -0.3830  -0.3830  -0.3599  -0.3599  -0.2642  -0.2642
    -0.1086  -0.1086  -0.0311  -0.0311   0.2046   0.2046   0.2527   0.2527
     0.2701   0.2702   0.3777   0.3777   0.4026   0.4026   0.4432   0.4432
     0.5420   0.5420   0.5969   0.5969   0.6981   0.6981   0.7944   0.7944
     2.5691   2.5691   2.7491   2.7491   4.0905   4.0906   4.1143   4.1144
     4.6209   4.6209   4.7356   4.7357   4.7986   4.7986   4.8397   4.8397
     4.8675   4.8675   4.9284   4.9284   6.9206   6.9206   6.9839   6.9839
     7.3057   7.3057   7.7171   7.7171   7.9483   7.9483   8.0020   8.0020
     8.0695   8.0695   8.1242   8.1242   8.2207   8.2207   8.2303   8.2303
     8.4912   8.4912   8.5603   8.5603   8.7066   8.7066   9.0111   9.0111

          k =-0.5000 0.0000-0.4745 (141608 PWs)   bands (ev):

   -24.0421 -24.0421 -24.0363 -24.0363 -24.0093 -24.0093 -23.9927 -23.9927
   -23.9289 -23.9289 -23.9151 -23.9151 -23.4830 -23.4830 -23.4819 -23.4819
   -23.1864 -23.1864 -23.1455 -23.1455 -19.2473 -19.2473 -19.2400 -19.2400
   -19.2256 -19.2256 -19.2233 -19.2233 -18.8657 -18.8657 -18.8507 -18.8507
   -17.9715 -17.9715 -17.9609 -17.9609 -17.6342 -17.6342 -17.6181 -17.6181
   -17.0652 -17.0652 -17.0545 -17.0545 -16.5429 -16.5429 -16.5410 -16.5410
   -15.6170 -15.6169 -15.6070 -15.6070 -12.9163 -12.9163 -12.8983 -12.8983
   -12.1568 -12.1568 -12.0868 -12.0868 -11.6365 -11.6365 -11.6349 -11.6349
   -11.5833 -11.5833 -11.5549 -11.5549 -11.3102 -11.3102 -11.2644 -11.2644
   -10.3446 -10.3446 -10.3236 -10.3236  -8.6673  -8.6673  -8.6590  -8.6590
    -8.5231  -8.5231  -8.4575  -8.4575  -8.1521  -8.1521  -8.1360  -8.1360
    -7.4569  -7.4569  -7.2491  -7.2491  -7.1889  -7.1889  -7.1775  -7.1775
    -6.9708  -6.9708  -6.9127  -6.9127  -6.6225  -6.6225  -6.6023  -6.6023
    -6.5613  -6.5613  -6.4678  -6.4678  -6.2890  -6.2890  -6.2496  -6.2496
    -6.1360  -6.1360  -6.0581  -6.0581  -5.9946  -5.9946  -5.9523  -5.9523
    -5.7915  -5.7915  -5.6904  -5.6904  -5.6766  -5.6766  -5.6140  -5.6140
    -5.5166  -5.5166  -5.4885  -5.4885  -5.3990  -5.3989  -5.3970  -5.3970
    -4.6425  -4.6425  -4.5038  -4.5038  -4.4003  -4.4003  -4.2789  -4.2789
    -4.2090  -4.2089  -4.1706  -4.1706  -3.5125  -3.5125  -3.4532  -3.4532
    -3.3995  -3.3995  -3.3478  -3.3478  -3.3115  -3.3115  -3.2874  -3.2874
    -3.0566  -3.0566  -2.9839  -2.9839  -2.9210  -2.9210  -2.7143  -2.7143
    -2.4023  -2.4023  -2.3901  -2.3901  -2.3036  -2.3036  -2.2268  -2.2268
    -1.8916  -1.8916  -1.8910  -1.8910  -1.4233  -1.4233  -1.4158  -1.4158
    -1.2304  -1.2304  -1.2250  -1.2250  -0.8346  -0.8346  -0.8016  -0.8016
    -0.7965  -0.7965  -0.7231  -0.7231  -0.6959  -0.6959  -0.6765  -0.6765
    -0.6193  -0.6193  -0.6176  -0.6176  -0.5126  -0.5126  -0.4394  -0.4394
    -0.4102  -0.4102  -0.3762  -0.3762  -0.3514  -0.3514  -0.2620  -0.2620
    -0.0928  -0.0928  -0.0336  -0.0336   0.2070   0.2070   0.2390   0.2390
     0.2814   0.2814   0.3616   0.3616   0.4339   0.4339   0.4465   0.4465
     0.5232   0.5232   0.5899   0.5899   0.6901   0.6901   0.7931   0.7931
     2.5723   2.5723   2.7489   2.7489   4.1012   4.1012   4.1040   4.1040
     4.6326   4.6326   4.7536   4.7536   4.7616   4.7616   4.8572   4.8572
     4.8677   4.8677   4.9147   4.9147   6.9009   6.9010   6.9832   6.9832
     7.4663   7.4663   7.6671   7.6671   7.9152   7.9152   8.0180   8.0180
     8.0324   8.0324   8.1393   8.1393   8.1823   8.1823   8.2523   8.2523
     8.5174   8.5174   8.6072   8.6072   8.7489   8.7489   8.9018   8.9018

          k =-0.5000-0.4805 0.0000 (141600 PWs)   bands (ev):

   -24.0402 -24.0402 -24.0390 -24.0390 -24.0035 -24.0035 -23.9965 -23.9965
   -23.9257 -23.9257 -23.9200 -23.9200 -23.4869 -23.4869 -23.4783 -23.4783
   -23.1702 -23.1702 -23.1608 -23.1608 -19.2469 -19.2469 -19.2401 -19.2401
   -19.2255 -19.2255 -19.2236 -19.2236 -18.8589 -18.8589 -18.8576 -18.8576
   -17.9694 -17.9694 -17.9630 -17.9630 -17.6296 -17.6296 -17.6229 -17.6229
   -17.0633 -17.0633 -17.0563 -17.0563 -16.5434 -16.5434 -16.5406 -16.5406
   -15.6174 -15.6174 -15.6064 -15.6064 -12.9191 -12.9191 -12.8954 -12.8954
   -12.1563 -12.1563 -12.0878 -12.0878 -11.6379 -11.6379 -11.6152 -11.6152
   -11.6019 -11.6019 -11.5534 -11.5534 -11.3112 -11.3111 -11.2637 -11.2637
   -10.3422 -10.3422 -10.3271 -10.3270  -8.6731  -8.6731  -8.6534  -8.6534
    -8.5390  -8.5390  -8.4431  -8.4431  -8.1478  -8.1478  -8.1404  -8.1404
    -7.4379  -7.4379  -7.2736  -7.2736  -7.2020  -7.2020  -7.1594  -7.1594
    -6.9465  -6.9465  -6.9241  -6.9241  -6.6474  -6.6474  -6.6138  -6.6138
    -6.5626  -6.5626  -6.5031  -6.5031  -6.2411  -6.2411  -6.2367  -6.2367
    -6.1394  -6.1394  -6.0700  -6.0700  -5.9965  -5.9965  -5.9250  -5.9250
    -5.7108  -5.7108  -5.6977  -5.6976  -5.6543  -5.6542  -5.6196  -5.6196
    -5.5619  -5.5619  -5.5531  -5.5531  -5.4203  -5.4203  -5.3526  -5.3525
    -4.6239  -4.6239  -4.5397  -4.5397  -4.4077  -4.4077  -4.2732  -4.2732
    -4.1941  -4.1941  -4.1743  -4.1743  -3.5184  -3.5184  -3.5160  -3.5160
    -3.3630  -3.3630  -3.3477  -3.3477  -3.3445  -3.3445  -3.2070  -3.2070
    -3.0777  -3.0777  -2.9719  -2.9719  -2.9126  -2.9126  -2.7180  -2.7180
    -2.4264  -2.4264  -2.3705  -2.3705  -2.3067  -2.3067  -2.2395  -2.2395
    -1.9153  -1.9153  -1.8749  -1.8749  -1.4954  -1.4953  -1.3519  -1.3519
    -1.2407  -1.2407  -1.2202  -1.2202  -0.8277  -0.8277  -0.7799  -0.7799
    -0.7541  -0.7541  -0.7267  -0.7267  -0.7019  -0.7019  -0.6683  -0.6683
    -0.6497  -0.6497  -0.5874  -0.5874  -0.4922  -0.4922  -0.4728  -0.4728
    -0.4064  -0.4063  -0.4009  -0.4009  -0.3432  -0.3432  -0.3282  -0.3281
    -0.0451  -0.0451  -0.0438  -0.0438   0.2424   0.2424   0.2491   0.2491
     0.2993   0.2994   0.3293   0.3293   0.4390   0.4391   0.4527   0.4527
     0.5188   0.5188   0.5583   0.5583   0.7294   0.7294   0.7600   0.7600
     2.6506   2.6506   2.6710   2.6710   4.0931   4.0931   4.1137   4.1137
     4.6856   4.6856   4.7163   4.7163   4.7858   4.7858   4.8231   4.8231
     4.8583   4.8583   4.9067   4.9067   6.9161   6.9161   6.9920   6.9920
     7.4676   7.4676   7.6504   7.6504   7.9123   7.9123   7.9861   7.9861
     8.0881   8.0881   8.1464   8.1464   8.2174   8.2174   8.2495   8.2495
     8.5315   8.5315   8.5861   8.5861   8.6988   8.6988   8.7383   8.7383

          k =-0.5000-0.4805-0.4745 (141696 PWs)   bands (ev):

   -24.0395 -24.0395 -24.0395 -24.0395 -24.0001 -24.0001 -24.0001 -24.0001
   -23.9230 -23.9230 -23.9230 -23.9230 -23.4825 -23.4825 -23.4825 -23.4825
   -23.1656 -23.1656 -23.1655 -23.1655 -19.2433 -19.2433 -19.2433 -19.2433
   -19.2248 -19.2248 -19.2248 -19.2247 -18.8582 -18.8582 -18.8582 -18.8582
   -17.9662 -17.9662 -17.9662 -17.9662 -17.6262 -17.6262 -17.6262 -17.6262
   -17.0598 -17.0598 -17.0598 -17.0598 -16.5420 -16.5420 -16.5420 -16.5420
   -15.6120 -15.6120 -15.6119 -15.6119 -12.9072 -12.9072 -12.9072 -12.9072
   -12.1234 -12.1234 -12.1234 -12.1234 -11.6288 -11.6288 -11.6288 -11.6288
   -11.5759 -11.5759 -11.5759 -11.5759 -11.2860 -11.2860 -11.2860 -11.2860
   -10.3342 -10.3342 -10.3342 -10.3342  -8.6643  -8.6643  -8.6643  -8.6643
    -8.4883  -8.4883  -8.4883  -8.4883  -8.1444  -8.1444  -8.1444  -8.1444
    -7.3633  -7.3633  -7.3633  -7.3633  -7.1709  -7.1709  -7.1709  -7.1709
    -6.9494  -6.9494  -6.9494  -6.9494  -6.6218  -6.6218  -6.6218  -6.6218
    -6.5353  -6.5353  -6.5353  -6.5353  -6.2309  -6.2309  -6.2309  -6.2308
    -6.1035  -6.1035  -6.1035  -6.1035  -5.9846  -5.9846  -5.9846  -5.9846
    -5.6940  -5.6940  -5.6940  -5.6940  -5.6348  -5.6348  -5.6348  -5.6347
    -5.5358  -5.5358  -5.5358  -5.5358  -5.4154  -5.4154  -5.4154  -5.4154
    -4.5554  -4.5554  -4.5554  -4.5554  -4.3548  -4.3548  -4.3548  -4.3548
    -4.1878  -4.1878  -4.1878  -4.1878  -3.4759  -3.4759  -3.4759  -3.4759
    -3.3561  -3.3561  -3.3561  -3.3561  -3.3098  -3.3098  -3.3098  -3.3098
    -3.0084  -3.0083  -3.0083  -3.0083  -2.8566  -2.8566  -2.8566  -2.8566
    -2.3986  -2.3986  -2.3986  -2.3986  -2.2533  -2.2533  -2.2533  -2.2533
    -1.8862  -1.8862  -1.8862  -1.8862  -1.4204  -1.4203  -1.4203  -1.4203
    -1.2324  -1.2324  -1.2324  -1.2324  -0.8132  -0.8132  -0.8132  -0.8132
    -0.7459  -0.7459  -0.7459  -0.7459  -0.6823  -0.6823  -0.6823  -0.6823
    -0.6188  -0.6188  -0.6188  -0.6188  -0.4841  -0.4841  -0.4841  -0.4841
    -0.4020  -0.4020  -0.4019  -0.4019  -0.3353  -0.3353  -0.3353  -0.3353
    -0.0362  -0.0361  -0.0361  -0.0361   0.2461   0.2461   0.2461   0.2461
     0.3191   0.3191   0.3191   0.3191   0.4387   0.4387   0.4387   0.4387
     0.5391   0.5391   0.5392   0.5392   0.7395   0.7395   0.7395   0.7395
     2.6622   2.6622   2.6622   2.6623   4.1029   4.1029   4.1029   4.1029
     4.7121   4.7121   4.7121   4.7121   4.7924   4.7924   4.7925   4.7925
     4.8815   4.8815   4.8815   4.8815   6.9508   6.9509   6.9509   6.9509
     7.6071   7.6071   7.6071   7.6071   8.0049   8.0049   8.0049   8.0049
     8.0873   8.0873   8.0873   8.0873   8.2074   8.2074   8.2074   8.2074
     8.5416   8.5416   8.5416   8.5416   8.7433   8.7433   8.7433   8.7433

     highest occupied, lowest unoccupied level (ev):     0.7944    2.5600

!    total energy              =   -2697.84686071 Ry
     Harris-Foulkes estimate   =   -2697.84686071 Ry
     estimated scf accuracy    <          5.3E-09 Ry

     total all-electron energy =    -10152.793783 Ry

     The total energy is the sum of the following terms:

     one-electron contribution =   -1539.86720532 Ry
     hartree contribution      =     961.77781978 Ry
     xc contribution           =    -527.28829290 Ry
     ewald contribution        =    -860.98780409 Ry
     Dispersion Correction     =      -0.55237847 Ry
     one-center paw contrib.   =    -730.92899971 Ry

     convergence has been achieved in  17 iterations

     Forces acting on atoms (cartesian axes, Ry/au):

     atom    1 type  4   force =     0.00023219   -0.00024681    0.00011309
     atom    2 type  4   force =    -0.00023095    0.00024323    0.00011641
     atom    3 type  4   force =     0.00023386    0.00024953   -0.00011298
     atom    4 type  4   force =    -0.00023090   -0.00024550   -0.00011615
     atom    5 type  1   force =    -0.00052277    0.00036862   -0.00029460
     atom    6 type  1   force =     0.00054351   -0.00036881   -0.00030432
     atom    7 type  1   force =    -0.00054320   -0.00036159    0.00029458
     atom    8 type  1   force =     0.00052347    0.00036172    0.00030415
     atom    9 type  3   force =    -0.00061822    0.00000383    0.00022806
     atom   10 type  3   force =     0.00061833   -0.00000403    0.00022820
     atom   11 type  3   force =    -0.00061792   -0.00000343   -0.00022896
     atom   12 type  3   force =     0.00061852    0.00000338   -0.00022916
     atom   13 type  3   force =     0.00052513   -0.00003163    0.00003851
     atom   14 type  3   force =    -0.00052403    0.00003123    0.00003866
     atom   15 type  3   force =     0.00052427    0.00003132   -0.00003900
     atom   16 type  3   force =    -0.00052470   -0.00003173   -0.00003901
     atom   17 type  3   force =     0.00002569    0.00027934   -0.00101147
     atom   18 type  3   force =    -0.00002550   -0.00027939   -0.00101166
     atom   19 type  3   force =     0.00002559   -0.00027934    0.00101090
     atom   20 type  3   force =    -0.00002553    0.00027936    0.00101135
     atom   21 type  2   force =    -0.00003292   -0.00014249   -0.00010812
     atom   22 type  2   force =     0.00003388    0.00014447   -0.00010877
     atom   23 type  2   force =    -0.00003366    0.00014167    0.00010727
     atom   24 type  2   force =     0.00003389   -0.00014452    0.00010836
     atom   25 type  4   force =    -0.00036892    0.00041190    0.00043706
     atom   26 type  4   force =     0.00037087   -0.00041204    0.00044057
     atom   27 type  4   force =    -0.00037194   -0.00040974   -0.00043666
     atom   28 type  4   force =     0.00036764    0.00041147   -0.00044207
     atom   29 type  1   force =    -0.00009086    0.00035418   -0.00003474
     atom   30 type  1   force =     0.00010190   -0.00035458   -0.00005772
     atom   31 type  1   force =    -0.00010155   -0.00036214    0.00003375
     atom   32 type  1   force =     0.00009208    0.00036187    0.00005721
     atom   33 type  3   force =    -0.00026421    0.00015373   -0.00009223
     atom   34 type  3   force =     0.00026440   -0.00015394   -0.00009237
     atom   35 type  3   force =    -0.00026409   -0.00015388    0.00009205
     atom   36 type  3   force =     0.00026450    0.00015383    0.00009162
     atom   37 type  3   force =    -0.00004818   -0.00029201    0.00075825
     atom   38 type  3   force =     0.00004863    0.00029202    0.00075861
     atom   39 type  3   force =    -0.00004830    0.00029217   -0.00075888
     atom   40 type  3   force =     0.00004854   -0.00029208   -0.00075918
     atom   41 type  2   force =    -0.00040801   -0.00032660   -0.00044526
     atom   42 type  2   force =     0.00040787    0.00032721   -0.00044497
     atom   43 type  2   force =    -0.00040712    0.00032618    0.00044487
     atom   44 type  2   force =     0.00040765   -0.00032668    0.00044445
     atom   45 type  2   force =     0.00025732   -0.00002830   -0.00008807
     atom   46 type  2   force =    -0.00025857    0.00002807   -0.00008946
     atom   47 type  2   force =     0.00025659    0.00002778    0.00008792
     atom   48 type  2   force =    -0.00025830   -0.00002774    0.00008920
     atom   49 type  4   force =     0.00010918    0.00009958    0.00095303
     atom   50 type  4   force =    -0.00011890   -0.00009744    0.00094332
     atom   51 type  4   force =     0.00011614   -0.00009473   -0.00094965
     atom   52 type  4   force =    -0.00011347    0.00009275   -0.00094288
     atom   53 type  1   force =    -0.00071516   -0.00003149    0.00048968
     atom   54 type  1   force =     0.00070271    0.00003155    0.00049846
     atom   55 type  1   force =    -0.00070197    0.00003411   -0.00049047
     atom   56 type  1   force =     0.00071562   -0.00003390   -0.00049881
     atom   57 type  3   force =     0.00063158    0.00003320   -0.00079396
     atom   58 type  3   force =    -0.00063097   -0.00003323   -0.00079418
     atom   59 type  3   force =     0.00063121   -0.00003329    0.00079363
     atom   60 type  3   force =    -0.00063139    0.00003313    0.00079369
     atom   61 type  3   force =    -0.00066720   -0.00022555    0.00061002
     atom   62 type  3   force =     0.00066637    0.00022537    0.00060951
     atom   63 type  3   force =    -0.00066586    0.00022522   -0.00060999
     atom   64 type  3   force =     0.00066780   -0.00022541   -0.00061044
     atom   65 type  3   force =     0.00030057   -0.00018214   -0.00020069
     atom   66 type  3   force =    -0.00030070    0.00018216   -0.00020094
     atom   67 type  3   force =     0.00030062    0.00018221    0.00020022
     atom   68 type  3   force =    -0.00030013   -0.00018236    0.00020045
     atom   69 type  2   force =    -0.00002359   -0.00011650    0.00045523
     atom   70 type  2   force =     0.00002630    0.00011669    0.00045811
     atom   71 type  2   force =    -0.00002322    0.00011531   -0.00045842
     atom   72 type  2   force =     0.00002564   -0.00011615   -0.00045951
     atom   73 type  4   force =     0.00061249   -0.00012003    0.00067374
     atom   74 type  4   force =    -0.00061232    0.00011972    0.00067633
     atom   75 type  4   force =     0.00060965    0.00012527   -0.00067259
     atom   76 type  4   force =    -0.00061283   -0.00012357   -0.00067390
     atom   77 type  2   force =     0.00013071    0.00012304    0.00021625
     atom   78 type  2   force =    -0.00013107   -0.00012115    0.00021303
     atom   79 type  2   force =     0.00013090   -0.00011563   -0.00021702
     atom   80 type  2   force =    -0.00013107    0.00011113   -0.00021144
     atom   81 type  4   force =    -0.00054809   -0.00017417   -0.00000554
     atom   82 type  4   force =     0.00054534    0.00017092    0.00000143
     atom   83 type  4   force =    -0.00054669    0.00016584   -0.00000159
     atom   84 type  4   force =     0.00054755   -0.00015627   -0.00000995
     atom   85 type  2   force =     0.00077297   -0.00056451    0.00005089
     atom   86 type  2   force =    -0.00077302    0.00056562    0.00005340
     atom   87 type  2   force =     0.00077280    0.00056101   -0.00004440
     atom   88 type  2   force =    -0.00077277   -0.00056096   -0.00004649
     atom   89 type  4   force =    -0.00075329    0.00018843   -0.00037320
     atom   90 type  4   force =     0.00075330   -0.00017802   -0.00036567
     atom   91 type  4   force =    -0.00075317   -0.00019870    0.00038087
     atom   92 type  4   force =     0.00075361    0.00018411    0.00037081
     atom   93 type  2   force =     0.00052888   -0.00027854    0.00002037
     atom   94 type  2   force =    -0.00052824    0.00027315    0.00001473
     atom   95 type  2   force =     0.00052901    0.00028196   -0.00002436
     atom   96 type  2   force =    -0.00052876   -0.00027634   -0.00001682
     atom   97 type  2   force =    -0.00005298   -0.00030601   -0.00008219
     atom   98 type  2   force =     0.00005329    0.00029855   -0.00007602
     atom   99 type  2   force =    -0.00005325    0.00030385    0.00008335
     atom  100 type  2   force =     0.00005312   -0.00029667    0.00007493
     atom  101 type  1   force =    -0.00007030    0.00024276    0.00065230
     atom  102 type  1   force =     0.00005970   -0.00024365    0.00063276
     atom  103 type  1   force =    -0.00005961   -0.00022499   -0.00065214
     atom  104 type  1   force =     0.00006951    0.00022678   -0.00063204
     atom  105 type  2   force =    -0.00096613   -0.00023460    0.00010356
     atom  106 type  2   force =     0.00096629    0.00022672    0.00010472
     atom  107 type  2   force =    -0.00096611    0.00023777   -0.00010129
     atom  108 type  2   force =     0.00096629   -0.00022755   -0.00010415
     atom  109 type  4   force =    -0.00016981   -0.00059621    0.00003124
     atom  110 type  4   force =     0.00016782    0.00060256    0.00003447
     atom  111 type  4   force =    -0.00016839    0.00059226   -0.00002737
     atom  112 type  4   force =     0.00016938   -0.00060088   -0.00003360
     atom  113 type  2   force =     0.00001357   -0.00021809    0.00008303
     atom  114 type  2   force =    -0.00001402    0.00022057    0.00008071
     atom  115 type  2   force =     0.00001346    0.00021612   -0.00008332
     atom  116 type  2   force =    -0.00001355   -0.00021863   -0.00008184
     atom  117 type  1   force =    -0.00067127    0.00016496    0.00039074
     atom  118 type  1   force =     0.00066823   -0.00016456    0.00038556
     atom  119 type  1   force =    -0.00066896   -0.00015390   -0.00039033
     atom  120 type  1   force =     0.00067067    0.00015234   -0.00038669

     Total force =     0.007559     Total SCF correction =     0.000183


     Computing stress (Cartesian axis) and pressure

          total   stress  (Ry/bohr**3)                   (kbar)     P=   -0.19
   0.00000590   0.00000000  -0.00000000          0.87      0.00     -0.00
   0.00000000  -0.00000572  -0.00000000          0.00     -0.84     -0.00
  -0.00000000  -0.00000000  -0.00000403         -0.00     -0.00     -0.59


     Writing output data file scf.save
 
     init_run     :    105.22s CPU    108.14s WALL (       1 calls)
     electrons    :   4247.75s CPU   4377.07s WALL (       1 calls)
     forces       :     53.41s CPU     53.75s WALL (       1 calls)
     stress       :    285.01s CPU    285.76s WALL (       1 calls)

     Called by init_run:
     wfcinit      :     97.59s CPU    100.35s WALL (       1 calls)
     potinit      :      2.69s CPU      2.71s WALL (       1 calls)

     Called by electrons:
     c_bands      :   3835.79s CPU   3945.64s WALL (      17 calls)
     sum_band     :    392.99s CPU    410.08s WALL (      17 calls)
     v_of_rho     :      2.95s CPU      3.21s WALL (      18 calls)
     newd         :      6.95s CPU      8.85s WALL (      18 calls)
     PAW_pot      :      8.40s CPU      8.41s WALL (      18 calls)
     mix_rho      :      0.74s CPU      0.83s WALL (      17 calls)

     Called by c_bands:
     init_us_2    :     15.40s CPU     15.52s WALL (     296 calls)
     cegterg      :   3768.67s CPU   3878.46s WALL (     136 calls)

     Called by sum_band:
     sum_band:bec :      0.24s CPU      0.24s WALL (     136 calls)
     addusdens    :      7.31s CPU      9.08s WALL (      17 calls)

     Called by *egterg:
     h_psi        :   1919.58s CPU   2002.96s WALL (     672 calls)
     s_psi        :    491.45s CPU    491.49s WALL (     672 calls)
     g_psi        :      7.13s CPU      7.14s WALL (     528 calls)
     cdiaghg      :    239.02s CPU    239.03s WALL (     664 calls)

     Called by h_psi:
     h_psi:pot    :   1908.31s CPU   1991.52s WALL (     672 calls)
     h_psi:calbec :    490.61s CPU    491.23s WALL (     672 calls)
     vloc_psi     :    926.26s CPU   1008.82s WALL (     672 calls)
     add_vuspsi   :    491.44s CPU    491.46s WALL (     672 calls)

     General routines
     calbec       :    731.18s CPU    732.12s WALL (     848 calls)
     fft          :      2.25s CPU      2.68s WALL (     258 calls)
     fftw         :   1003.21s CPU   1100.52s WALL (  244320 calls)
 
     Parallel routines
     fft_scatter  :    176.20s CPU    269.52s WALL (  244578 calls)
 
     PWSCF        :     1h18m CPU        1h22m WALL

 
   This run was terminated on:  21:10:43   7Dec2017            

=------------------------------------------------------------------------------=
   JOB DONE.
=------------------------------------------------------------------------------=
