
     Program PWSCF v.6.1 (svn rev. 13369) starts on  4Nov2017 at  5:54:33 

     This program is part of the open-source Quantum ESPRESSO suite
     for quantum simulation of materials; please cite
         "P. Giannozzi et al., J. Phys.:Condens. Matter 21 395502 (2009);
          URL http://www.quantum-espresso.org", 
     in publications or presentations arising from this work. More details at
     http://www.quantum-espresso.org/quote

     Parallel version (MPI), running on     8 processors
     R & G space division:  proc/nbgrp/npool/nimage =       8
     Waiting for input...
     Reading input from standard input

     Current dimensions of program PWSCF are:
     Max number of different atomic species (ntypx) = 10
     Max number of k-points (npk) =  40000
     Max angular momentum in pseudopotentials (lmaxx) =  3
               file C.pbe-n-kjpaw_psl.0.1.UPF: wavefunction(s)  2P renormalized
               file N.pbe-n-kjpaw_psl.0.1.UPF: wavefunction(s)  2P renormalized
               file H.pbe-kjpaw_psl.0.1.UPF: wavefunction(s)  1S renormalized
               file O.pbe-n-kjpaw_psl.0.1.UPF: wavefunction(s)  2P renormalized

     -------------------------------------
     Parameters for Dispersion Correction:
     -------------------------------------
       atom      VdW radius       C_6     

        C          2.744         60.710
        N          2.640         42.670
        H          1.892          4.857
        O          2.536         24.284

     Subspace diagonalization in iterative solution of the eigenvalue problem:
     a serial algorithm will be used

 
     Parallelization info
     --------------------
     sticks:   dense  smooth     PW     G-vecs:    dense   smooth      PW
     Min         748     748    201               172517   172517   23993
     Max         749     749    202               172522   172522   24004
     Sum        5991    5991   1615              1380151  1380151  192017
 


     bravais-lattice index     =            0
     lattice parameter (alat)  =       7.4735  a.u.
     unit-cell volume          =   10215.8219 (a.u.)^3
     number of atoms/cell      =          160
     number of atomic types    =            4
     number of electrons       =       464.00
     number of Kohn-Sham states=          278
     kinetic-energy cutoff     =     100.0000  Ry
     charge density cutoff     =     400.0000  Ry
     convergence threshold     =      1.0E-08
     mixing beta               =       0.5000
     number of iterations used =            8  plain     mixing
     Exchange-correlation      =  SLA  PW   PBX  PBC ( 1  4  3  4 0 0)

     celldm(1)=   7.473489  celldm(2)=   0.000000  celldm(3)=   0.000000
     celldm(4)=   0.000000  celldm(5)=   0.000000  celldm(6)=   0.000000

     crystal axes: (cart. coord. in units of alat)
               a(1) = (   1.000000   0.000000   0.000000 )  
               a(2) = (   0.000000   3.366795   0.000000 )  
               a(3) = (  -0.480653   0.000000   7.269198 )  

     reciprocal axes: (cart. coord. in units 2 pi/alat)
               b(1) = (  1.000000  0.000000  0.066122 )  
               b(2) = (  0.000000  0.297018  0.000000 )  
               b(3) = (  0.000000  0.000000  0.137567 )  


     PseudoPot. # 1 for  C read from file:
     /scratch/ahofstet/pseudo/C.pbe-n-kjpaw_psl.0.1.UPF
     MD5 check sum: 430fe95172b1e11ef3f8ed03bac87931
     Pseudo is Projector augmented-wave + core cor, Zval =  4.0
     Generated using "atomic" code by A. Dal Corso  v.5.0.99 svn rev. 10869
     Shape of augmentation charge: BESSEL
     Using radial grid of 1073 points,  4 beta functions with: 
                l(1) =   0
                l(2) =   0
                l(3) =   1
                l(4) =   1
     Q(r) pseudized with 0 coefficients 


     PseudoPot. # 2 for  N read from file:
     /scratch/ahofstet/pseudo/N.pbe-n-kjpaw_psl.0.1.UPF
     MD5 check sum: f73187c8b701007e77325f868c9291d7
     Pseudo is Projector augmented-wave + core cor, Zval =  5.0
     Generated using "atomic" code by A. Dal Corso  v.5.0.99 svn rev. 10869
     Shape of augmentation charge: PSQ
     Using radial grid of 1085 points,  4 beta functions with: 
                l(1) =   0
                l(2) =   0
                l(3) =   1
                l(4) =   1
     Q(r) pseudized with 0 coefficients 


     PseudoPot. # 3 for  H read from file:
     /scratch/ahofstet/pseudo/H.pbe-kjpaw_psl.0.1.UPF
     MD5 check sum: 94e484f906d9e9773b2f6e52662335b2
     Pseudo is Projector augmented-wave, Zval =  1.0
     Generated using "atomic" code by A. Dal Corso  v.5.0.99 svn rev. 10869
     Shape of augmentation charge: PSQ
     Using radial grid of  929 points,  2 beta functions with: 
                l(1) =   0
                l(2) =   0
     Q(r) pseudized with 0 coefficients 


     PseudoPot. # 4 for  O read from file:
     /scratch/ahofstet/pseudo/O.pbe-n-kjpaw_psl.0.1.UPF
     MD5 check sum: 3f94a2996a3169367d6eb21d9b593f20
     Pseudo is Projector augmented-wave + core cor, Zval =  6.0
     Generated using "atomic" code by A. Dal Corso  v.5.0.99 svn rev. 10869
     Shape of augmentation charge: BESSEL
     Using radial grid of 1095 points,  4 beta functions with: 
                l(1) =   0
                l(2) =   0
                l(3) =   1
                l(4) =   1
     Q(r) pseudized with 0 coefficients 


     atomic species   valence    mass     pseudopotential
        C              4.00    12.01070      C( 1.00)
        N              5.00    14.00670      N( 1.00)
        H              1.00     1.00794      H( 1.00)
        O              6.00    15.99940      O( 1.00)

      2 Sym. Ops., with inversion, found



   Cartesian axes

     site n.     atom                  positions (alat units)
         1           N   tau(   1) = (   0.6335918   2.7269512   1.1358129  )
         2           N   tau(   2) = (   0.6263454   1.0453028   2.4991519  )
         3           N   tau(   3) = (  -0.1142451   0.6398436   6.1333849  )
         4           N   tau(   4) = (  -0.1069987   2.3214920   4.7700458  )
         5           N   tau(   5) = (   0.6567595   2.8045194   2.3546672  )
         6           N   tau(   6) = (   0.6034748   1.1244813   1.2805160  )
         7           N   tau(   7) = (  -0.1374128   0.5622753   4.9145306  )
         8           N   tau(   8) = (  -0.0841280   2.2423135   5.9886818  )
         9           N   tau(   9) = (   0.0587434   3.1793275   2.3371898  )
        10           N   tau(  10) = (   0.2014006   1.4992782   1.2983555  )
        11           N   tau(  11) = (   0.4606033   0.1874673   4.9320080  )
        12           N   tau(  12) = (   0.3179461   1.8675166   5.9708423  )
        13           N   tau(  13) = (   0.1796700   3.2740080   1.1286592  )
        14           N   tau(  14) = (   0.0803689   1.5923647   2.5070714  )
        15           N   tau(  15) = (   0.3396767   0.0927868   6.1405385  )
        16           N   tau(  16) = (   0.4389778   1.7744301   4.7621264  )
        17           C   tau(  17) = (   0.2235524   3.0637552   0.8331905  )
        18           C   tau(  18) = (   0.0360305   1.3820651   2.8024466  )
        19           C   tau(  19) = (   0.2957943   0.3030395   6.4360073  )
        20           C   tau(  20) = (   0.4833162   1.9847297   4.4667512  )
        21           C   tau(  21) = (   0.0319940   3.1048111   0.5420340  )
        22           C   tau(  22) = (   0.2274393   1.4228056   3.0938010  )
        23           C   tau(  23) = (   0.4873527   0.2619836   6.7271637  )
        24           C   tau(  24) = (   0.2919074   1.9439892   4.1753968  )
        25           H   tau(  25) = (  -0.1768241  -0.0843441   0.5398919  )
        26           H   tau(  26) = (   0.4361112   1.6006928   3.0963720  )
        27           H   tau(  27) = (   0.6961708   3.4511389   6.7293059  )
        28           H   tau(  28) = (   0.0832355   1.7661020   4.1728258  )
        29           C   tau(  29) = (   0.1415772   2.9702709   0.2335728  )
        30           C   tau(  30) = (   0.1171707   1.2886330   3.4021584  )
        31           C   tau(  31) = (   0.3777695   0.3965239   7.0356250  )
        32           C   tau(  32) = (   0.4021760   2.0781618   3.8670393  )
        33           H   tau(  33) = (  -0.0203958   2.9935443   0.0145097  )
        34           H   tau(  34) = (   0.2786220   1.3120144   3.6216132  )
        35           H   tau(  35) = (   0.5397425   0.3732505   7.2546881  )
        36           H   tau(  36) = (   0.2407247   2.0547804   3.6475846  )
        37           C   tau(  37) = (   0.4204244   2.7722823   0.2191736  )
        38           C   tau(  38) = (  -0.1618891   1.0909679   3.4161360  )
        39           C   tau(  39) = (   0.0989223   0.5945125   7.0500242  )
        40           C   tau(  40) = (   0.6812358   2.2758269   3.8530618  )
        41           H   tau(  41) = (   0.4999973   2.6614704  -0.0191418  )
        42           H   tau(  42) = (   0.7579465   0.9805374   3.6544488  )
        43           H   tau(  43) = (   0.0193494   0.7053244   7.2883396  )
        44           H   tau(  44) = (  -0.2385998   2.3862574   3.6147490  )
        45           C   tau(  45) = (   0.6032127   2.7115313   0.5166132  )
        46           C   tau(  46) = (   0.6557762   1.0301932   3.1184621  )
        47           C   tau(  47) = (  -0.0838660   0.6552635   6.7525846  )
        48           C   tau(  48) = (  -0.1364295   2.3366016   4.1507357  )
        49           H   tau(  49) = (   0.8060140   2.5279758   0.5085105  )
        50           H   tau(  50) = (   0.4531402   0.8463870   3.1263272  )
        51           H   tau(  51) = (  -0.2866673   0.8388189   6.7606872  )
        52           H   tau(  52) = (   0.0662066   2.5204078   4.1428706  )
        53           C   tau(  53) = (   0.4769596   2.8242318   0.8306010  )
        54           C   tau(  54) = (   0.7825935   1.1426657   2.8046627  )
        55           C   tau(  55) = (   0.0423871   0.5425630   6.4385968  )
        56           C   tau(  56) = (  -0.2632468   2.2241291   4.4645350  )
        57           C   tau(  57) = (   0.8801470   2.4625497   1.1480826  )
        58           C   tau(  58) = (   0.3796215   0.7810991   2.4866844  )
        59           C   tau(  59) = (  -0.3608003   0.9042451   6.1211152  )
        60           C   tau(  60) = (   0.1397252   2.5856957   4.7825133  )
        61           H   tau(  61) = (   0.8379079   2.3002715   1.3699262  )
        62           H   tau(  62) = (   0.4217987   0.6189958   2.2646729  )
        63           H   tau(  63) = (  -0.3185612   1.0665233   5.8992716  )
        64           H   tau(  64) = (   0.0975480   2.7477990   5.0045249  )
        65           H   tau(  65) = (   0.1425965   2.5583371   1.1559623  )
        66           H   tau(  66) = (   0.1171574   0.8769466   2.4788906  )
        67           H   tau(  67) = (   0.3767502   0.8084577   6.1132355  )
        68           H   tau(  68) = (   0.4021893   2.4898482   4.7903072  )
        69           H   tau(  69) = (   0.8566141   2.2969756   0.9267779  )
        70           H   tau(  70) = (   0.4031356   0.6153478   2.7078544  )
        71           H   tau(  71) = (  -0.3372674   1.0698192   6.3424199  )
        72           H   tau(  72) = (   0.1162111   2.7514470   4.5613434  )
        73           C   tau(  73) = (   0.5068151   2.8641614   1.4436740  )
        74           C   tau(  74) = (   0.7532913   1.1827631   2.1915370  )
        75           C   tau(  75) = (   0.0125316   0.5026334   5.8255238  )
        76           C   tau(  76) = (  -0.2339446   2.1840317   5.0776608  )
        77           C   tau(  77) = (   0.6670818   2.7939775   1.7509284  )
        78           C   tau(  78) = (   0.5930527   1.1130671   1.8841779  )
        79           C   tau(  79) = (  -0.1477351   0.5728173   5.5182694  )
        80           C   tau(  80) = (  -0.0737060   2.2537277   5.3850199  )
        81           H   tau(  81) = (   0.8537970   2.5942572   1.7731219  )
        82           H   tau(  82) = (   0.4063800   0.9133906   1.8615873  )
        83           H   tau(  83) = (  -0.3344503   0.7725375   5.4960759  )
        84           H   tau(  84) = (   0.1129667   2.4534042   5.4076104  )
        85           C   tau(  85) = (   0.5057295   2.8854616   2.0597005  )
        86           C   tau(  86) = (   0.7544748   1.2050362   1.5755240  )
        87           C   tau(  87) = (   0.0136172   0.4813332   5.2094973  )
        88           C   tau(  88) = (  -0.2351281   2.1617586   5.6936738  )
        89           C   tau(  89) = (   0.5044438   2.9103344   2.6399058  )
        90           C   tau(  90) = (  -0.2442217   1.2304773   0.9954076  )
        91           C   tau(  91) = (   0.0149029   0.4564604   4.6292919  )
        92           C   tau(  92) = (   0.7635684   2.1363175   6.2737902  )
        93           C   tau(  93) = (   0.6872436   2.8688351   2.9567851  )
        94           C   tau(  94) = (   0.5728887   1.1890085   0.6785309  )
        95           C   tau(  95) = (  -0.1678969   0.4979597   4.3124127  )
        96           C   tau(  96) = (  -0.0535420   2.1777863   6.5906669  )
        97           H   tau(  97) = (   0.8378086   2.6371966   2.9646978  )
        98           H   tau(  98) = (   0.4224104   0.9573246   0.6708038  )
        99           H   tau(  99) = (  -0.3184619   0.7295982   4.3044999  )
       100           H   tau( 100) = (   0.0969363   2.4094702   6.5983940  )
       101           C   tau( 101) = (   0.5031473   2.9529927   3.2577628  )
       102           C   tau( 102) = (  -0.2428395   1.2728950   0.3775061  )
       103           C   tau( 103) = (   0.0161994   0.4138021   4.0114349  )
       104           C   tau( 104) = (   0.7621862   2.0938998   6.8916917  )
       105           H   tau( 105) = (   0.6153703   2.9086337   3.5035074  )
       106           H   tau( 106) = (  -0.3547248   1.2279191   0.1317368  )
       107           H   tau( 107) = (  -0.0960236   0.4581611   3.7656904  )
       108           H   tau( 108) = (   0.8740715   2.1388757   7.1374610  )
       109           C   tau( 109) = (   0.2053487   3.1177793   3.2492648  )
       110           C   tau( 110) = (   0.0550130   1.4375959   0.3860836  )
       111           C   tau( 111) = (   0.3139980   0.2490154   4.0199330  )
       112           C   tau( 112) = (   0.4643337   1.9291989   6.8831142  )
       113           H   tau( 113) = (   0.0912319   3.1867402   3.4883903  )
       114           H   tau( 114) = (   0.1694432   1.5059091   0.1469210  )
       115           H   tau( 115) = (   0.4281148   0.1800546   3.7808075  )
       116           H   tau( 116) = (   0.3499035   1.8608857   7.1222767  )
       117           C   tau( 117) = (   0.0218133   3.1666881   2.9406714  )
       118           C   tau( 118) = (   0.2384552   1.4868182   0.6947029  )
       119           C   tau( 119) = (   0.4975334   0.2001067   4.3285264  )
       120           C   tau( 120) = (   0.2808915   1.8799766   6.5744949  )
       121           H   tau( 121) = (  -0.1296790   0.0301012   2.9226645  )
       122           H   tau( 122) = (   0.3898881   1.7170434   0.7124591  )
       123           H   tau( 123) = (   0.6490257   3.3366936   4.3465333  )
       124           H   tau( 124) = (   0.1294586   1.6497513   6.5567387  )
       125           C   tau( 125) = (   0.2073691   3.0950512   2.6311617  )
       126           C   tau( 126) = (   0.0528402   1.4152364   1.0042645  )
       127           C   tau( 127) = (   0.3119776   0.2717436   4.6380360  )
       128           C   tau( 128) = (   0.4665065   1.9515584   6.2649332  )
       129           C   tau( 129) = (   0.2160790   3.0815250   2.0513367  )
       130           C   tau( 130) = (   0.0441662   1.4010746   1.5841035  )
       131           C   tau( 131) = (   0.3032677   0.2852697   5.2178610  )
       132           C   tau( 132) = (   0.4751805   1.9657202   5.6850943  )
       133           C   tau( 133) = (   0.0660974   3.1614048   1.7336995  )
       134           C   tau( 134) = (   0.1941111   1.4803787   1.9019684  )
       135           C   tau( 135) = (   0.4532493   0.2053900   5.5354983  )
       136           C   tau( 136) = (   0.3252356   1.8864160   5.3672294  )
       137           H   tau( 137) = (  -0.1219413  -0.0054001   1.7406385  )
       138           H   tau( 138) = (   0.3821150   1.6804000   1.8953994  )
       139           H   tau( 139) = (   0.6412880   3.3721949   5.5285593  )
       140           H   tau( 140) = (   0.1372317   1.6863948   5.3737984  )
       141           C   tau( 141) = (   0.2476826   3.0989164   1.4382479  )
       142           C   tau( 142) = (   0.0124170   1.4175395   2.1972447  )
       143           C   tau( 143) = (   0.2716641   0.2678784   5.8309499  )
       144           C   tau( 144) = (   0.5069297   1.9492553   5.0719531  )
       145           C   tau( 145) = (  -0.0979586   0.1346127   1.1217254  )
       146           C   tau( 146) = (   0.3580318   1.8196460   2.5143058  )
       147           C   tau( 147) = (   0.6173053   3.2321821   6.1474724  )
       148           C   tau( 148) = (   0.1613149   1.5471488   4.7548920  )
       149           H   tau( 149) = (  -0.0833117   0.3095179   1.3375801  )
       150           H   tau( 150) = (   0.3433167   1.9949491   2.2988107  )
       151           H   tau( 151) = (   0.6026584   3.0572769   5.9316177  )
       152           H   tau( 152) = (   0.1760300   1.3718457   4.9703870  )
       153           H   tau( 153) = (  -0.3634686   0.0179347   1.1219567  )
       154           H   tau( 154) = (   0.6236004   1.7030822   2.5138353  )
       155           H   tau( 155) = (   0.8828153   3.3488600   6.1472411  )
       156           H   tau( 156) = (  -0.1042537   1.6637126   4.7553624  )
       157           H   tau( 157) = (  -0.0809521   0.2921707   0.8927297  )
       158           H   tau( 158) = (   0.3410747   1.9769081   2.7435106  )
       159           H   tau( 159) = (   0.6002988   3.0746241   6.3764681  )
       160           H   tau( 160) = (   0.1782720   1.3898867   4.5256872  )

     number of k points=     6
                       cart. coord. in units 2pi/alat
        k(    1) = (   0.0000000   0.0000000   0.0000000), wk =   0.2000000
        k(    2) = (   0.0000000  -0.1485092   0.0000000), wk =   0.2000000
        k(    3) = (   0.2000000   0.0000000   0.0132244), wk =   0.4000000
        k(    4) = (   0.2000000  -0.1485092   0.0132244), wk =   0.4000000
        k(    5) = (   0.4000000   0.0000000   0.0264488), wk =   0.4000000
        k(    6) = (   0.4000000  -0.1485092   0.0264488), wk =   0.4000000

     Dense  grid:  1380151 G-vectors     FFT dimensions: (  48, 162, 360)

     Estimated max dynamical RAM per process >    1809.48MB

     Estimated total allocated dynamical RAM >   14475.86MB

     Check: negative/imaginary core charge=   -0.000002    0.000000

     Initial potential from superposition of free atoms

     starting charge  463.99594, renormalised to  464.00000
     Starting wfc are  448 randomized atomic wfcs
     Checking if some PAW data can be deallocated... 

     total cpu time spent up to now is      124.2 secs

     per-process dynamical memory:  1102.7 Mb

     Self-consistent Calculation

     iteration #  1     ecut=   100.00 Ry     beta=0.50
     Davidson diagonalization with overlap
     ethr =  1.00E-02,  avg # of iterations =  5.7

     total cpu time spent up to now is      489.3 secs

     total energy              =   -1999.08405257 Ry
     Harris-Foulkes estimate   =   -2007.39923097 Ry
     estimated scf accuracy    <      16.21220056 Ry

     iteration #  2     ecut=   100.00 Ry     beta=0.50
     Davidson diagonalization with overlap
     ethr =  3.49E-03,  avg # of iterations =  1.8

     total cpu time spent up to now is      657.2 secs

     total energy              =   -1998.56900513 Ry
     Harris-Foulkes estimate   =   -2000.09606222 Ry
     estimated scf accuracy    <       2.68896702 Ry

     iteration #  3     ecut=   100.00 Ry     beta=0.50
     Davidson diagonalization with overlap
     ethr =  5.80E-04,  avg # of iterations =  5.0

     total cpu time spent up to now is     1085.7 secs

     total energy              =   -2001.12892695 Ry
     Harris-Foulkes estimate   =   -2002.65430767 Ry
     estimated scf accuracy    <       5.22483625 Ry

     iteration #  4     ecut=   100.00 Ry     beta=0.50
     Davidson diagonalization with overlap
     ethr =  5.80E-04,  avg # of iterations =  1.8

     total cpu time spent up to now is     1253.6 secs

     total energy              =   -2000.93804820 Ry
     Harris-Foulkes estimate   =   -2001.40710605 Ry
     estimated scf accuracy    <       1.80166925 Ry

     iteration #  5     ecut=   100.00 Ry     beta=0.50
     Davidson diagonalization with overlap
     ethr =  3.88E-04,  avg # of iterations =  3.7

     total cpu time spent up to now is     1456.5 secs

     total energy              =   -2000.93655420 Ry
     Harris-Foulkes estimate   =   -2001.19023679 Ry
     estimated scf accuracy    <       0.41330031 Ry

     iteration #  6     ecut=   100.00 Ry     beta=0.50
     Davidson diagonalization with overlap
     ethr =  8.91E-05,  avg # of iterations =  6.0

     total cpu time spent up to now is     1864.5 secs

     total energy              =   -2001.18357803 Ry
     Harris-Foulkes estimate   =   -2001.33272062 Ry
     estimated scf accuracy    <       0.31663782 Ry

     iteration #  7     ecut=   100.00 Ry     beta=0.50
     Davidson diagonalization with overlap
     ethr =  6.82E-05,  avg # of iterations =  5.2

     total cpu time spent up to now is     2039.7 secs

     total energy              =   -2001.18404002 Ry
     Harris-Foulkes estimate   =   -2001.20467088 Ry
     estimated scf accuracy    <       0.06834046 Ry

     iteration #  8     ecut=   100.00 Ry     beta=0.50
     Davidson diagonalization with overlap
     ethr =  1.47E-05,  avg # of iterations =  9.3

     total cpu time spent up to now is     2436.0 secs

     total energy              =   -2001.22646955 Ry
     Harris-Foulkes estimate   =   -2001.23041214 Ry
     estimated scf accuracy    <       0.01635897 Ry

     iteration #  9     ecut=   100.00 Ry     beta=0.50
     Davidson diagonalization with overlap
     c_bands:  2 eigenvalues not converged
     c_bands:  1 eigenvalues not converged
     c_bands:  4 eigenvalues not converged
     ethr =  3.53E-06,  avg # of iterations = 18.3

     total cpu time spent up to now is     2698.6 secs

     total energy              =   -2001.22734385 Ry
     Harris-Foulkes estimate   =   -2001.22883626 Ry
     estimated scf accuracy    <       0.00363227 Ry

     iteration # 10     ecut=   100.00 Ry     beta=0.50
     Davidson diagonalization with overlap
     c_bands:  1 eigenvalues not converged
     ethr =  7.83E-07,  avg # of iterations = 12.0

     total cpu time spent up to now is     2952.0 secs

     total energy              =   -2001.22805654 Ry
     Harris-Foulkes estimate   =   -2001.22826983 Ry
     estimated scf accuracy    <       0.00067818 Ry

     iteration # 11     ecut=   100.00 Ry     beta=0.50
     Davidson diagonalization with overlap
     ethr =  1.46E-07,  avg # of iterations =  4.2

     total cpu time spent up to now is     3249.8 secs

     total energy              =   -2001.22831026 Ry
     Harris-Foulkes estimate   =   -2001.22840721 Ry
     estimated scf accuracy    <       0.00025782 Ry

     iteration # 12     ecut=   100.00 Ry     beta=0.50
     Davidson diagonalization with overlap
     ethr =  5.56E-08,  avg # of iterations =  2.5

     total cpu time spent up to now is     3418.7 secs

     total energy              =   -2001.22832760 Ry
     Harris-Foulkes estimate   =   -2001.22833799 Ry
     estimated scf accuracy    <       0.00002921 Ry

     iteration # 13     ecut=   100.00 Ry     beta=0.50
     Davidson diagonalization with overlap
     ethr =  6.30E-09,  avg # of iterations =  4.0

     total cpu time spent up to now is     3808.0 secs

     total energy              =   -2001.22835821 Ry
     Harris-Foulkes estimate   =   -2001.22837429 Ry
     estimated scf accuracy    <       0.00005237 Ry

     iteration # 14     ecut=   100.00 Ry     beta=0.50
     Davidson diagonalization with overlap
     ethr =  6.30E-09,  avg # of iterations =  2.0

     total cpu time spent up to now is     3974.9 secs

     total energy              =   -2001.22835427 Ry
     Harris-Foulkes estimate   =   -2001.22836072 Ry
     estimated scf accuracy    <       0.00001805 Ry

     iteration # 15     ecut=   100.00 Ry     beta=0.50
     Davidson diagonalization with overlap
     ethr =  3.89E-09,  avg # of iterations =  4.0

     total cpu time spent up to now is     4267.2 secs

     total energy              =   -2001.22836202 Ry
     Harris-Foulkes estimate   =   -2001.22836240 Ry
     estimated scf accuracy    <       0.00000306 Ry

     iteration # 16     ecut=   100.00 Ry     beta=0.50
     Davidson diagonalization with overlap
     ethr =  6.60E-10,  avg # of iterations =  1.3

     total cpu time spent up to now is     4431.5 secs

     total energy              =   -2001.22836104 Ry
     Harris-Foulkes estimate   =   -2001.22836220 Ry
     estimated scf accuracy    <       0.00000236 Ry

     iteration # 17     ecut=   100.00 Ry     beta=0.50
     Davidson diagonalization with overlap
     ethr =  5.08E-10,  avg # of iterations =  4.0

     total cpu time spent up to now is     4622.2 secs

     total energy              =   -2001.22836131 Ry
     Harris-Foulkes estimate   =   -2001.22836145 Ry
     estimated scf accuracy    <       0.00000026 Ry

     iteration # 18     ecut=   100.00 Ry     beta=0.50
     Davidson diagonalization with overlap
     ethr =  5.64E-11,  avg # of iterations =  4.0

     total cpu time spent up to now is     5012.4 secs

     total energy              =   -2001.22836164 Ry
     Harris-Foulkes estimate   =   -2001.22836176 Ry
     estimated scf accuracy    <       0.00000035 Ry

     iteration # 19     ecut=   100.00 Ry     beta=0.50
     Davidson diagonalization with overlap
     ethr =  5.64E-11,  avg # of iterations =  1.0

     total cpu time spent up to now is     5175.7 secs

     total energy              =   -2001.22836159 Ry
     Harris-Foulkes estimate   =   -2001.22836165 Ry
     estimated scf accuracy    <       0.00000016 Ry

     iteration # 20     ecut=   100.00 Ry     beta=0.50
     Davidson diagonalization with overlap
     ethr =  3.54E-11,  avg # of iterations =  4.0

     total cpu time spent up to now is     5432.8 secs

     End of self-consistent calculation

          k = 0.0000 0.0000 0.0000 (172359 PWs)   bands (ev):

   -18.3604 -18.3604 -18.3595 -18.3594 -17.9276 -17.9274 -17.9261 -17.9260
   -16.8742 -16.8742 -16.8736 -16.8736 -15.3661 -15.3595 -15.3582 -15.3545
   -15.1199 -15.1199 -15.1183 -15.1183 -14.9416 -14.9281 -14.9275 -14.9163
   -14.1880 -14.1755 -14.1742 -14.1630 -12.3876 -12.3611 -12.3607 -12.3359
   -12.1049 -12.0959 -12.0951 -12.0859 -11.6883 -11.6867 -11.6862 -11.6797
   -11.1232 -11.1173 -11.1031 -11.0989 -11.0125 -10.9975 -10.9854 -10.9748
   -10.5613 -10.5415 -10.5396 -10.5351 -10.1209 -10.1206 -10.1122 -10.0978
    -9.7315  -9.7034  -9.7022  -9.6768  -8.9097  -8.9089  -8.9054  -8.9035
    -8.8278  -8.8070  -8.7960  -8.7734  -8.4306  -8.4286  -8.4249  -8.4194
    -8.0629  -8.0588  -8.0583  -8.0539  -7.5957  -7.5711  -7.5611  -7.5191
    -7.2882  -7.2576  -7.2373  -7.2267  -6.7562  -6.7196  -6.7156  -6.6920
    -6.1291  -6.1285  -6.0456  -6.0152  -5.9054  -5.8811  -5.8299  -5.8248
    -5.7167  -5.6902  -5.6541  -5.6236  -5.3434  -5.3367  -5.2986  -5.2811
    -5.2501  -5.2464  -5.2173  -5.2003  -5.1681  -5.0439  -5.0339  -4.8884
    -4.8572  -4.8350  -4.8301  -4.7866  -4.7865  -4.7854  -4.7469  -4.6767
    -4.5216  -4.4577  -4.4340  -4.4252  -4.4016  -4.3779  -4.3336  -4.3269
    -4.0831  -4.0694  -4.0618  -4.0422  -3.9275  -3.9120  -3.9045  -3.8871
    -3.7626  -3.7571  -3.7555  -3.7393  -3.2999  -3.2721  -3.2670  -3.2536
    -3.1496  -3.1291  -3.1097  -3.0957  -3.0311  -3.0059  -2.9937  -2.9730
    -2.8636  -2.8441  -2.8383  -2.8270  -2.8001  -2.7928  -2.7308  -2.7265
    -2.7060  -2.7034  -2.6795  -2.6794  -2.5071  -2.5003  -2.4883  -2.4621
    -2.2848  -2.2346  -2.2303  -2.2267  -2.1144  -2.1130  -2.1027  -2.0866
    -1.9060  -1.8988  -1.8786  -1.8410  -1.8160  -1.7729  -1.7646  -1.7504
    -1.7451  -1.7408  -1.7175  -1.7088  -1.5483  -1.5240  -1.5078  -1.4945
    -1.2776  -1.2764  -1.1739  -1.1492  -0.8832  -0.8618  -0.8381  -0.8104
    -0.7253  -0.7174  -0.6694  -0.6623  -0.2757  -0.2738  -0.2473  -0.2105
    -0.1708  -0.1580  -0.1571  -0.1464  -0.0405  -0.0166  -0.0070  -0.0022
     0.4990   0.5073   0.5154   0.5158   0.6829   0.6970   0.7101   0.7245
     1.2185   1.2193   1.2270   1.2357   2.4333   2.4402   2.4661   2.4691
     4.7226   4.7438   4.7493   4.7609   5.1752   5.1757   5.1797   5.1867
     5.4425   5.4672   5.4748   5.4775   5.9843   6.0564   6.1173   6.1793
     6.1962   6.2274   6.2346   6.3232   6.3395   6.4573   6.4746   6.5466
     6.6258   6.6681   6.8069   6.9329   6.9688   6.9909   6.9993   7.0006
     7.5066   7.5096   7.6092   7.6432   7.6546   7.7252   7.8203   7.8472
     7.9578   7.9767   8.0519   8.1677   8.1702   8.2495

          k = 0.0000-0.1485 0.0000 (172408 PWs)   bands (ev):

   -18.3602 -18.3601 -18.3597 -18.3597 -17.9274 -17.9273 -17.9263 -17.9262
   -16.8742 -16.8742 -16.8736 -16.8736 -15.3639 -15.3635 -15.3556 -15.3553
   -15.1199 -15.1199 -15.1183 -15.1183 -14.9381 -14.9365 -14.9200 -14.9189
   -14.1845 -14.1835 -14.1667 -14.1660 -12.3800 -12.3792 -12.3431 -12.3430
   -12.1027 -12.1018 -12.0889 -12.0884 -11.6877 -11.6877 -11.6829 -11.6827
   -11.1201 -11.1198 -11.1019 -11.1012 -11.0067 -11.0054 -10.9791 -10.9785
   -10.5515 -10.5515 -10.5373 -10.5371 -10.1181 -10.1177 -10.1084 -10.1078
    -9.7236  -9.7224  -9.6842  -9.6838  -8.9094  -8.9090  -8.9045  -8.9041
    -8.8207  -8.8206  -8.7817  -8.7812  -8.4304  -8.4296  -8.4220  -8.4213
    -8.0626  -8.0613  -8.0560  -8.0548  -7.5891  -7.5887  -7.5349  -7.5346
    -7.2751  -7.2747  -7.2299  -7.2299  -6.7437  -6.7427  -6.6991  -6.6989
    -6.1289  -6.1286  -6.0304  -6.0300  -5.8948  -5.8931  -5.8274  -5.8269
    -5.7069  -5.7063  -5.6359  -5.6359  -5.3166  -5.3158  -5.3064  -5.3057
    -5.2333  -5.2328  -5.2269  -5.2260  -5.1351  -5.1334  -4.9338  -4.9332
    -4.8436  -4.8429  -4.8106  -4.8105  -4.8010  -4.8010  -4.7055  -4.7050
    -4.4981  -4.4962  -4.4187  -4.4179  -4.3935  -4.3918  -4.3308  -4.3302
    -4.0797  -4.0784  -4.0489  -4.0482  -3.9148  -3.9143  -3.8972  -3.8967
    -3.7634  -3.7623  -3.7435  -3.7430  -3.2925  -3.2924  -3.2670  -3.2669
    -3.1483  -3.1476  -3.1178  -3.1168  -2.9932  -2.9927  -2.9641  -2.9633
    -2.8512  -2.8500  -2.8332  -2.8322  -2.7717  -2.7706  -2.7650  -2.7642
    -2.6955  -2.6954  -2.6859  -2.6858  -2.5017  -2.5008  -2.4790  -2.4784
    -2.2721  -2.2715  -2.2277  -2.2277  -2.1191  -2.1189  -2.0867  -2.0862
    -1.9029  -1.9028  -1.8703  -1.8700  -1.7845  -1.7840  -1.7618  -1.7609
    -1.7448  -1.7442  -1.7069  -1.7066  -1.5360  -1.5358  -1.4990  -1.4990
    -1.2773  -1.2766  -1.1619  -1.1615  -0.8744  -0.8739  -0.8218  -0.8218
    -0.7234  -0.7202  -0.6660  -0.6642  -0.2752  -0.2751  -0.2290  -0.2284
    -0.1646  -0.1644  -0.1517  -0.1507  -0.0293  -0.0288  -0.0045  -0.0043
     0.5025   0.5032   0.5158   0.5160   0.6889   0.6904   0.7173   0.7181
     1.2210   1.2212   1.2275   1.2278   2.4360   2.4371   2.4678   2.4694
     4.7362   4.7366   4.7509   4.7517   5.1753   5.1759   5.1819   5.1823
     5.4550   5.4558   5.4749   5.4759   6.0295   6.0335   6.0816   6.0835
     6.1864   6.1868   6.3687   6.3693   6.4499   6.4516   6.5180   6.5223
     6.6798   6.6805   6.6865   6.6868   6.9403   6.9485   7.0836   7.0892
     7.5529   7.5534   7.6557   7.6563   7.7442   7.7458   7.7626   7.7641
     7.9734   7.9806   8.0796   8.0802   8.2414   8.2449

          k = 0.2000 0.0000 0.0132 (172455 PWs)   bands (ev):

   -18.2395 -18.2394 -18.2387 -18.2386 -17.7528 -17.7527 -17.7515 -17.7514
   -16.8963 -16.8963 -16.8957 -16.8957 -15.4187 -15.4186 -15.4173 -15.4172
   -15.1544 -15.1483 -15.1479 -15.1444 -14.7488 -14.7367 -14.7357 -14.7256
   -14.0253 -14.0144 -14.0129 -14.0030 -12.2903 -12.2804 -12.2696 -12.2641
   -12.2104 -12.2066 -12.2013 -12.1920 -12.0356 -12.0339 -12.0327 -12.0304
   -11.6101 -11.6027 -11.5960 -11.5922 -11.2129 -11.2034 -11.1907 -11.1793
   -10.7539 -10.7380 -10.7279 -10.7138 -10.2456 -10.2431 -10.2411 -10.2382
    -9.5945  -9.5716  -9.5675  -9.5461  -9.1200  -9.1087  -9.1009  -9.0901
    -8.6029  -8.5985  -8.5846  -8.5780  -8.3501  -8.3445  -8.3370  -8.3360
    -7.9419  -7.9402  -7.9377  -7.9338  -7.8550  -7.8362  -7.8289  -7.8023
    -7.2988  -7.2751  -7.2593  -7.2477  -6.7986  -6.7640  -6.7550  -6.7455
    -6.4327  -6.4174  -6.4014  -6.3820  -6.0041  -5.9786  -5.9442  -5.9390
    -5.5886  -5.5744  -5.5730  -5.5492  -5.4234  -5.4167  -5.4143  -5.3828
    -5.2295  -5.2129  -5.1947  -5.1791  -5.0661  -5.0397  -4.9370  -4.9354
    -4.7523  -4.7379  -4.7285  -4.7032  -4.5125  -4.5107  -4.4912  -4.4867
    -4.4508  -4.4075  -4.4069  -4.3680  -4.2650  -4.1639  -4.1505  -4.0844
    -4.0348  -4.0204  -4.0147  -3.9982  -3.9665  -3.9575  -3.9488  -3.9463
    -3.8469  -3.8467  -3.8383  -3.8331  -3.6836  -3.6763  -3.6661  -3.6381
    -3.4721  -3.4563  -3.4466  -3.4335  -3.2564  -3.2200  -3.2100  -3.1745
    -2.9348  -2.9137  -2.8970  -2.8709  -2.7200  -2.7178  -2.6646  -2.6587
    -2.4959  -2.4882  -2.4844  -2.4491  -2.3142  -2.3014  -2.3003  -2.2955
    -2.2476  -2.2402  -2.2234  -2.1956  -1.9983  -1.9812  -1.9708  -1.9492
    -1.9047  -1.8874  -1.8865  -1.8531  -1.7881  -1.7489  -1.7350  -1.7307
    -1.6335  -1.6216  -1.5999  -1.5962  -1.5405  -1.4981  -1.4502  -1.4295
    -1.3665  -1.3512  -1.3015  -1.2813  -1.2178  -1.2002  -1.1811  -1.1746
    -0.4720  -0.4477  -0.4373  -0.4288   0.0381   0.0407   0.0504   0.0522
     0.4067   0.4132   0.4434   0.4439   0.5145   0.5261   0.5381   0.5585
     0.8145   0.8440   0.8643   0.8696   1.0042   1.0076   1.0389   1.0404
     1.4383   1.4500   1.4539   1.4717   2.6438   2.6463   2.6677   2.6769
     4.5957   4.6002   4.6005   4.6077   5.2406   5.2516   5.2666   5.2919
     5.7988   5.8048   5.8293   5.8413   5.9501   5.9597   6.0436   6.0693
     6.1424   6.1598   6.1791   6.1844   6.2726   6.2907   6.4642   6.4787
     6.5728   6.5815   6.7151   6.7177   6.7839   6.7921   6.8321   6.9045
     6.9755   7.0589   7.1798   7.2899   7.5270   7.5742   7.6959   7.8004
     8.0158   8.1995   8.2168   8.2539   8.3811   8.4081

          k = 0.2000-0.1485 0.0132 (172476 PWs)   bands (ev):

   -18.2393 -18.2393 -18.2388 -18.2388 -17.7527 -17.7526 -17.7516 -17.7515
   -16.8963 -16.8963 -16.8957 -16.8957 -15.4187 -15.4186 -15.4173 -15.4172
   -15.1525 -15.1520 -15.1454 -15.1451 -14.7455 -14.7442 -14.7290 -14.7281
   -14.0222 -14.0213 -14.0063 -14.0057 -12.2864 -12.2857 -12.2664 -12.2662
   -12.2098 -12.2085 -12.1963 -12.1954 -12.0347 -12.0345 -12.0318 -12.0315
   -11.6070 -11.6068 -11.5936 -11.5934 -11.2095 -11.2089 -11.1842 -11.1838
   -10.7483 -10.7477 -10.7189 -10.7188 -10.2442 -10.2440 -10.2401 -10.2398
    -9.5875  -9.5867  -9.5528  -9.5527  -9.1160  -9.1156  -9.0940  -9.0940
    -8.6004  -8.6003  -8.5812  -8.5809  -8.3465  -8.3450  -8.3387  -8.3374
    -7.9425  -7.9419  -7.9355  -7.9352  -7.8494  -7.8486  -7.8122  -7.8120
    -7.2893  -7.2888  -7.2516  -7.2515  -6.7850  -6.7840  -6.7477  -6.7473
    -6.4269  -6.4268  -6.3899  -6.3897  -5.9934  -5.9917  -5.9410  -5.9405
    -5.5852  -5.5845  -5.5583  -5.5580  -5.4229  -5.4221  -5.3969  -5.3967
    -5.2151  -5.2149  -5.1939  -5.1937  -5.0475  -5.0461  -4.9401  -4.9390
    -4.7362  -4.7357  -4.7225  -4.7224  -4.5037  -4.5022  -4.4959  -4.4949
    -4.4341  -4.4335  -4.3849  -4.3846  -4.2310  -4.2295  -4.1028  -4.1025
    -4.0314  -4.0310  -4.0069  -4.0068  -3.9545  -3.9540  -3.9506  -3.9504
    -3.8428  -3.8426  -3.8401  -3.8400  -3.6818  -3.6815  -3.6532  -3.6529
    -3.4677  -3.4675  -3.4404  -3.4402  -3.2445  -3.2441  -3.1872  -3.1866
    -2.9196  -2.9191  -2.8941  -2.8936  -2.6896  -2.6890  -2.6828  -2.6821
    -2.4912  -2.4910  -2.4612  -2.4606  -2.3135  -2.3124  -2.2991  -2.2983
    -2.2451  -2.2447  -2.2119  -2.2109  -1.9969  -1.9966  -1.9535  -1.9531
    -1.9090  -1.9087  -1.8605  -1.8602  -1.7727  -1.7714  -1.7250  -1.7243
    -1.6156  -1.6152  -1.6021  -1.6013  -1.5210  -1.5209  -1.4499  -1.4496
    -1.3443  -1.3440  -1.2977  -1.2969  -1.2018  -1.2013  -1.1888  -1.1885
    -0.4528  -0.4525  -0.4370  -0.4363   0.0356   0.0358   0.0522   0.0527
     0.4095   0.4104   0.4429   0.4432   0.5228   0.5235   0.5456   0.5456
     0.8252   0.8266   0.8688   0.8697   1.0051   1.0069   1.0386   1.0399
     1.4422   1.4425   1.4638   1.4642   2.6454   2.6463   2.6717   2.6729
     4.5968   4.5969   4.6037   4.6039   5.2506   5.2513   5.2728   5.2733
     5.8101   5.8111   5.8285   5.8287   5.9775   5.9781   6.0380   6.0383
     6.1565   6.1578   6.1796   6.1810   6.3386   6.3425   6.4424   6.4463
     6.5493   6.5535   6.6392   6.6407   6.8134   6.8144   6.9092   6.9115
     7.0767   7.0813   7.1510   7.1547   7.5959   7.5974   7.7045   7.7057
     8.1074   8.1100   8.2657   8.2702   8.4283   8.4320

          k = 0.4000 0.0000 0.0264 (172654 PWs)   bands (ev):

   -17.9982 -17.9981 -17.9975 -17.9975 -17.3357 -17.3356 -17.3343 -17.3342
   -16.9796 -16.9796 -16.9790 -16.9790 -16.0164 -16.0164 -16.0153 -16.0153
   -14.6951 -14.6929 -14.6920 -14.6907 -14.2591 -14.2517 -14.2515 -14.2447
   -13.6664 -13.6591 -13.6577 -13.6505 -12.9645 -12.9641 -12.9579 -12.9574
   -12.4472 -12.4455 -12.4352 -12.4339 -12.3678 -12.3635 -12.3615 -12.3584
   -11.9764 -11.9651 -11.9610 -11.9485 -11.7652 -11.7607 -11.7593 -11.7540
   -10.6679 -10.6531 -10.6422 -10.6301 -10.4264 -10.4258 -10.4256 -10.4243
    -9.5912  -9.5898  -9.5871  -9.5858  -9.3395  -9.3234  -9.3231  -9.3054
    -8.4717  -8.4655  -8.4638  -8.4605  -8.2525  -8.2429  -8.2392  -8.2383
    -7.9538  -7.9489  -7.9342  -7.9237  -7.7216  -7.7185  -7.7129  -7.7091
    -7.2338  -7.2246  -7.2206  -7.2089  -7.0169  -7.0150  -7.0054  -6.9982
    -6.6453  -6.6322  -6.6199  -6.6169  -6.0286  -6.0199  -6.0116  -6.0017
    -5.8218  -5.8098  -5.8078  -5.7979  -5.6006  -5.5779  -5.5683  -5.5559
    -5.1229  -5.0988  -5.0984  -5.0824  -4.9433  -4.9260  -4.9127  -4.9010
    -4.8901  -4.8863  -4.8708  -4.8665  -4.7431  -4.7125  -4.6869  -4.6727
    -4.3267  -4.3095  -4.3039  -4.2959  -4.1900  -4.1543  -4.1406  -4.1161
    -4.0995  -4.0917  -4.0880  -4.0645  -4.0377  -4.0029  -3.9986  -3.9779
    -3.7896  -3.7861  -3.7753  -3.7743  -3.4981  -3.4844  -3.4733  -3.4583
    -3.4473  -3.4389  -3.4187  -3.4027  -3.2349  -3.2328  -3.2262  -3.2211
    -3.0113  -2.9971  -2.9428  -2.9368  -2.8034  -2.7940  -2.7880  -2.7435
    -2.6562  -2.6552  -2.6441  -2.6336  -2.4964  -2.4943  -2.4777  -2.4592
    -2.2835  -2.2408  -2.2070  -2.1641  -2.1571  -2.1476  -2.1110  -2.1015
    -2.0627  -2.0585  -2.0225  -1.9888  -1.9659  -1.9410  -1.8648  -1.8307
    -1.7980  -1.7637  -1.7623  -1.7348  -1.5274  -1.5181  -1.4784  -1.4748
    -0.5522  -0.5521  -0.5335  -0.5325  -0.4362  -0.4354  -0.4127  -0.4121
     0.1115   0.1199   0.1205   0.1373   0.2321   0.2427   0.2453   0.2516
     0.3020   0.3030   0.3248   0.3277   1.3756   1.3986   1.4018   1.4112
     1.6823   1.6877   1.7080   1.7213   2.0266   2.0626   2.0681   2.0895
     2.1198   2.1516   2.1776   2.1982   3.1509   3.1580   3.1780   3.1834
     3.9724   3.9878   3.9905   4.0135   4.7711   4.8035   4.8171   4.8249
     5.0287   5.0564   5.0718   5.1002   5.3055   5.3465   5.3612   5.3874
     5.9824   6.0069   6.0509   6.0597   6.6368   6.6567   6.7417   6.7534
     6.9835   7.0354   7.1955   7.2985   7.3790   7.3983   7.5139   7.5941
     7.6209   7.6254   7.6707   7.7833   7.8064   7.8087   8.0046   8.0439
     8.1971   8.2951   8.3156   8.3578   8.4075   8.4296

          k = 0.4000-0.1485 0.0264 (172624 PWs)   bands (ev):

   -17.9982 -17.9981 -17.9975 -17.9975 -17.3356 -17.3356 -17.3343 -17.3342
   -16.9796 -16.9795 -16.9791 -16.9790 -16.0164 -16.0164 -16.0153 -16.0153
   -14.6945 -14.6940 -14.6914 -14.6910 -14.2571 -14.2566 -14.2468 -14.2465
   -13.6643 -13.6638 -13.6529 -13.6526 -12.9645 -12.9641 -12.9578 -12.9576
   -12.4472 -12.4455 -12.4352 -12.4339 -12.3668 -12.3655 -12.3602 -12.3588
   -11.9729 -11.9724 -11.9529 -11.9527 -11.7647 -11.7627 -11.7568 -11.7551
   -10.6626 -10.6618 -10.6346 -10.6343 -10.4261 -10.4261 -10.4251 -10.4250
    -9.5909  -9.5903  -9.5866  -9.5861  -9.3350  -9.3346  -9.3110  -9.3107
    -8.4700  -8.4686  -8.4617  -8.4610  -8.2479  -8.2475  -8.2388  -8.2386
    -7.9519  -7.9512  -7.9286  -7.9286  -7.7190  -7.7186  -7.7123  -7.7121
    -7.2308  -7.2301  -7.2137  -7.2134  -7.0166  -7.0148  -7.0023  -7.0016
    -6.6398  -6.6392  -6.6177  -6.6172  -6.0256  -6.0252  -6.0056  -6.0055
    -5.8186  -5.8167  -5.8017  -5.8007  -5.5911  -5.5904  -5.5607  -5.5603
    -5.1156  -5.1149  -5.0878  -5.0874  -4.9522  -4.9516  -4.9193  -4.9188
    -4.8761  -4.8761  -4.8508  -4.8507  -4.7291  -4.7285  -4.6755  -4.6750
    -4.3190  -4.3189  -4.2997  -4.2993  -4.1778  -4.1766  -4.1247  -4.1241
    -4.0965  -4.0964  -4.0762  -4.0755  -4.0273  -4.0263  -3.9819  -3.9815
    -3.7879  -3.7874  -3.7762  -3.7759  -3.4908  -3.4901  -3.4668  -3.4663
    -3.4410  -3.4408  -3.4122  -3.4115  -3.2346  -3.2345  -3.2231  -3.2226
    -3.0051  -3.0050  -2.9427  -2.9420  -2.7990  -2.7973  -2.7650  -2.7642
    -2.6532  -2.6527  -2.6395  -2.6392  -2.4934  -2.4927  -2.4731  -2.4727
    -2.2711  -2.2690  -2.1794  -2.1782  -2.1515  -2.1508  -2.1052  -2.1046
    -2.0612  -2.0607  -2.0071  -2.0068  -1.9586  -1.9577  -1.8441  -1.8430
    -1.7844  -1.7838  -1.7446  -1.7438  -1.5228  -1.5216  -1.4772  -1.4771
    -0.5459  -0.5452  -0.5451  -0.5444  -0.4224  -0.4220  -0.4176  -0.4171
     0.1115   0.1116   0.1249   0.1250   0.2372   0.2375   0.2489   0.2492
     0.3142   0.3147   0.3188   0.3192   1.3844   1.3852   1.4092   1.4101
     1.6942   1.6948   1.7055   1.7060   2.0421   2.0423   2.0779   2.0790
     2.1418   2.1433   2.1795   2.1802   3.1646   3.1660   3.1712   3.1725
     3.9786   3.9793   4.0020   4.0025   4.7837   4.7840   4.8221   4.8225
     5.0393   5.0406   5.0838   5.0845   5.3237   5.3260   5.3771   5.3794
     5.9970   5.9989   6.0480   6.0487   6.6483   6.6497   6.7477   6.7479
     7.1243   7.1287   7.1805   7.1841   7.3542   7.3568   7.4370   7.4390
     7.6311   7.6336   7.7235   7.7253   7.9715   7.9721   8.0380   8.0395
     8.2012   8.2019   8.3949   8.3979   8.4595   8.4602

     highest occupied, lowest unoccupied level (ev):     3.1834    3.9724

!    total energy              =   -2001.22836163 Ry
     Harris-Foulkes estimate   =   -2001.22836163 Ry
     estimated scf accuracy    <          4.6E-09 Ry

     total all-electron energy =     -7923.137015 Ry

     The total energy is the sum of the following terms:

     one-electron contribution =   -1778.12749092 Ry
     hartree contribution      =    1065.32783493 Ry
     xc contribution           =    -466.39864446 Ry
     ewald contribution        =    -156.41109499 Ry
     Dispersion Correction     =      -0.88842379 Ry
     one-center paw contrib.   =    -664.73054240 Ry

     convergence has been achieved in  20 iterations

     Forces acting on atoms (cartesian axes, Ry/au):

     atom    1 type  2   force =    -0.02479028    0.05149226    0.01916658
     atom    2 type  2   force =     0.02495309    0.05177898   -0.01848645
     atom    3 type  2   force =     0.02479028   -0.05149226   -0.01916658
     atom    4 type  2   force =    -0.02495309   -0.05177898    0.01848645
     atom    5 type  2   force =    -0.03443172   -0.04053365    0.01662182
     atom    6 type  2   force =     0.03421481   -0.04071816   -0.01666524
     atom    7 type  2   force =     0.03443172    0.04053365   -0.01662182
     atom    8 type  2   force =    -0.03421481    0.04071816    0.01666524
     atom    9 type  2   force =     0.03516929    0.04210188    0.00920727
     atom   10 type  2   force =    -0.03497002    0.04211853   -0.00930041
     atom   11 type  2   force =    -0.03516929   -0.04210188   -0.00920727
     atom   12 type  2   force =     0.03497002   -0.04211853    0.00930041
     atom   13 type  2   force =    -0.01064501   -0.08745129   -0.00596742
     atom   14 type  2   force =     0.01045486   -0.08766387    0.00576109
     atom   15 type  2   force =     0.01064501    0.08745129    0.00596742
     atom   16 type  2   force =    -0.01045486    0.08766387   -0.00576109
     atom   17 type  1   force =    -0.03013538    0.05374226    0.01458382
     atom   18 type  1   force =     0.03058339    0.05378649   -0.01481703
     atom   19 type  1   force =     0.03013538   -0.05374226   -0.01458382
     atom   20 type  1   force =    -0.03058339   -0.05378649    0.01481703
     atom   21 type  1   force =     0.03406210    0.06445336   -0.01660850
     atom   22 type  1   force =    -0.03401889    0.06506581    0.01652432
     atom   23 type  1   force =    -0.03406210   -0.06445336    0.01660850
     atom   24 type  1   force =     0.03401889   -0.06506581   -0.01652432
     atom   25 type  3   force =     0.00105078    0.00310933   -0.00117101
     atom   26 type  3   force =    -0.00118312    0.00288174    0.00106946
     atom   27 type  3   force =    -0.00105078   -0.00310933    0.00117101
     atom   28 type  3   force =     0.00118312   -0.00288174   -0.00106946
     atom   29 type  1   force =    -0.02607237    0.02329517   -0.01063417
     atom   30 type  1   force =     0.02603605    0.02319343    0.01080603
     atom   31 type  1   force =     0.02607237   -0.02329517    0.01063417
     atom   32 type  1   force =    -0.02603605   -0.02319343   -0.01080603
     atom   33 type  3   force =    -0.00143095    0.01251061   -0.00882379
     atom   34 type  3   force =     0.00148382    0.01246081    0.00868720
     atom   35 type  3   force =     0.00143095   -0.01251061    0.00882379
     atom   36 type  3   force =    -0.00148382   -0.01246081   -0.00868720
     atom   37 type  1   force =     0.02833818   -0.02219336    0.00643740
     atom   38 type  1   force =    -0.02823558   -0.02230870   -0.00595038
     atom   39 type  1   force =    -0.02833818    0.02219336   -0.00643740
     atom   40 type  1   force =     0.02823558    0.02230870    0.00595038
     atom   41 type  3   force =     0.00624272   -0.00064010   -0.00151553
     atom   42 type  3   force =    -0.00621665   -0.00065490    0.00136745
     atom   43 type  3   force =    -0.00624272    0.00064010    0.00151553
     atom   44 type  3   force =     0.00621665    0.00065490   -0.00136745
     atom   45 type  1   force =    -0.05562530   -0.06370232    0.01955683
     atom   46 type  1   force =     0.05525606   -0.06415280   -0.01945852
     atom   47 type  1   force =     0.05562530    0.06370232   -0.01955683
     atom   48 type  1   force =    -0.05525606    0.06415280    0.01945852
     atom   49 type  3   force =     0.00247510   -0.00156654    0.00202312
     atom   50 type  3   force =    -0.00242925   -0.00139831   -0.00204287
     atom   51 type  3   force =    -0.00247510    0.00156654   -0.00202312
     atom   52 type  3   force =     0.00242925    0.00139831    0.00204287
     atom   53 type  1   force =     0.06420760   -0.04008044   -0.00308688
     atom   54 type  1   force =    -0.06446025   -0.04027561    0.00249033
     atom   55 type  1   force =    -0.06420760    0.04008044    0.00308688
     atom   56 type  1   force =     0.06446025    0.04027561   -0.00249033
     atom   57 type  1   force =     0.02057942   -0.03731327    0.00215183
     atom   58 type  1   force =    -0.02068253   -0.03738279   -0.00225618
     atom   59 type  1   force =    -0.02057942    0.03731327   -0.00215183
     atom   60 type  1   force =     0.02068253    0.03738279    0.00225618
     atom   61 type  3   force =    -0.00267842    0.00045763   -0.00256067
     atom   62 type  3   force =     0.00263722    0.00050537    0.00262575
     atom   63 type  3   force =     0.00267842   -0.00045763    0.00256067
     atom   64 type  3   force =    -0.00263722   -0.00050537   -0.00262575
     atom   65 type  3   force =    -0.03178174   -0.02419509    0.00294696
     atom   66 type  3   force =     0.03196098   -0.02421481   -0.00292959
     atom   67 type  3   force =     0.03178174    0.02419509   -0.00294696
     atom   68 type  3   force =    -0.03196098    0.02421481    0.00292959
     atom   69 type  3   force =    -0.00244334    0.00088222    0.00198664
     atom   70 type  3   force =     0.00244954    0.00082485   -0.00195880
     atom   71 type  3   force =     0.00244334   -0.00088222   -0.00198664
     atom   72 type  3   force =    -0.00244954   -0.00082485    0.00195880
     atom   73 type  1   force =     0.04376947   -0.03726409   -0.03292952
     atom   74 type  1   force =    -0.04377807   -0.03700865    0.03274547
     atom   75 type  1   force =    -0.04376947    0.03726409    0.03292952
     atom   76 type  1   force =     0.04377807    0.03700865   -0.03274547
     atom   77 type  1   force =    -0.03240486   -0.05447747    0.01683947
     atom   78 type  1   force =     0.03258706   -0.05426507   -0.01719751
     atom   79 type  1   force =     0.03240486    0.05447747   -0.01683947
     atom   80 type  1   force =    -0.03258706    0.05426507    0.01719751
     atom   81 type  3   force =     0.00350659   -0.00057497   -0.00305770
     atom   82 type  3   force =    -0.00360431   -0.00071077    0.00306951
     atom   83 type  3   force =    -0.00350659    0.00057497    0.00305770
     atom   84 type  3   force =     0.00360431    0.00071077   -0.00306951
     atom   85 type  1   force =     0.02600963   -0.03242769   -0.00339865
     atom   86 type  1   force =    -0.02587066   -0.03238089    0.00372031
     atom   87 type  1   force =    -0.02600963    0.03242769    0.00339865
     atom   88 type  1   force =     0.02587066    0.03238089   -0.00372031
     atom   89 type  1   force =     0.01735016   -0.02756970   -0.02675552
     atom   90 type  1   force =    -0.01728098   -0.02740562    0.02640994
     atom   91 type  1   force =    -0.01735016    0.02756970    0.02675552
     atom   92 type  1   force =     0.01728098    0.02740562   -0.02640994
     atom   93 type  1   force =     0.06046737    0.00204503   -0.02263364
     atom   94 type  1   force =    -0.06019823    0.00229408    0.02262857
     atom   95 type  1   force =    -0.06046737   -0.00204503    0.02263364
     atom   96 type  1   force =     0.06019823   -0.00229408   -0.02262857
     atom   97 type  3   force =    -0.00123834   -0.00833786    0.00270843
     atom   98 type  3   force =     0.00119279   -0.00837195   -0.00277941
     atom   99 type  3   force =     0.00123834    0.00833786   -0.00270843
     atom  100 type  3   force =    -0.00119279    0.00837195    0.00277941
     atom  101 type  1   force =    -0.03548979    0.01491341    0.03821638
     atom  102 type  1   force =     0.03554558    0.01474063   -0.03777896
     atom  103 type  1   force =     0.03548979   -0.01491341   -0.03821638
     atom  104 type  1   force =    -0.03554558   -0.01474063    0.03777896
     atom  105 type  3   force =     0.00749024   -0.00565592    0.00564109
     atom  106 type  3   force =    -0.00754728   -0.00557756   -0.00574790
     atom  107 type  3   force =    -0.00749024    0.00565592   -0.00564109
     atom  108 type  3   force =     0.00754728    0.00557756    0.00574790
     atom  109 type  1   force =     0.03504452   -0.01159374    0.03762512
     atom  110 type  1   force =    -0.03518277   -0.01167904   -0.03770562
     atom  111 type  1   force =    -0.03504452    0.01159374   -0.03762512
     atom  112 type  1   force =     0.03518277    0.01167904    0.03770562
     atom  113 type  3   force =    -0.00716483    0.00711469    0.00546493
     atom  114 type  3   force =     0.00716192    0.00717684   -0.00542750
     atom  115 type  3   force =     0.00716483   -0.00711469   -0.00546493
     atom  116 type  3   force =    -0.00716192   -0.00717684    0.00542750
     atom  117 type  1   force =    -0.06041739   -0.00489688   -0.02253069
     atom  118 type  1   force =     0.06023203   -0.00513446    0.02257650
     atom  119 type  1   force =     0.06041739    0.00489688    0.02253069
     atom  120 type  1   force =    -0.06023203    0.00513446   -0.02257650
     atom  121 type  3   force =     0.00086487    0.00974994    0.00181224
     atom  122 type  3   force =    -0.00078246    0.00991549   -0.00172240
     atom  123 type  3   force =    -0.00086487   -0.00974994   -0.00181224
     atom  124 type  3   force =     0.00078246   -0.00991549    0.00172240
     atom  125 type  1   force =    -0.01680600    0.02602959   -0.02667650
     atom  126 type  1   force =     0.01677384    0.02592341    0.02661130
     atom  127 type  1   force =     0.01680600   -0.02602959    0.02667650
     atom  128 type  1   force =    -0.01677384   -0.02592341   -0.02661130
     atom  129 type  1   force =    -0.02573288    0.03180534    0.00093085
     atom  130 type  1   force =     0.02542308    0.03168373   -0.00056988
     atom  131 type  1   force =     0.02573288   -0.03180534   -0.00093085
     atom  132 type  1   force =    -0.02542308   -0.03168373    0.00056988
     atom  133 type  1   force =     0.02945428    0.05656105    0.01301278
     atom  134 type  1   force =    -0.02936558    0.05665670   -0.01340662
     atom  135 type  1   force =    -0.02945428   -0.05656105   -0.01301278
     atom  136 type  1   force =     0.02936558   -0.05665670    0.01340662
     atom  137 type  3   force =    -0.00193258    0.00009514   -0.00198637
     atom  138 type  3   force =     0.00197111    0.00015275    0.00199674
     atom  139 type  3   force =     0.00193258   -0.00009514    0.00198637
     atom  140 type  3   force =    -0.00197111   -0.00015275   -0.00199674
     atom  141 type  1   force =    -0.02643875    0.03924765   -0.02347003
     atom  142 type  1   force =     0.02638576    0.03922476    0.02400866
     atom  143 type  1   force =     0.02643875   -0.03924765    0.02347003
     atom  144 type  1   force =    -0.02638576   -0.03922476   -0.02400866
     atom  145 type  1   force =    -0.05548949    0.03766129   -0.00276681
     atom  146 type  1   force =     0.05562756    0.03791711    0.00288743
     atom  147 type  1   force =     0.05548949   -0.03766129    0.00276681
     atom  148 type  1   force =    -0.05562756   -0.03791711   -0.00288743
     atom  149 type  3   force =     0.00289652   -0.00111825   -0.00307228
     atom  150 type  3   force =    -0.00287098   -0.00105503    0.00293395
     atom  151 type  3   force =    -0.00289652    0.00111825    0.00307228
     atom  152 type  3   force =     0.00287098    0.00105503   -0.00293395
     atom  153 type  3   force =     0.06032095    0.02830188   -0.00054409
     atom  154 type  3   force =    -0.06043126    0.02825135    0.00056062
     atom  155 type  3   force =    -0.06032095   -0.02830188    0.00054409
     atom  156 type  3   force =     0.06043126   -0.02825135   -0.00056062
     atom  157 type  3   force =     0.00316812    0.00004090    0.00213884
     atom  158 type  3   force =    -0.00316612    0.00003685   -0.00213541
     atom  159 type  3   force =    -0.00316812   -0.00004090   -0.00213884
     atom  160 type  3   force =     0.00316612   -0.00003685    0.00213541

     Total force =     0.610193     Total SCF correction =     0.000173


     Computing stress (Cartesian axis) and pressure

          total   stress  (Ry/bohr**3)                   (kbar)     P=   54.30
   0.00062392   0.00000006   0.00001342         91.78      0.01      1.97
   0.00000006   0.00031489  -0.00000031          0.01     46.32     -0.05
   0.00001342  -0.00000031   0.00016855          1.97     -0.05     24.79


     Writing output data file scf.save
 
     init_run     :    119.74s CPU    123.44s WALL (       1 calls)
     electrons    :   5153.38s CPU   5308.92s WALL (       1 calls)
     forces       :     60.26s CPU     60.70s WALL (       1 calls)
     stress       :    282.86s CPU    283.58s WALL (       1 calls)

     Called by init_run:
     wfcinit      :    102.89s CPU    106.23s WALL (       1 calls)
     potinit      :      5.82s CPU      5.90s WALL (       1 calls)

     Called by electrons:
     c_bands      :   4721.42s CPU   4852.95s WALL (      20 calls)
     sum_band     :    402.04s CPU    422.52s WALL (      20 calls)
     v_of_rho     :      3.76s CPU      4.18s WALL (      21 calls)
     newd         :     12.60s CPU     15.63s WALL (      21 calls)
     PAW_pot      :     12.71s CPU     12.71s WALL (      21 calls)
     mix_rho      :      0.93s CPU      1.01s WALL (      20 calls)

     Called by c_bands:
     init_us_2    :     17.43s CPU     17.51s WALL (     258 calls)
     cegterg      :   4649.13s CPU   4780.57s WALL (     120 calls)

     Called by sum_band:
     sum_band:bec :      0.19s CPU      0.20s WALL (     120 calls)
     addusdens    :     12.76s CPU     15.69s WALL (      20 calls)

     Called by *egterg:
     h_psi        :   2220.41s CPU   2326.42s WALL (     725 calls)
     s_psi        :    672.16s CPU    672.16s WALL (     725 calls)
     g_psi        :      8.96s CPU      8.96s WALL (     599 calls)
     cdiaghg      :    265.12s CPU    265.18s WALL (     719 calls)

     Called by h_psi:
     h_psi:pot    :   2208.44s CPU   2314.28s WALL (     725 calls)
     h_psi:calbec :    652.72s CPU    653.41s WALL (     725 calls)
     vloc_psi     :    883.27s CPU    988.39s WALL (     725 calls)
     add_vuspsi   :    672.45s CPU    672.47s WALL (     725 calls)

     General routines
     calbec       :    922.17s CPU    923.18s WALL (     875 calls)
     fft          :      2.49s CPU      3.27s WALL (     297 calls)
     fftw         :    932.23s CPU   1054.21s WALL (  231878 calls)
 
     Parallel routines
     fft_scatter  :    181.95s CPU    302.94s WALL (  232175 calls)
 
     PWSCF        :     1h33m CPU        1h37m WALL

 
   This run was terminated on:   7:31:52   4Nov2017            

=------------------------------------------------------------------------------=
   JOB DONE.
=------------------------------------------------------------------------------=
