
     Program PWSCF v.6.1 (svn rev. 13369) starts on  5Jan2018 at 21: 2:32 

     This program is part of the open-source Quantum ESPRESSO suite
     for quantum simulation of materials; please cite
         "P. Giannozzi et al., J. Phys.:Condens. Matter 21 395502 (2009);
          URL http://www.quantum-espresso.org", 
     in publications or presentations arising from this work. More details at
     http://www.quantum-espresso.org/quote

     Parallel version (MPI), running on     8 processors
     R & G space division:  proc/nbgrp/npool/nimage =       8
     Waiting for input...
     Reading input from standard input

     Current dimensions of program PWSCF are:
     Max number of different atomic species (ntypx) = 10
     Max number of k-points (npk) =  40000
     Max angular momentum in pseudopotentials (lmaxx) =  3
               file C.pbe-n-kjpaw_psl.0.1.UPF: wavefunction(s)  2P renormalized
               file N.pbe-n-kjpaw_psl.0.1.UPF: wavefunction(s)  2P renormalized
               file H.pbe-kjpaw_psl.0.1.UPF: wavefunction(s)  1S renormalized
               file O.pbe-n-kjpaw_psl.0.1.UPF: wavefunction(s)  2P renormalized

     -------------------------------------
     Parameters for Dispersion Correction:
     -------------------------------------
       atom      VdW radius       C_6     

        C          2.744         60.710
        N          2.640         42.670
        H          1.892          4.857
        O          2.536         24.284

     Subspace diagonalization in iterative solution of the eigenvalue problem:
     a serial algorithm will be used

 
     Parallelization info
     --------------------
     sticks:   dense  smooth     PW     G-vecs:    dense   smooth      PW
     Min        1401    1401    365               223884   223884   29721
     Max        1402    1402    368               223889   223889   29724
     Sum       11211   11211   2923              1791093  1791093  237775
 


     bravais-lattice index     =            0
     lattice parameter (alat)  =      28.2816  a.u.
     unit-cell volume          =   13257.8485 (a.u.)^3
     number of atoms/cell      =          200
     number of atomic types    =            4
     number of electrons       =       680.00
     number of Kohn-Sham states=          408
     kinetic-energy cutoff     =     100.0000  Ry
     charge density cutoff     =     400.0000  Ry
     convergence threshold     =      1.0E-08
     mixing beta               =       0.5000
     number of iterations used =            8  plain     mixing
     Exchange-correlation      =  SLA  PW   PBX  PBC ( 1  4  3  4 0 0)

     celldm(1)=  28.281641  celldm(2)=   0.000000  celldm(3)=   0.000000
     celldm(4)=   0.000000  celldm(5)=   0.000000  celldm(6)=   0.000000

     crystal axes: (cart. coord. in units of alat)
               a(1) = (   1.000000   0.000000   0.000000 )  
               a(2) = (   0.000000   0.440599   0.000000 )  
               a(3) = (  -0.400850   0.000000   1.330197 )  

     reciprocal axes: (cart. coord. in units 2 pi/alat)
               b(1) = (  1.000000  0.000000  0.301347 )  
               b(2) = (  0.000000  2.269639  0.000000 )  
               b(3) = (  0.000000  0.000000  0.751768 )  


     PseudoPot. # 1 for  C read from file:
     /scratch/ahofstet/pseudo/C.pbe-n-kjpaw_psl.0.1.UPF
     MD5 check sum: 430fe95172b1e11ef3f8ed03bac87931
     Pseudo is Projector augmented-wave + core cor, Zval =  4.0
     Generated using "atomic" code by A. Dal Corso  v.5.0.99 svn rev. 10869
     Shape of augmentation charge: BESSEL
     Using radial grid of 1073 points,  4 beta functions with: 
                l(1) =   0
                l(2) =   0
                l(3) =   1
                l(4) =   1
     Q(r) pseudized with 0 coefficients 


     PseudoPot. # 2 for  N read from file:
     /scratch/ahofstet/pseudo/N.pbe-n-kjpaw_psl.0.1.UPF
     MD5 check sum: f73187c8b701007e77325f868c9291d7
     Pseudo is Projector augmented-wave + core cor, Zval =  5.0
     Generated using "atomic" code by A. Dal Corso  v.5.0.99 svn rev. 10869
     Shape of augmentation charge: PSQ
     Using radial grid of 1085 points,  4 beta functions with: 
                l(1) =   0
                l(2) =   0
                l(3) =   1
                l(4) =   1
     Q(r) pseudized with 0 coefficients 


     PseudoPot. # 3 for  H read from file:
     /scratch/ahofstet/pseudo/H.pbe-kjpaw_psl.0.1.UPF
     MD5 check sum: 94e484f906d9e9773b2f6e52662335b2
     Pseudo is Projector augmented-wave, Zval =  1.0
     Generated using "atomic" code by A. Dal Corso  v.5.0.99 svn rev. 10869
     Shape of augmentation charge: PSQ
     Using radial grid of  929 points,  2 beta functions with: 
                l(1) =   0
                l(2) =   0
     Q(r) pseudized with 0 coefficients 


     PseudoPot. # 4 for  O read from file:
     /scratch/ahofstet/pseudo/O.pbe-n-kjpaw_psl.0.1.UPF
     MD5 check sum: 3f94a2996a3169367d6eb21d9b593f20
     Pseudo is Projector augmented-wave + core cor, Zval =  6.0
     Generated using "atomic" code by A. Dal Corso  v.5.0.99 svn rev. 10869
     Shape of augmentation charge: BESSEL
     Using radial grid of 1095 points,  4 beta functions with: 
                l(1) =   0
                l(2) =   0
                l(3) =   1
                l(4) =   1
     Q(r) pseudized with 0 coefficients 


     atomic species   valence    mass     pseudopotential
        C              4.00    12.01070      C( 1.00)
        N              5.00    14.00670      N( 1.00)
        H              1.00     1.00794      H( 1.00)
        O              6.00    15.99940      O( 1.00)

      4 Sym. Ops., with inversion, found ( 2 have fractional translation)



   Cartesian axes

     site n.     atom                  positions (alat units)
         1           C   tau(   1) = (   0.0463374   0.1422653   0.3341530  )
         2           C   tau(   2) = (   0.7532374   0.3625647   0.3309456  )
         3           C   tau(   3) = (   0.5528122   0.2983334   0.9960442  )
         4           C   tau(   4) = (  -0.1540878   0.0780340   0.9992516  )
         5           C   tau(   5) = (   0.1569859   0.2520698   0.3705192  )
         6           C   tau(   6) = (   0.6425889   0.0317705   0.2945794  )
         7           C   tau(   7) = (   0.4421638   0.1885289   0.9596780  )
         8           C   tau(   8) = (  -0.0434393   0.4088282   1.0356178  )
         9           C   tau(   9) = (   0.1087344   0.2636484   0.5342028  )
        10           C   tau(  10) = (   0.6908404   0.0433491   0.1308958  )
        11           C   tau(  11) = (   0.4904152   0.1769502   0.7959944  )
        12           C   tau(  12) = (  -0.0916907   0.3972496   1.1993014  )
        13           C   tau(  13) = (   0.1685761   0.3500001   0.6702328  )
        14           C   tau(  14) = (   0.2301484   0.1297007   1.3250629  )
        15           C   tau(  15) = (   0.4305736   0.0905986   0.6599643  )
        16           C   tau(  16) = (   0.3690013   0.3108980   0.0051343  )
        17           C   tau(  17) = (   0.0938833  -0.0031480   0.7964748  )
        18           C   tau(  18) = (   0.3048412   0.2171513   1.1988210  )
        19           C   tau(  19) = (   0.5052664   0.4437467   0.5337224  )
        20           C   tau(  20) = (   0.2943084   0.2234474   0.1313762  )
        21           C   tau(  21) = (   0.2335113   0.0171476   0.8723318  )
        22           C   tau(  22) = (   0.1652132   0.2374469   1.1229639  )
        23           C   tau(  23) = (   0.3656383   0.4234511   0.4578653  )
        24           C   tau(  24) = (   0.4339365   0.2031518   0.2072332  )
        25           C   tau(  25) = (   0.0279947   0.0602879   0.2799765  )
        26           C   tau(  26) = (   0.7715802   0.2805873   0.3851221  )
        27           C   tau(  27) = (   0.5711550   0.3803108   1.0502207  )
        28           C   tau(  28) = (  -0.1724305   0.1600114   0.9450751  )
        29           C   tau(  29) = (   0.2776546   0.4553695   0.9622569  )
        30           C   tau(  30) = (   0.1210698   0.2350702   1.0330389  )
        31           C   tau(  31) = (   0.3214950  -0.0147709   0.3679403  )
        32           C   tau(  32) = (   0.4780798   0.2055285   0.2971583  )
        33           N   tau(  33) = (   0.1748746   0.2453283   0.4648976  )
        34           N   tau(  34) = (   0.6247002   0.0250289   0.2002010  )
        35           N   tau(  35) = (   0.4242750   0.1952704   0.8652996  )
        36           N   tau(  36) = (  -0.0255506   0.4155698   1.1299962  )
        37           N   tau(  37) = (   0.2556483   0.2077872   0.4913875  )
        38           N   tau(  38) = (   0.5439265  -0.0125121   0.1737111  )
        39           N   tau(  39) = (   0.3435014   0.2328115   0.8388097  )
        40           N   tau(  40) = (   0.0552231   0.4531108   1.1564861  )
        41           N   tau(  41) = (   0.1236019   0.3461228   0.5840071  )
        42           N   tau(  42) = (   0.6759729   0.1258235   0.0810915  )
        43           N   tau(  43) = (   0.4755477   0.0944759   0.7461901  )
        44           N   tau(  44) = (  -0.0768233   0.3147752   1.2491057  )
        45           N   tau(  45) = (   0.1059274   0.4264537   0.5417015  )
        46           N   tau(  46) = (   0.6936474   0.2061543   0.1233971  )
        47           N   tau(  47) = (   0.4932222   0.0141450   0.7884957  )
        48           N   tau(  48) = (  -0.0944978   0.2344444   1.2068001  )
        49           N   tau(  49) = (   0.1075576   0.3566257   0.7457949  )
        50           N   tau(  50) = (   0.2911669   0.1363264   1.2495009  )
        51           N   tau(  51) = (   0.4915921   0.0839729   0.5844023  )
        52           N   tau(  52) = (   0.3079827   0.3042723   0.0806963  )
        53           N   tau(  53) = (   0.0773241   0.2767778   0.7837788  )
        54           N   tau(  54) = (   0.3214004   0.0564784   1.2115169  )
        55           N   tau(  55) = (   0.5218256   0.1638209   0.5464183  )
        56           N   tau(  56) = (   0.2777493   0.3841202   0.1186802  )
        57           O   tau(  57) = (   0.1342361   0.1675986   0.3290593  )
        58           O   tau(  58) = (   0.6653388   0.3878980   0.3360393  )
        59           O   tau(  59) = (   0.4649136   0.2730001   1.0011379  )
        60           O   tau(  60) = (  -0.0661891   0.0527007   0.9941578  )
        61           O   tau(  61) = (   0.3097452   0.1888153   0.4321857  )
        62           O   tau(  62) = (   0.4898296   0.4091146   0.2329129  )
        63           O   tau(  63) = (   0.2894045   0.2517834   0.8980115  )
        64           O   tau(  64) = (   0.1093200   0.0314841   1.0972843  )
        65           O   tau(  65) = (   0.2669408   0.1968284   0.5721515  )
        66           O   tau(  66) = (   0.5326340   0.4171277   0.0929471  )
        67           O   tau(  67) = (   0.3322088   0.2437703   0.7580457  )
        68           O   tau(  68) = (   0.0665157   0.0234710   1.2372501  )
        69           O   tau(  69) = (   0.0799298   0.4232499   0.4633066  )
        70           O   tau(  70) = (   0.7196451   0.2029505   0.2017920  )
        71           O   tau(  71) = (   0.5192199   0.0173488   0.8668905  )
        72           O   tau(  72) = (  -0.1204954   0.2376482   1.1284052  )
        73           O   tau(  73) = (   0.1169440   0.0553921   0.5854901  )
        74           O   tau(  74) = (   0.6826308   0.2756915   0.0796085  )
        75           O   tau(  75) = (   0.4822057   0.3852066   0.7447071  )
        76           O   tau(  76) = (  -0.0834812   0.1649072   1.2505887  )
        77           O   tau(  77) = (   0.1007710   0.2063850   0.7470476  )
        78           O   tau(  78) = (   0.2979535  -0.0139143   1.2482482  )
        79           O   tau(  79) = (   0.4983787   0.2342137   0.5831496  )
        80           O   tau(  80) = (   0.3011961   0.4545130   0.0819490  )
        81           O   tau(  81) = (   0.0293057   0.2825442   0.8504579  )
        82           O   tau(  82) = (   0.3694187   0.0622449   1.1448379  )
        83           O   tau(  83) = (   0.5698439   0.1580544   0.4797393  )
        84           O   tau(  84) = (   0.2297309   0.3783538   0.1853593  )
        85           O   tau(  85) = (   0.1446360  -0.0030013   0.8789462  )
        86           O   tau(  86) = (   0.2540884   0.2172980   1.1163495  )
        87           O   tau(  87) = (   0.4545136   0.4436000   0.4512509  )
        88           O   tau(  88) = (   0.3450612   0.2233007   0.2138477  )
        89           O   tau(  89) = (  -0.0092567   0.1848450   0.3757951  )
        90           O   tau(  90) = (   0.8088316   0.4051444   0.2893035  )
        91           O   tau(  91) = (   0.6084064   0.2557537   0.9544021  )
        92           O   tau(  92) = (  -0.2096819   0.0354543   1.0408937  )
        93           O   tau(  93) = (   0.2700209   0.0355573   0.8019807  )
        94           O   tau(  94) = (   0.1287036   0.2558567   1.1933151  )
        95           O   tau(  95) = (   0.3291287   0.4050413   0.5282165  )
        96           O   tau(  96) = (   0.4704461   0.1847420   0.1368821  )
        97           C   tau(  97) = (  -0.1136636   0.4291426   0.5851527  )
        98           C   tau(  98) = (   0.9132384   0.2088432   0.0799459  )
        99           C   tau(  99) = (   0.7128132   0.0114561   0.7450445  )
       100           C   tau( 100) = (  -0.3140888   0.2317555   1.2502513  )
       101           C   tau( 101) = (   0.8682364   0.0700109   0.5281831  )
       102           C   tau( 102) = (  -0.0686616   0.2903102   0.1369155  )
       103           C   tau( 103) = (  -0.2690867   0.3705878   0.8020141  )
       104           C   tau( 104) = (   0.6678112   0.1502885   1.1932817  )
       105           C   tau( 105) = (  -0.1432156   0.1448055   0.5963456  )
       106           C   tau( 106) = (   0.9427904   0.3651048   0.0687529  )
       107           C   tau( 107) = (   0.7423652   0.2957932   0.7338515  )
       108           C   tau( 108) = (  -0.3436408   0.0754939   1.2614442  )
       109           C   tau( 109) = (  -0.0871396   0.1111436   0.6749083  )
       110           C   tau( 110) = (   0.8867145   0.3314429  -0.0098097  )
       111           C   tau( 111) = (   0.6862893   0.3294551   0.6552889  )
       112           C   tau( 112) = (  -0.2875648   0.1091558   1.3400069  )
       113           O   tau( 113) = (  -0.0902004   0.0133128   0.6694090  )
       114           O   tau( 114) = (   0.8897753   0.2336121  -0.0043104  )
       115           O   tau( 115) = (   0.6893501   0.4272859   0.6607882  )
       116           O   tau( 116) = (  -0.2906256   0.2069866   1.3345076  )
       117           O   tau( 117) = (  -0.1163898   0.3507540   0.5631903  )
       118           O   tau( 118) = (   0.9159647   0.1304546   0.1019083  )
       119           O   tau( 119) = (   0.7155395   0.0898447   0.7670069  )
       120           O   tau( 120) = (  -0.3168150   0.3101441   1.2282889  )
       121           H   tau( 121) = (   0.2170246   0.2738682   0.3352239  )
       122           H   tau( 122) = (   0.5825503   0.0535689   0.3298747  )
       123           H   tau( 123) = (   0.3821251   0.1667305   0.9949733  )
       124           H   tau( 124) = (   0.0165994   0.3870298   1.0003225  )
       125           H   tau( 125) = (   0.1019680   0.2997037   0.3633198  )
       126           H   tau( 126) = (   0.6976068   0.0794044   0.3017788  )
       127           H   tau( 127) = (   0.4971817   0.1408950   0.9668774  )
       128           H   tau( 128) = (  -0.0984572   0.3611943   1.0284184  )
       129           H   tau( 129) = (   0.1091707   0.2090154   0.5833468  )
       130           H   tau( 130) = (   0.6904041   0.4293147   0.0817518  )
       131           H   tau( 131) = (   0.4899790   0.2315833   0.7468504  )
       132           H   tau( 132) = (  -0.0912545   0.0112840   1.2484454  )
       133           H   tau( 133) = (   0.0437925   0.2665923   0.5004535  )
       134           H   tau( 134) = (   0.7557823   0.0462930   0.1646450  )
       135           H   tau( 135) = (   0.5553572   0.1740064   0.8297436  )
       136           H   tau( 136) = (  -0.1566327   0.3943057   1.1655521  )
       137           H   tau( 137) = (   0.2121697   0.4085542   0.6726919  )
       138           H   tau( 138) = (   0.1865548   0.1882548   1.3226038  )
       139           H   tau( 139) = (   0.3869800   0.0320445   0.6575052  )
       140           H   tau( 140) = (   0.4125948   0.2523439   0.0075933  )
       141           H   tau( 141) = (   0.2086505   0.2893997   0.6763448  )
       142           H   tau( 142) = (   0.1900739   0.0691004   1.3189509  )
       143           H   tau( 143) = (   0.3904991   0.1511990   0.6538524  )
       144           H   tau( 144) = (   0.4090757   0.3714983   0.0112462  )
       145           H   tau( 145) = (   0.1129122   0.0535468   0.7538421  )
       146           H   tau( 146) = (   0.2858123   0.2738461   1.2414537  )
       147           H   tau( 147) = (   0.4862375   0.3870519   0.5763551  )
       148           H   tau( 148) = (   0.3133373   0.1667526   0.0887435  )
       149           H   tau( 149) = (   0.0241245   0.0021863   0.8174774  )
       150           H   tau( 150) = (   0.3746000   0.2224856   1.1778183  )
       151           H   tau( 151) = (   0.5750252   0.4384124   0.5127197  )
       152           H   tau( 152) = (   0.2245496   0.2181131   0.1523789  )
       153           H   tau( 153) = (  -0.0203851   0.0179585   0.3152073  )
       154           H   tau( 154) = (   0.8199600   0.2382579   0.3498913  )
       155           H   tau( 155) = (   0.6195348   0.4226402   1.0149899  )
       156           H   tau( 156) = (  -0.2208103   0.2023408   0.9803059  )
       157           H   tau( 157) = (   0.0892840   0.0235293   0.2642444  )
       158           H   tau( 158) = (   0.7102908   0.2438286   0.4008542  )
       159           H   tau( 159) = (   0.5098656   0.4170694   1.0659528  )
       160           H   tau( 160) = (  -0.1111412   0.1967700   0.9293430  )
       161           H   tau( 161) = (  -0.0043930   0.0819560   0.2175213  )
       162           H   tau( 162) = (   0.8039678   0.3022553   0.4475773  )
       163           H   tau( 163) = (   0.6035426   0.3586427   1.1126759  )
       164           H   tau( 164) = (  -0.2048181   0.1383434   0.8826198  )
       165           H   tau( 165) = (   0.3501917   0.4510110   0.9540172  )
       166           H   tau( 166) = (   0.0485327   0.2307117   1.0412786  )
       167           H   tau( 167) = (   0.2489579  -0.0104123   0.3761800  )
       168           H   tau( 168) = (   0.5506169   0.2098870   0.2889186  )
       169           H   tau( 169) = (   0.2539212   0.3985890   1.0018289  )
       170           H   tau( 170) = (   0.1448032   0.1782896   0.9934668  )
       171           H   tau( 171) = (   0.3452284   0.0420097   0.3283683  )
       172           H   tau( 172) = (   0.4543464   0.2623091   0.3367303  )
       173           H   tau( 173) = (   0.2607036   0.0757903   0.9994421  )
       174           H   tau( 174) = (   0.1380209   0.2960896   0.9958537  )
       175           H   tau( 175) = (   0.3384461   0.3648084   0.3307551  )
       176           H   tau( 176) = (   0.4611287   0.1445091   0.3343435  )
       177           H   tau( 177) = (   0.8104026   0.0584719   0.4846332  )
       178           H   tau( 178) = (  -0.0108277   0.2787712   0.1804654  )
       179           H   tau( 179) = (  -0.2112529   0.3821268   0.8455640  )
       180           H   tau( 180) = (   0.6099774   0.1618275   1.1497318  )
       181           H   tau( 181) = (  -0.0732497   0.0800153   0.4846412  )
       182           H   tau( 182) = (   0.8728245   0.3003147   0.1804574  )
       183           H   tau( 183) = (   0.6723993   0.3605834   0.8455560  )
       184           H   tau( 184) = (  -0.2736748   0.1402840   1.1497398  )
       185           H   tau( 185) = (  -0.1205540   0.2107587   0.5734702  )
       186           H   tau( 186) = (   0.9201288   0.4310581   0.0916284  )
       187           H   tau( 187) = (   0.7197036   0.2298400   0.7567270  )
       188           H   tau( 188) = (  -0.3209791   0.0095406   1.2385688  )
       189           H   tau( 189) = (   0.7865319   0.1494216   0.6171056  )
       190           H   tau( 190) = (   0.0130429   0.3697209   0.0479930  )
       191           H   tau( 191) = (  -0.1873823   0.2911771   0.7130916  )
       192           H   tau( 192) = (   0.5861067   0.0708778   1.2822042  )
       193           H   tau( 193) = (  -0.1137200   0.1297380   0.7405005  )
       194           H   tau( 194) = (   0.5124445   0.3500373   1.2547953  )
       195           H   tau( 195) = (   0.7128697   0.3108607   0.5896967  )
       196           H   tau( 196) = (   0.0867052   0.0905614   0.0754019  )
       197           H   tau( 197) = (  -0.0166026   0.1305594   0.6700075  )
       198           H   tau( 198) = (   0.8161774   0.3508587  -0.0049089  )
       199           H   tau( 199) = (   0.6157522   0.3100393   0.6601897  )
       200           H   tau( 200) = (  -0.2170278   0.0897400   1.3351061  )

     number of k points=     4
                       cart. coord. in units 2pi/alat
        k(    1) = (   0.0000000   0.0000000   0.0000000), wk =   0.3333333
        k(    2) = (   0.0000000   0.7565464   0.0000000), wk =   0.6666667
        k(    3) = (  -0.5000000   0.0000000  -0.1506733), wk =   0.3333333
        k(    4) = (  -0.5000000   0.7565464  -0.1506733), wk =   0.6666667

     Dense  grid:  1791093 G-vectors     FFT dimensions: ( 192,  80, 256)

     Estimated max dynamical RAM per process >    2965.09MB

     Estimated total allocated dynamical RAM >   23720.71MB

     Check: negative/imaginary core charge=   -0.000002    0.000000

     Initial potential from superposition of free atoms

     starting charge  679.99699, renormalised to  680.00000
     Starting wfc are  560 randomized atomic wfcs
     Checking if some PAW data can be deallocated... 

     total cpu time spent up to now is      176.1 secs

     per-process dynamical memory:  1574.3 Mb

     Self-consistent Calculation

     iteration #  1     ecut=   100.00 Ry     beta=0.50
     Davidson diagonalization with overlap
     ethr =  1.00E-02,  avg # of iterations =  3.5

     total cpu time spent up to now is      760.7 secs

     total energy              =   -3650.13702325 Ry
     Harris-Foulkes estimate   =   -3661.30674042 Ry
     estimated scf accuracy    <      20.63730003 Ry

     iteration #  2     ecut=   100.00 Ry     beta=0.50
     Davidson diagonalization with overlap
     ethr =  3.03E-03,  avg # of iterations =  4.0

     total cpu time spent up to now is     1140.9 secs

     total energy              =   -3653.26733726 Ry
     Harris-Foulkes estimate   =   -3655.54796143 Ry
     estimated scf accuracy    <       4.80558220 Ry

     iteration #  3     ecut=   100.00 Ry     beta=0.50
     Davidson diagonalization with overlap
     ethr =  7.07E-04,  avg # of iterations =  6.8

     total cpu time spent up to now is     1659.0 secs

     total energy              =   -3654.59601237 Ry
     Harris-Foulkes estimate   =   -3655.11552880 Ry
     estimated scf accuracy    <       1.28419529 Ry

     iteration #  4     ecut=   100.00 Ry     beta=0.50
     Davidson diagonalization with overlap
     ethr =  1.89E-04,  avg # of iterations =  2.2

     total cpu time spent up to now is     1944.8 secs

     total energy              =   -3654.69088929 Ry
     Harris-Foulkes estimate   =   -3654.79888733 Ry
     estimated scf accuracy    <       0.25168849 Ry

     iteration #  5     ecut=   100.00 Ry     beta=0.50
     Davidson diagonalization with overlap
     ethr =  3.70E-05,  avg # of iterations =  8.8

     total cpu time spent up to now is     2508.9 secs

     total energy              =   -3654.77350458 Ry
     Harris-Foulkes estimate   =   -3654.83893182 Ry
     estimated scf accuracy    <       0.19118477 Ry

     iteration #  6     ecut=   100.00 Ry     beta=0.50
     Davidson diagonalization with overlap
     ethr =  2.81E-05,  avg # of iterations =  3.0

     total cpu time spent up to now is     2798.0 secs

     total energy              =   -3654.79107748 Ry
     Harris-Foulkes estimate   =   -3654.80612081 Ry
     estimated scf accuracy    <       0.04509243 Ry

     iteration #  7     ecut=   100.00 Ry     beta=0.50
     Davidson diagonalization with overlap
     ethr =  6.63E-06,  avg # of iterations = 13.0

     total cpu time spent up to now is     3216.9 secs

     total energy              =   -3654.79738325 Ry
     Harris-Foulkes estimate   =   -3654.79979654 Ry
     estimated scf accuracy    <       0.00510061 Ry

     iteration #  8     ecut=   100.00 Ry     beta=0.50
     Davidson diagonalization with overlap
     ethr =  7.50E-07,  avg # of iterations =  7.8

     total cpu time spent up to now is     3739.8 secs

     total energy              =   -3654.79915318 Ry
     Harris-Foulkes estimate   =   -3654.79937662 Ry
     estimated scf accuracy    <       0.00084768 Ry

     iteration #  9     ecut=   100.00 Ry     beta=0.50
     Davidson diagonalization with overlap
     ethr =  1.25E-07,  avg # of iterations =  4.0

     total cpu time spent up to now is     4030.3 secs

     total energy              =   -3654.79915670 Ry
     Harris-Foulkes estimate   =   -3654.79928337 Ry
     estimated scf accuracy    <       0.00032125 Ry

     iteration # 10     ecut=   100.00 Ry     beta=0.50
     Davidson diagonalization with overlap
     ethr =  4.72E-08,  avg # of iterations =  3.0

     total cpu time spent up to now is     4386.1 secs

     total energy              =   -3654.79921941 Ry
     Harris-Foulkes estimate   =   -3654.79923378 Ry
     estimated scf accuracy    <       0.00003316 Ry

     iteration # 11     ecut=   100.00 Ry     beta=0.50
     Davidson diagonalization with overlap
     ethr =  4.88E-09,  avg # of iterations =  4.0

     total cpu time spent up to now is     4844.2 secs

     total energy              =   -3654.79922856 Ry
     Harris-Foulkes estimate   =   -3654.79923936 Ry
     estimated scf accuracy    <       0.00002570 Ry

     iteration # 12     ecut=   100.00 Ry     beta=0.50
     Davidson diagonalization with overlap
     ethr =  3.78E-09,  avg # of iterations =  2.0

     total cpu time spent up to now is     5119.6 secs

     total energy              =   -3654.79922969 Ry
     Harris-Foulkes estimate   =   -3654.79923153 Ry
     estimated scf accuracy    <       0.00000534 Ry

     iteration # 13     ecut=   100.00 Ry     beta=0.50
     Davidson diagonalization with overlap
     ethr =  7.85E-10,  avg # of iterations =  4.0

     total cpu time spent up to now is     5584.9 secs

     total energy              =   -3654.79923281 Ry
     Harris-Foulkes estimate   =   -3654.79923301 Ry
     estimated scf accuracy    <       0.00000069 Ry

     iteration # 14     ecut=   100.00 Ry     beta=0.50
     Davidson diagonalization with overlap
     ethr =  1.02E-10,  avg # of iterations =  2.2

     total cpu time spent up to now is     5856.6 secs

     total energy              =   -3654.79923275 Ry
     Harris-Foulkes estimate   =   -3654.79923286 Ry
     estimated scf accuracy    <       0.00000026 Ry

     iteration # 15     ecut=   100.00 Ry     beta=0.50
     Davidson diagonalization with overlap
     ethr =  3.87E-11,  avg # of iterations =  4.0

     total cpu time spent up to now is     6281.0 secs

     total energy              =   -3654.79923285 Ry
     Harris-Foulkes estimate   =   -3654.79923286 Ry
     estimated scf accuracy    <       0.00000002 Ry

     iteration # 16     ecut=   100.00 Ry     beta=0.50
     Davidson diagonalization with overlap
     ethr =  3.43E-12,  avg # of iterations =  2.0

     total cpu time spent up to now is     6576.7 secs

     End of self-consistent calculation

          k = 0.0000 0.0000 0.0000 (223835 PWs)   bands (ev):

   -25.0939 -25.0937 -25.0901 -25.0900 -25.0495 -25.0492 -25.0437 -25.0435
   -25.0181 -25.0180 -25.0132 -25.0130 -21.4032 -21.4026 -21.4011 -21.4003
   -21.3204 -21.3201 -21.3191 -21.3189 -21.2961 -21.2959 -21.2143 -21.2142
   -20.4116 -20.4115 -20.4102 -20.4098 -20.3768 -20.3768 -20.3766 -20.3765
   -20.3503 -20.3502 -20.3388 -20.3387 -19.2966 -19.2950 -19.2839 -19.2825
   -19.2189 -19.2186 -19.1881 -19.1874 -19.1860 -19.1801 -19.1795 -19.1784
   -18.8608 -18.8585 -18.8525 -18.8509 -18.1955 -18.1946 -18.1877 -18.1859
   -17.5925 -17.5925 -17.5895 -17.5886 -13.3649 -13.3648 -13.3648 -13.3648
   -13.0212 -13.0127 -13.0077 -13.0057 -12.9896 -12.9529 -12.9517 -12.9408
   -12.8837 -12.8831 -12.8802 -12.8746 -12.8335 -12.8251 -12.8048 -12.8000
   -11.7615 -11.7264 -11.6749 -11.6552 -11.6109 -11.5920 -11.5829 -11.5681
   -11.5524 -11.5205 -11.5092 -11.5063 -10.2036 -10.1934 -10.1560 -10.1496
    -9.3493  -9.3390  -9.3055  -9.3031  -8.9489  -8.9464  -8.7443  -8.7423
    -8.5732  -8.5648  -8.5577  -8.4854  -8.1795  -8.1508  -8.1329  -8.1072
    -8.0991  -8.0807  -8.0153  -8.0129  -7.8552  -7.8325  -7.8286  -7.8110
    -7.7851  -7.7767  -7.7636  -7.7490  -7.7228  -7.7112  -7.6505  -7.6432
    -7.4189  -7.3991  -7.3907  -7.3805  -7.3503  -7.3470  -7.3146  -7.3083
    -7.1756  -7.1587  -7.1289  -7.1275  -6.8952  -6.8691  -6.7938  -6.7612
    -6.7088  -6.6797  -6.6685  -6.6273  -6.6070  -6.5883  -6.5566  -6.5397
    -6.4827  -6.4655  -6.4032  -6.3901  -6.3004  -6.2958  -6.1150  -6.1117
    -6.0615  -6.0584  -6.0577  -5.9692  -5.8838  -5.8633  -5.8532  -5.8416
    -5.8027  -5.7971  -5.7840  -5.7809  -5.7680  -5.7590  -5.7376  -5.7197
    -5.7071  -5.6688  -5.6528  -5.6429  -5.6204  -5.5964  -5.5869  -5.5807
    -5.5158  -5.5063  -5.5037  -5.4890  -5.4226  -5.3872  -5.3861  -5.3827
    -4.8768  -4.8650  -4.7622  -4.7559  -4.7487  -4.7087  -4.6144  -4.6088
    -4.5429  -4.5101  -4.4950  -4.4907  -4.3485  -4.3480  -4.2636  -4.2545
    -4.2106  -4.1966  -4.1963  -4.1683  -4.1059  -4.0713  -3.9981  -3.9806
    -3.9792  -3.9258  -3.9050  -3.8810  -3.7989  -3.7004  -3.6906  -3.6816
    -3.6035  -3.5654  -3.5598  -3.5195  -3.4243  -3.4232  -3.3571  -3.3405
    -3.3314  -3.3189  -3.2161  -3.2151  -3.1772  -3.1748  -3.0612  -3.0532
    -2.9894  -2.9724  -2.8018  -2.7647  -2.6625  -2.6550  -2.6131  -2.5973
    -2.5532  -2.5112  -2.4797  -2.4463  -2.4371  -2.4326  -2.4118  -2.3661
    -2.3531  -2.3497  -2.3355  -2.3300  -2.1096  -2.0952  -2.0672  -2.0551
    -1.9190  -1.9120  -1.8987  -1.8961  -1.8439  -1.8375  -1.8089  -1.7998
    -1.7392  -1.7279  -1.6908  -1.6829  -1.6800  -1.6687  -1.5812  -1.5625
    -1.5434  -1.5224  -1.5207  -1.5135  -1.4885  -1.4868  -1.4817  -1.4706
    -1.3225  -1.3190  -1.3132  -1.3129  -1.2920  -1.2807  -1.2694  -1.2598
    -1.2166  -1.1850  -1.1636  -1.1567  -1.0345  -1.0309  -0.9733  -0.9622
    -0.9136  -0.8902  -0.8387  -0.8195  -0.7601  -0.7482  -0.7362  -0.7145
    -0.6834  -0.6809  -0.6712  -0.6623  -0.6346  -0.5834  -0.5786  -0.5396
    -0.4928  -0.4659  -0.4423  -0.4255  -0.4107  -0.4062  -0.3502  -0.3367
    -0.2000  -0.1994  -0.1638  -0.1479  -0.1365  -0.1238  -0.0981  -0.0952
    -0.0538  -0.0373  -0.0257  -0.0050   3.5221   3.5340   3.5347   3.5485
     3.6240   3.6282   3.6581   3.6743   3.7866   3.7936   3.8054   3.8434
     5.0553   5.0662   5.1990   5.2129   5.2262   5.2693   5.2842   5.3026
     5.3090   5.3936   5.4453   5.4815   6.0727   6.3841   6.4222   6.6484
     6.6855   6.8677   7.0519   7.2172   7.2783   7.3139   7.4387   7.4703
     7.5396   7.5439   7.5597   7.5865   7.6016   7.6621   7.7140   7.7240
     7.8370   7.8472   7.9189   7.9268   7.9594   8.0036   8.0568   8.0999
     8.1231   8.2170   8.2241   8.2864   8.3230   8.3607   8.3744   8.4490
     8.4510   8.4637   8.5230   8.5281   8.5335   8.5583   8.5773   8.6161

          k = 0.0000 0.7565 0.0000 (223952 PWs)   bands (ev):

   -25.0874 -25.0873 -25.0843 -25.0843 -25.0477 -25.0475 -25.0424 -25.0424
   -25.0248 -25.0248 -25.0198 -25.0197 -21.4051 -21.4044 -21.4040 -21.4033
   -21.3198 -21.3196 -21.3192 -21.3190 -21.2943 -21.2942 -21.2129 -21.2129
   -20.4089 -20.4089 -20.4078 -20.4076 -20.3846 -20.3845 -20.3838 -20.3837
   -20.3469 -20.3468 -20.3358 -20.3357 -19.2982 -19.2974 -19.2845 -19.2838
   -19.2227 -19.2226 -19.1881 -19.1877 -19.1843 -19.1826 -19.1806 -19.1788
   -18.8704 -18.8699 -18.8539 -18.8537 -18.1963 -18.1959 -18.1855 -18.1847
   -17.5915 -17.5911 -17.5894 -17.5894 -13.4223 -13.4221 -13.3273 -13.3271
   -12.9791 -12.9771 -12.9729 -12.9511 -12.9488 -12.9452 -12.9221 -12.9175
   -12.8811 -12.8696 -12.8562 -12.8550 -12.8238 -12.8198 -12.8047 -12.8016
   -11.7148 -11.6813 -11.6735 -11.6506 -11.5948 -11.5814 -11.5486 -11.5400
   -11.5294 -11.5120 -11.4988 -11.4954 -10.2055 -10.2040 -10.1702 -10.1588
    -9.3477  -9.3380  -9.3124  -9.3109  -8.8940  -8.8886  -8.7787  -8.7715
    -8.6725  -8.6603  -8.6432  -8.6008  -8.2445  -8.2256  -8.2048  -8.1885
    -8.1657  -8.1289  -8.1218  -8.1020  -7.8861  -7.8760  -7.8580  -7.8531
    -7.8180  -7.8165  -7.7561  -7.7427  -7.6982  -7.6936  -7.6719  -7.6651
    -7.4665  -7.4549  -7.3987  -7.3961  -7.2501  -7.2473  -7.2275  -7.2250
    -7.1575  -7.1394  -7.1257  -7.1048  -6.9124  -6.8939  -6.8416  -6.8222
    -6.8073  -6.7824  -6.7637  -6.7514  -6.7048  -6.6990  -6.5714  -6.5678
    -6.4657  -6.4644  -6.4403  -6.4228  -6.2872  -6.2773  -6.1074  -6.0999
    -5.9760  -5.9349  -5.9291  -5.9009  -5.8937  -5.8698  -5.8462  -5.8443
    -5.8199  -5.7905  -5.7740  -5.7624  -5.7324  -5.7182  -5.7028  -5.6995
    -5.6779  -5.6391  -5.6151  -5.6021  -5.5746  -5.5475  -5.5342  -5.5289
    -5.5025  -5.4947  -5.4594  -5.4417  -5.4168  -5.3926  -5.3242  -5.3214
    -5.0225  -5.0185  -4.8815  -4.8631  -4.8006  -4.7722  -4.6691  -4.6549
    -4.6329  -4.6327  -4.6184  -4.6004  -4.3329  -4.3176  -4.2876  -4.2826
    -4.2144  -4.2022  -4.1691  -4.1597  -4.1427  -4.1254  -3.9991  -3.9744
    -3.9626  -3.9373  -3.8942  -3.8434  -3.8091  -3.8046  -3.7036  -3.6863
    -3.6490  -3.6168  -3.5657  -3.5454  -3.3738  -3.3537  -3.3062  -3.2958
    -3.1978  -3.1878  -3.1821  -3.1630  -3.0637  -3.0438  -3.0382  -3.0124
    -2.9275  -2.9100  -2.8339  -2.7947  -2.6063  -2.6058  -2.5808  -2.5732
    -2.5342  -2.4837  -2.4779  -2.4511  -2.4474  -2.4434  -2.4296  -2.4086
    -2.4004  -2.3680  -2.3528  -2.3393  -2.0703  -2.0667  -2.0433  -2.0386
    -1.8829  -1.8791  -1.8475  -1.8353  -1.8264  -1.8140  -1.7891  -1.7713
    -1.7460  -1.7352  -1.6785  -1.6768  -1.5918  -1.5910  -1.5607  -1.5589
    -1.5320  -1.5283  -1.5244  -1.5221  -1.5098  -1.5004  -1.4735  -1.4723
    -1.3197  -1.3120  -1.3096  -1.2944  -1.2205  -1.2198  -1.2059  -1.2004
    -1.1797  -1.1772  -1.1603  -1.1595  -0.9973  -0.9884  -0.9496  -0.9454
    -0.8784  -0.8659  -0.8318  -0.8234  -0.7710  -0.7631  -0.6915  -0.6649
    -0.6553  -0.6467  -0.6050  -0.5982  -0.5842  -0.5794  -0.5473  -0.5469
    -0.4768  -0.4705  -0.4520  -0.4507  -0.4087  -0.4013  -0.3627  -0.3588
    -0.1693  -0.1422  -0.1304  -0.0990  -0.0748  -0.0634  -0.0525  -0.0442
     0.0386   0.0528   0.0731   0.0937   3.5290   3.5303   3.5414   3.5550
     3.5894   3.5898   3.6141   3.6271   3.8079   3.8132   3.8315   3.8523
     5.1115   5.1137   5.1978   5.2265   5.2364   5.2585   5.2620   5.2848
     5.3263   5.3911   5.3968   5.4409   6.2295   6.3863   6.5815   6.6955
     6.8177   6.8828   6.9486   7.0123   7.0180   7.1969   7.2274   7.3109
     7.3393   7.4098   7.4118   7.5233   7.5433   7.5782   7.6310   7.6743
     7.7064   7.7145   7.7568   7.8321   7.9060   7.9337   8.0064   8.0292
     8.0382   8.0646   8.1121   8.1588   8.2515   8.2769   8.2933   8.2934
     8.3421   8.3597   8.4365   8.5110   8.5243   8.5501   8.5653   8.5937

          k =-0.5000 0.0000-0.1507 (223882 PWs)   bands (ev):

   -25.0939 -25.0937 -25.0901 -25.0900 -25.0495 -25.0492 -25.0437 -25.0435
   -25.0181 -25.0180 -25.0132 -25.0130 -21.4032 -21.4026 -21.4010 -21.4004
   -21.3202 -21.3201 -21.3191 -21.3190 -21.2961 -21.2959 -21.2143 -21.2142
   -20.4116 -20.4116 -20.4101 -20.4098 -20.3768 -20.3768 -20.3766 -20.3765
   -20.3502 -20.3502 -20.3388 -20.3387 -19.2968 -19.2948 -19.2838 -19.2826
   -19.2189 -19.2186 -19.1897 -19.1851 -19.1841 -19.1835 -19.1793 -19.1777
   -18.8604 -18.8589 -18.8529 -18.8505 -18.1956 -18.1945 -18.1876 -18.1860
   -17.5925 -17.5925 -17.5895 -17.5887 -13.3649 -13.3648 -13.3648 -13.3648
   -13.0221 -13.0106 -13.0099 -13.0041 -12.9898 -12.9529 -12.9528 -12.9404
   -12.8823 -12.8822 -12.8813 -12.8761 -12.8296 -12.8287 -12.8037 -12.8009
   -11.7597 -11.7290 -11.6741 -11.6622 -11.6085 -11.5811 -11.5688 -11.5668
   -11.5590 -11.5488 -11.5050 -11.4975 -10.2062 -10.1906 -10.1590 -10.1467
    -9.3557  -9.3328  -9.3114  -9.2972  -8.9491  -8.9462  -8.7430  -8.7429
    -8.5702  -8.5647  -8.5532  -8.4977  -8.1707  -8.1386  -8.1347  -8.1116
    -8.1101  -8.0810  -8.0153  -8.0133  -7.8522  -7.8356  -7.8314  -7.8096
    -7.7852  -7.7763  -7.7655  -7.7496  -7.7175  -7.7102  -7.6518  -7.6430
    -7.4117  -7.4048  -7.3878  -7.3851  -7.3504  -7.3486  -7.3139  -7.3093
    -7.1724  -7.1553  -7.1343  -7.1296  -6.8851  -6.8702  -6.7949  -6.7670
    -6.7171  -6.6916  -6.6565  -6.6159  -6.6087  -6.5892  -6.5591  -6.5408
    -6.4823  -6.4646  -6.4048  -6.3892  -6.2914  -6.2883  -6.1129  -6.1102
    -6.0883  -6.0622  -6.0422  -5.9731  -5.8882  -5.8658  -5.8645  -5.8424
    -5.7972  -5.7852  -5.7818  -5.7761  -5.7598  -5.7588  -5.7254  -5.7248
    -5.6865  -5.6761  -5.6669  -5.6610  -5.6191  -5.6036  -5.6015  -5.5751
    -5.5164  -5.4916  -5.4911  -5.4886  -5.4564  -5.4497  -5.3554  -5.3253
    -4.8721  -4.8653  -4.7750  -4.7493  -4.7371  -4.7218  -4.6402  -4.5815
    -4.5266  -4.5207  -4.5158  -4.4718  -4.3329  -4.3267  -4.3118  -4.2777
    -4.2160  -4.1845  -4.1590  -4.1561  -4.1452  -4.0758  -3.9860  -3.9758
    -3.9691  -3.9344  -3.8995  -3.8783  -3.8033  -3.7131  -3.6886  -3.6618
    -3.6532  -3.5508  -3.5440  -3.5211  -3.4248  -3.4214  -3.3444  -3.3440
    -3.3305  -3.3293  -3.2233  -3.2172  -3.1736  -3.1698  -3.0642  -3.0520
    -2.9678  -2.9548  -2.8270  -2.7806  -2.6531  -2.6515  -2.6360  -2.6054
    -2.5613  -2.4598  -2.4557  -2.4521  -2.4514  -2.4374  -2.4066  -2.3993
    -2.3708  -2.3300  -2.3277  -2.3250  -2.1108  -2.0943  -2.0651  -2.0538
    -1.9284  -1.9205  -1.8952  -1.8782  -1.8502  -1.8286  -1.8217  -1.8047
    -1.7244  -1.7112  -1.7039  -1.6997  -1.6457  -1.6415  -1.6270  -1.6239
    -1.5309  -1.5246  -1.5190  -1.5167  -1.5042  -1.4668  -1.4630  -1.4514
    -1.3206  -1.3196  -1.3137  -1.3127  -1.2926  -1.2820  -1.2691  -1.2585
    -1.1957  -1.1808  -1.1759  -1.1648  -1.0388  -1.0378  -0.9664  -0.9618
    -0.9056  -0.8763  -0.8333  -0.8161  -0.7979  -0.7969  -0.7229  -0.7201
    -0.6882  -0.6781  -0.6388  -0.6350  -0.6251  -0.5969  -0.5642  -0.5590
    -0.4920  -0.4663  -0.4402  -0.4278  -0.4159  -0.3994  -0.3591  -0.3327
    -0.2138  -0.1806  -0.1598  -0.1534  -0.1363  -0.1247  -0.1081  -0.0882
    -0.0477  -0.0385  -0.0282  -0.0070   3.5253   3.5300   3.5383   3.5452
     3.6240   3.6291   3.6574   3.6739   3.7872   3.7930   3.8065   3.8429
     5.0557   5.0661   5.1985   5.2109   5.2255   5.2736   5.2807   5.3036
     5.3086   5.3974   5.4440   5.4866   6.0907   6.3959   6.4260   6.4584
     6.7908   6.8894   7.0676   7.2136   7.2271   7.3707   7.3762   7.4911
     7.5277   7.5743   7.5957   7.6373   7.6422   7.6910   7.7365   7.7685
     7.8089   7.8840   7.9020   7.9161   7.9367   7.9482   8.0943   8.0997
     8.1437   8.1474   8.1495   8.2172   8.2341   8.2871   8.3388   8.4345
     8.4755   8.4960   8.5035   8.5229   8.5611   8.6421   8.6568   8.6831

          k =-0.5000 0.7565-0.1507 (223890 PWs)   bands (ev):

   -25.0874 -25.0873 -25.0843 -25.0843 -25.0477 -25.0475 -25.0424 -25.0424
   -25.0248 -25.0248 -25.0198 -25.0197 -21.4051 -21.4044 -21.4040 -21.4033
   -21.3197 -21.3196 -21.3192 -21.3191 -21.2943 -21.2942 -21.2129 -21.2129
   -20.4089 -20.4089 -20.4078 -20.4076 -20.3846 -20.3845 -20.3838 -20.3837
   -20.3469 -20.3468 -20.3358 -20.3358 -19.2983 -19.2973 -19.2844 -19.2839
   -19.2227 -19.2226 -19.1890 -19.1877 -19.1823 -19.1823 -19.1811 -19.1797
   -18.8702 -18.8701 -18.8540 -18.8535 -18.1963 -18.1959 -18.1855 -18.1847
   -17.5914 -17.5911 -17.5894 -17.5894 -13.4223 -13.4221 -13.3272 -13.3271
   -12.9796 -12.9767 -12.9729 -12.9509 -12.9495 -12.9445 -12.9224 -12.9174
   -12.8793 -12.8713 -12.8578 -12.8534 -12.8236 -12.8201 -12.8057 -12.8006
   -11.7142 -11.6806 -11.6747 -11.6521 -11.5913 -11.5770 -11.5566 -11.5421
   -11.5235 -11.5193 -11.4999 -11.4894 -10.2053 -10.2042 -10.1719 -10.1573
    -9.3509  -9.3353  -9.3157  -9.3071  -8.8945  -8.8879  -8.7798  -8.7711
    -8.6723  -8.6621  -8.6284  -8.6140  -8.2470  -8.2220  -8.2013  -8.1905
    -8.1655  -8.1311  -8.1212  -8.1021  -7.8876  -7.8755  -7.8566  -7.8535
    -7.8198  -7.8185  -7.7577  -7.7396  -7.6998  -7.6922  -7.6719  -7.6635
    -7.4593  -7.4523  -7.4042  -7.4002  -7.2524  -7.2524  -7.2253  -7.2229
    -7.1608  -7.1366  -7.1227  -7.1046  -6.9016  -6.8972  -6.8526  -6.8344
    -6.8032  -6.7676  -6.7673  -6.7466  -6.7020  -6.7007  -6.5688  -6.5675
    -6.4811  -6.4649  -6.4374  -6.4318  -6.2706  -6.2682  -6.1094  -6.1049
    -5.9895  -5.9407  -5.9171  -5.9049  -5.8855  -5.8713  -5.8504  -5.8349
    -5.8212  -5.7904  -5.7747  -5.7495  -5.7406  -5.7347  -5.6977  -5.6913
    -5.6648  -5.6504  -5.6288  -5.6049  -5.5681  -5.5418  -5.5413  -5.5262
    -5.5002  -5.4931  -5.4707  -5.4413  -5.4179  -5.3861  -5.3450  -5.2977
    -5.0216  -5.0163  -4.8827  -4.8634  -4.7979  -4.7709  -4.6719  -4.6579
    -4.6317  -4.6303  -4.6131  -4.6100  -4.3366  -4.3106  -4.2988  -4.2857
    -4.1991  -4.1853  -4.1799  -4.1750  -4.1371  -4.1135  -4.0180  -3.9777
    -3.9602  -3.9380  -3.8847  -3.8351  -3.8143  -3.8086  -3.6979  -3.6852
    -3.6648  -3.6006  -3.5672  -3.5418  -3.3612  -3.3512  -3.3130  -3.3115
    -3.2037  -3.2030  -3.1705  -3.1600  -3.0772  -3.0510  -3.0327  -3.0138
    -2.9178  -2.8961  -2.8273  -2.8004  -2.6094  -2.5974  -2.5959  -2.5662
    -2.5193  -2.4847  -2.4828  -2.4649  -2.4574  -2.4362  -2.4238  -2.4208
    -2.3800  -2.3787  -2.3475  -2.3371  -2.0707  -2.0669  -2.0439  -2.0387
    -1.8743  -1.8542  -1.8536  -1.8423  -1.8277  -1.8099  -1.8089  -1.7961
    -1.7414  -1.7379  -1.6501  -1.6461  -1.6315  -1.6270  -1.5566  -1.5473
    -1.5323  -1.5283  -1.5183  -1.5162  -1.5020  -1.4973  -1.4758  -1.4733
    -1.3231  -1.3146  -1.3100  -1.2939  -1.2183  -1.2167  -1.2066  -1.1996
    -1.1760  -1.1747  -1.1644  -1.1570  -0.9938  -0.9888  -0.9561  -0.9451
    -0.8854  -0.8560  -0.8374  -0.8295  -0.7793  -0.7551  -0.6759  -0.6679
    -0.6557  -0.6478  -0.6049  -0.5967  -0.5802  -0.5756  -0.5628  -0.5447
    -0.4759  -0.4691  -0.4525  -0.4490  -0.4106  -0.4093  -0.3646  -0.3523
    -0.1689  -0.1419  -0.1316  -0.0956  -0.0743  -0.0625  -0.0519  -0.0464
     0.0389   0.0530   0.0729   0.0927   3.5305   3.5336   3.5387   3.5551
     3.5893   3.5905   3.6126   3.6241   3.8084   3.8131   3.8324   3.8525
     5.1106   5.1137   5.1979   5.2282   5.2351   5.2459   5.2769   5.2832
     5.3260   5.3941   5.3960   5.4408   6.2236   6.3944   6.6033   6.6757
     6.7633   6.8251   6.9407   7.0475   7.1148   7.1572   7.1838   7.3768
     7.3863   7.4367   7.4444   7.5256   7.5373   7.5754   7.6148   7.6620
     7.6642   7.7272   7.7877   7.8493   7.8806   7.9018   7.9232   8.0158
     8.0691   8.0693   8.1294   8.1315   8.2435   8.2580   8.2687   8.3464
     8.3607   8.4072   8.4416   8.4509   8.5372   8.5985   8.6053   8.6070

     highest occupied, lowest unoccupied level (ev):     0.0937    3.5221

!    total energy              =   -3654.79923285 Ry
     Harris-Foulkes estimate   =   -3654.79923285 Ry
     estimated scf accuracy    <          8.4E-09 Ry

     total all-electron energy =    -13603.297817 Ry

     The total energy is the sum of the following terms:

     one-electron contribution =   -2480.86210400 Ry
     hartree contribution      =    1502.34598548 Ry
     xc contribution           =    -740.64637006 Ry
     ewald contribution        =    -959.98273996 Ry
     Dispersion Correction     =      -0.83621710 Ry
     one-center paw contrib.   =    -974.81778721 Ry

     convergence has been achieved in  16 iterations

     Forces acting on atoms (cartesian axes, Ry/au):

     atom    1 type  1   force =    -0.00126492    0.00131741    0.00177456
     atom    2 type  1   force =     0.00126492    0.00131741   -0.00177456
     atom    3 type  1   force =     0.00126492   -0.00131741   -0.00177456
     atom    4 type  1   force =    -0.00126492   -0.00131741    0.00177456
     atom    5 type  1   force =     0.00005024   -0.00074432   -0.00036270
     atom    6 type  1   force =    -0.00005024   -0.00074432    0.00036270
     atom    7 type  1   force =    -0.00005024    0.00074432    0.00036270
     atom    8 type  1   force =     0.00005024    0.00074432   -0.00036270
     atom    9 type  1   force =    -0.00040521   -0.00088621    0.00130574
     atom   10 type  1   force =     0.00040521   -0.00088621   -0.00130574
     atom   11 type  1   force =     0.00040521    0.00088621   -0.00130574
     atom   12 type  1   force =    -0.00040521    0.00088621    0.00130574
     atom   13 type  1   force =    -0.00004882   -0.00013800    0.00009258
     atom   14 type  1   force =     0.00004882   -0.00013800   -0.00009258
     atom   15 type  1   force =     0.00004882    0.00013800   -0.00009258
     atom   16 type  1   force =    -0.00004882    0.00013800    0.00009258
     atom   17 type  1   force =     0.00137634    0.00269880   -0.00169698
     atom   18 type  1   force =    -0.00137634    0.00269880    0.00169698
     atom   19 type  1   force =    -0.00137634   -0.00269880    0.00169698
     atom   20 type  1   force =     0.00137634   -0.00269880   -0.00169698
     atom   21 type  1   force =     0.00051293   -0.00001185    0.00075904
     atom   22 type  1   force =    -0.00051293   -0.00001185   -0.00075904
     atom   23 type  1   force =    -0.00051293    0.00001185   -0.00075904
     atom   24 type  1   force =     0.00051293    0.00001185    0.00075904
     atom   25 type  1   force =    -0.00030835   -0.00051287    0.00115434
     atom   26 type  1   force =     0.00030835   -0.00051287   -0.00115434
     atom   27 type  1   force =     0.00030835    0.00051287   -0.00115434
     atom   28 type  1   force =    -0.00030835    0.00051287    0.00115434
     atom   29 type  1   force =     0.00012420   -0.00084120   -0.00101574
     atom   30 type  1   force =    -0.00012420   -0.00084120    0.00101574
     atom   31 type  1   force =    -0.00012420    0.00084120    0.00101574
     atom   32 type  1   force =     0.00012420    0.00084120   -0.00101574
     atom   33 type  2   force =    -0.00230397   -0.00114999    0.00025921
     atom   34 type  2   force =     0.00230397   -0.00114999   -0.00025921
     atom   35 type  2   force =     0.00230397    0.00114999   -0.00025921
     atom   36 type  2   force =    -0.00230397    0.00114999    0.00025921
     atom   37 type  2   force =    -0.00013133   -0.00044723    0.00118964
     atom   38 type  2   force =     0.00013133   -0.00044723   -0.00118964
     atom   39 type  2   force =     0.00013133    0.00044723   -0.00118964
     atom   40 type  2   force =    -0.00013133    0.00044723    0.00118964
     atom   41 type  2   force =     0.00223717    0.00783398   -0.00327244
     atom   42 type  2   force =    -0.00223717    0.00783398    0.00327244
     atom   43 type  2   force =    -0.00223717   -0.00783398    0.00327244
     atom   44 type  2   force =     0.00223717   -0.00783398   -0.00327244
     atom   45 type  2   force =     0.00281120   -0.00377560    0.00661914
     atom   46 type  2   force =    -0.00281120   -0.00377560   -0.00661914
     atom   47 type  2   force =    -0.00281120    0.00377560   -0.00661914
     atom   48 type  2   force =     0.00281120    0.00377560    0.00661914
     atom   49 type  2   force =     0.00035430   -0.00723313    0.00445612
     atom   50 type  2   force =    -0.00035430   -0.00723313   -0.00445612
     atom   51 type  2   force =    -0.00035430    0.00723313   -0.00445612
     atom   52 type  2   force =     0.00035430    0.00723313    0.00445612
     atom   53 type  2   force =     0.00410804    0.00411893   -0.00573148
     atom   54 type  2   force =    -0.00410804    0.00411893    0.00573148
     atom   55 type  2   force =    -0.00410804   -0.00411893    0.00573148
     atom   56 type  2   force =     0.00410804   -0.00411893   -0.00573148
     atom   57 type  4   force =     0.00014977   -0.00000356   -0.00063925
     atom   58 type  4   force =    -0.00014977   -0.00000356    0.00063925
     atom   59 type  4   force =    -0.00014977    0.00000356    0.00063925
     atom   60 type  4   force =     0.00014977    0.00000356   -0.00063925
     atom   61 type  4   force =     0.00141293   -0.00036033   -0.00152262
     atom   62 type  4   force =    -0.00141293   -0.00036033    0.00152262
     atom   63 type  4   force =    -0.00141293    0.00036033    0.00152262
     atom   64 type  4   force =     0.00141293    0.00036033   -0.00152262
     atom   65 type  4   force =    -0.00010154    0.00119853   -0.00039421
     atom   66 type  4   force =     0.00010154    0.00119853    0.00039421
     atom   67 type  4   force =     0.00010154   -0.00119853    0.00039421
     atom   68 type  4   force =    -0.00010154   -0.00119853   -0.00039421
     atom   69 type  4   force =    -0.00004751   -0.00100361   -0.00002275
     atom   70 type  4   force =     0.00004751   -0.00100361    0.00002275
     atom   71 type  4   force =     0.00004751    0.00100361    0.00002275
     atom   72 type  4   force =    -0.00004751    0.00100361   -0.00002275
     atom   73 type  4   force =    -0.00340040   -0.00929689   -0.00233582
     atom   74 type  4   force =     0.00340040   -0.00929689    0.00233582
     atom   75 type  4   force =     0.00340040    0.00929689    0.00233582
     atom   76 type  4   force =    -0.00340040    0.00929689   -0.00233582
     atom   77 type  4   force =    -0.00582423    0.00901193    0.00123912
     atom   78 type  4   force =     0.00582423    0.00901193   -0.00123912
     atom   79 type  4   force =     0.00582423   -0.00901193   -0.00123912
     atom   80 type  4   force =    -0.00582423   -0.00901193    0.00123912
     atom   81 type  4   force =    -0.00137318    0.00048465   -0.00056327
     atom   82 type  4   force =     0.00137318    0.00048465    0.00056327
     atom   83 type  4   force =     0.00137318   -0.00048465    0.00056327
     atom   84 type  4   force =    -0.00137318   -0.00048465   -0.00056327
     atom   85 type  4   force =     0.00003260    0.00081555   -0.00073091
     atom   86 type  4   force =    -0.00003260    0.00081555    0.00073091
     atom   87 type  4   force =    -0.00003260   -0.00081555    0.00073091
     atom   88 type  4   force =     0.00003260   -0.00081555   -0.00073091
     atom   89 type  4   force =     0.00042159   -0.00083590    0.00000982
     atom   90 type  4   force =    -0.00042159   -0.00083590   -0.00000982
     atom   91 type  4   force =    -0.00042159    0.00083590   -0.00000982
     atom   92 type  4   force =     0.00042159    0.00083590    0.00000982
     atom   93 type  4   force =     0.00138494   -0.00044303   -0.00020523
     atom   94 type  4   force =    -0.00138494   -0.00044303    0.00020523
     atom   95 type  4   force =    -0.00138494    0.00044303    0.00020523
     atom   96 type  4   force =     0.00138494    0.00044303   -0.00020523
     atom   97 type  1   force =     0.00013615   -0.00337193   -0.00667463
     atom   98 type  1   force =    -0.00013615   -0.00337193    0.00667463
     atom   99 type  1   force =    -0.00013615    0.00337193    0.00667463
     atom  100 type  1   force =     0.00013615    0.00337193   -0.00667463
     atom  101 type  1   force =    -0.00016148   -0.00394108    0.00077478
     atom  102 type  1   force =     0.00016148   -0.00394108   -0.00077478
     atom  103 type  1   force =     0.00016148    0.00394108   -0.00077478
     atom  104 type  1   force =    -0.00016148    0.00394108    0.00077478
     atom  105 type  1   force =     0.00083158    0.00465621    0.00229237
     atom  106 type  1   force =    -0.00083158    0.00465621   -0.00229237
     atom  107 type  1   force =    -0.00083158   -0.00465621   -0.00229237
     atom  108 type  1   force =     0.00083158   -0.00465621    0.00229237
     atom  109 type  1   force =    -0.00170089    0.00063677   -0.00042064
     atom  110 type  1   force =     0.00170089    0.00063677    0.00042064
     atom  111 type  1   force =     0.00170089   -0.00063677    0.00042064
     atom  112 type  1   force =    -0.00170089   -0.00063677   -0.00042064
     atom  113 type  4   force =    -0.00112647   -0.00010118   -0.00334610
     atom  114 type  4   force =     0.00112647   -0.00010118    0.00334610
     atom  115 type  4   force =     0.00112647    0.00010118    0.00334610
     atom  116 type  4   force =    -0.00112647    0.00010118   -0.00334610
     atom  117 type  4   force =     0.00445826    0.00932397    0.00672705
     atom  118 type  4   force =    -0.00445826    0.00932397   -0.00672705
     atom  119 type  4   force =    -0.00445826   -0.00932397   -0.00672705
     atom  120 type  4   force =     0.00445826   -0.00932397    0.00672705
     atom  121 type  3   force =    -0.00011068    0.00035967   -0.00026685
     atom  122 type  3   force =     0.00011068    0.00035967    0.00026685
     atom  123 type  3   force =     0.00011068   -0.00035967    0.00026685
     atom  124 type  3   force =    -0.00011068   -0.00035967   -0.00026685
     atom  125 type  3   force =    -0.00001429   -0.00018711   -0.00039195
     atom  126 type  3   force =     0.00001429   -0.00018711    0.00039195
     atom  127 type  3   force =     0.00001429    0.00018711    0.00039195
     atom  128 type  3   force =    -0.00001429    0.00018711   -0.00039195
     atom  129 type  3   force =     0.00000029    0.00831819   -0.00378197
     atom  130 type  3   force =    -0.00000029    0.00831819    0.00378197
     atom  131 type  3   force =    -0.00000029   -0.00831819    0.00378197
     atom  132 type  3   force =     0.00000029   -0.00831819   -0.00378197
     atom  133 type  3   force =     0.00081873    0.00043340   -0.00043102
     atom  134 type  3   force =    -0.00081873    0.00043340    0.00043102
     atom  135 type  3   force =    -0.00081873   -0.00043340    0.00043102
     atom  136 type  3   force =     0.00081873   -0.00043340   -0.00043102
     atom  137 type  3   force =    -0.00027366   -0.00000587   -0.00045261
     atom  138 type  3   force =     0.00027366   -0.00000587    0.00045261
     atom  139 type  3   force =     0.00027366    0.00000587    0.00045261
     atom  140 type  3   force =    -0.00027366    0.00000587   -0.00045261
     atom  141 type  3   force =     0.00026241   -0.00004406    0.00002850
     atom  142 type  3   force =    -0.00026241   -0.00004406   -0.00002850
     atom  143 type  3   force =    -0.00026241    0.00004406   -0.00002850
     atom  144 type  3   force =     0.00026241    0.00004406    0.00002850
     atom  145 type  3   force =     0.00035208   -0.00885384    0.00308213
     atom  146 type  3   force =    -0.00035208   -0.00885384   -0.00308213
     atom  147 type  3   force =    -0.00035208    0.00885384   -0.00308213
     atom  148 type  3   force =     0.00035208    0.00885384    0.00308213
     atom  149 type  3   force =     0.00059540   -0.00057817    0.00087578
     atom  150 type  3   force =    -0.00059540   -0.00057817   -0.00087578
     atom  151 type  3   force =    -0.00059540    0.00057817   -0.00087578
     atom  152 type  3   force =     0.00059540    0.00057817    0.00087578
     atom  153 type  3   force =     0.00043051    0.00059225   -0.00025281
     atom  154 type  3   force =    -0.00043051    0.00059225    0.00025281
     atom  155 type  3   force =    -0.00043051   -0.00059225    0.00025281
     atom  156 type  3   force =     0.00043051   -0.00059225   -0.00025281
     atom  157 type  3   force =     0.00124749   -0.00033660   -0.00010955
     atom  158 type  3   force =    -0.00124749   -0.00033660    0.00010955
     atom  159 type  3   force =    -0.00124749    0.00033660    0.00010955
     atom  160 type  3   force =     0.00124749    0.00033660   -0.00010955
     atom  161 type  3   force =    -0.00024674    0.00029085   -0.00067400
     atom  162 type  3   force =     0.00024674    0.00029085    0.00067400
     atom  163 type  3   force =     0.00024674   -0.00029085    0.00067400
     atom  164 type  3   force =    -0.00024674   -0.00029085   -0.00067400
     atom  165 type  3   force =    -0.00014755    0.00051800   -0.00063499
     atom  166 type  3   force =     0.00014755    0.00051800    0.00063499
     atom  167 type  3   force =     0.00014755   -0.00051800    0.00063499
     atom  168 type  3   force =    -0.00014755   -0.00051800   -0.00063499
     atom  169 type  3   force =    -0.00029955    0.00003100    0.00013778
     atom  170 type  3   force =     0.00029955    0.00003100   -0.00013778
     atom  171 type  3   force =     0.00029955   -0.00003100   -0.00013778
     atom  172 type  3   force =    -0.00029955   -0.00003100    0.00013778
     atom  173 type  3   force =    -0.00018834    0.00072684    0.00030926
     atom  174 type  3   force =     0.00018834    0.00072684   -0.00030926
     atom  175 type  3   force =     0.00018834   -0.00072684   -0.00030926
     atom  176 type  3   force =    -0.00018834   -0.00072684    0.00030926
     atom  177 type  3   force =     0.00108086   -0.00038325    0.00082183
     atom  178 type  3   force =    -0.00108086   -0.00038325   -0.00082183
     atom  179 type  3   force =    -0.00108086    0.00038325   -0.00082183
     atom  180 type  3   force =     0.00108086    0.00038325    0.00082183
     atom  181 type  3   force =     0.00001171    0.00114144   -0.00041864
     atom  182 type  3   force =    -0.00001171    0.00114144    0.00041864
     atom  183 type  3   force =    -0.00001171   -0.00114144    0.00041864
     atom  184 type  3   force =     0.00001171   -0.00114144   -0.00041864
     atom  185 type  3   force =    -0.00333532   -0.00874650    0.00150557
     atom  186 type  3   force =     0.00333532   -0.00874650   -0.00150557
     atom  187 type  3   force =     0.00333532    0.00874650   -0.00150557
     atom  188 type  3   force =    -0.00333532    0.00874650    0.00150557
     atom  189 type  3   force =     0.00059625    0.00058018   -0.00005357
     atom  190 type  3   force =    -0.00059625    0.00058018    0.00005357
     atom  191 type  3   force =    -0.00059625   -0.00058018    0.00005357
     atom  192 type  3   force =     0.00059625   -0.00058018   -0.00005357
     atom  193 type  3   force =    -0.00037794   -0.00001562    0.00052076
     atom  194 type  3   force =     0.00037794   -0.00001562   -0.00052076
     atom  195 type  3   force =     0.00037794    0.00001562   -0.00052076
     atom  196 type  3   force =    -0.00037794    0.00001562    0.00052076
     atom  197 type  3   force =     0.00014777    0.00000423   -0.00044326
     atom  198 type  3   force =    -0.00014777    0.00000423    0.00044326
     atom  199 type  3   force =    -0.00014777   -0.00000423    0.00044326
     atom  200 type  3   force =     0.00014777   -0.00000423   -0.00044326

     Total force =     0.066103     Total SCF correction =     0.000198


     Computing stress (Cartesian axis) and pressure

          total   stress  (Ry/bohr**3)                   (kbar)     P=   -5.22
  -0.00003994   0.00000000   0.00000187         -5.88      0.00      0.28
   0.00000000  -0.00003446   0.00000000          0.00     -5.07      0.00
   0.00000187   0.00000000  -0.00003206          0.28      0.00     -4.72


     Writing output data file scf.save
 
     init_run     :    170.19s CPU    175.37s WALL (       1 calls)
     electrons    :   6255.56s CPU   6400.93s WALL (       1 calls)
     forces       :     93.17s CPU     93.82s WALL (       1 calls)
     stress       :    461.21s CPU    462.16s WALL (       1 calls)

     Called by init_run:
     wfcinit      :    147.07s CPU    151.90s WALL (       1 calls)
     potinit      :      8.05s CPU      8.11s WALL (       1 calls)

     Called by electrons:
     c_bands      :   5696.07s CPU   5818.24s WALL (      16 calls)
     sum_band     :    524.84s CPU    544.09s WALL (      16 calls)
     v_of_rho     :      4.80s CPU      5.18s WALL (      17 calls)
     newd         :     15.95s CPU     19.59s WALL (      17 calls)
     PAW_pot      :     13.12s CPU     13.12s WALL (      17 calls)
     mix_rho      :      1.21s CPU      1.30s WALL (      16 calls)

     Called by c_bands:
     init_us_2    :     15.87s CPU     16.04s WALL (     140 calls)
     cegterg      :   5626.38s CPU   5748.17s WALL (      64 calls)

     Called by sum_band:
     sum_band:bec :      0.24s CPU      0.24s WALL (      64 calls)
     addusdens    :     16.22s CPU     19.64s WALL (      16 calls)

     Called by *egterg:
     h_psi        :   2635.48s CPU   2730.10s WALL (     365 calls)
     s_psi        :    784.09s CPU    784.26s WALL (     365 calls)
     g_psi        :      8.17s CPU      8.17s WALL (     297 calls)
     cdiaghg      :    407.15s CPU    407.26s WALL (     361 calls)

     Called by h_psi:
     h_psi:pot    :   2623.50s CPU   2717.86s WALL (     365 calls)
     h_psi:calbec :    770.93s CPU    771.92s WALL (     365 calls)
     vloc_psi     :   1068.42s CPU   1161.47s WALL (     365 calls)
     add_vuspsi   :    784.15s CPU    784.47s WALL (     365 calls)

     General routines
     calbec       :   1130.49s CPU   1131.75s WALL (     449 calls)
     fft          :     22.40s CPU     23.10s WALL (     245 calls)
     fftw         :   1081.43s CPU   1189.16s WALL (  170816 calls)
 
     Parallel routines
     fft_scatter  :    290.41s CPU    398.61s WALL (  171061 calls)
 
     PWSCF        :     1h56m CPU        1h59m WALL

 
   This run was terminated on:  23: 2:26   5Jan2018            

=------------------------------------------------------------------------------=
   JOB DONE.
=------------------------------------------------------------------------------=
