
     Program PWSCF v.6.1 (svn rev. 13369) starts on 20Dec2017 at 17:45:58 

     This program is part of the open-source Quantum ESPRESSO suite
     for quantum simulation of materials; please cite
         "P. Giannozzi et al., J. Phys.:Condens. Matter 21 395502 (2009);
          URL http://www.quantum-espresso.org", 
     in publications or presentations arising from this work. More details at
     http://www.quantum-espresso.org/quote

     Parallel version (MPI), running on     8 processors
     R & G space division:  proc/nbgrp/npool/nimage =       8
     Waiting for input...
     Reading input from standard input

     Current dimensions of program PWSCF are:
     Max number of different atomic species (ntypx) = 10
     Max number of k-points (npk) =  40000
     Max angular momentum in pseudopotentials (lmaxx) =  3
               file C.pbe-n-kjpaw_psl.0.1.UPF: wavefunction(s)  2P renormalized
               file N.pbe-n-kjpaw_psl.0.1.UPF: wavefunction(s)  2P renormalized
               file H.pbe-kjpaw_psl.0.1.UPF: wavefunction(s)  1S renormalized
               file O.pbe-n-kjpaw_psl.0.1.UPF: wavefunction(s)  2P renormalized

     -------------------------------------
     Parameters for Dispersion Correction:
     -------------------------------------
       atom      VdW radius       C_6     

        C          2.744         60.710
        N          2.640         42.670
        H          1.892          4.857
        O          2.536         24.284

     Subspace diagonalization in iterative solution of the eigenvalue problem:
     a serial algorithm will be used

 
     Parallelization info
     --------------------
     sticks:   dense  smooth     PW     G-vecs:    dense   smooth      PW
     Min        1050    1050    274               129876   129876   17374
     Max        1051    1051    275               129880   129880   17377
     Sum        8403    8403   2199              1039019  1039019  139007
 


     bravais-lattice index     =            0
     lattice parameter (alat)  =      13.1215  a.u.
     unit-cell volume          =    7690.0873 (a.u.)^3
     number of atoms/cell      =          130
     number of atomic types    =            4
     number of electrons       =       412.00
     number of Kohn-Sham states=          247
     kinetic-energy cutoff     =     100.0000  Ry
     charge density cutoff     =     400.0000  Ry
     convergence threshold     =      1.0E-08
     mixing beta               =       0.5000
     number of iterations used =            8  plain     mixing
     Exchange-correlation      =  SLA  PW   PBX  PBC ( 1  4  3  4 0 0)

     celldm(1)=  13.121502  celldm(2)=   0.000000  celldm(3)=   0.000000
     celldm(4)=   0.000000  celldm(5)=   0.000000  celldm(6)=   0.000000

     crystal axes: (cart. coord. in units of alat)
               a(1) = (   1.000000   0.000000   0.000000 )  
               a(2) = (  -0.304959   1.533130   0.000000 )  
               a(3) = (  -0.476635  -0.635838   2.220248 )  

     reciprocal axes: (cart. coord. in units 2 pi/alat)
               b(1) = (  1.000000  0.198912  0.271641 )  
               b(2) = (  0.000000  0.652260  0.186795 )  
               b(3) = (  0.000000  0.000000  0.450400 )  


     PseudoPot. # 1 for  C read from file:
     /scratch/ahofstet/pseudo/C.pbe-n-kjpaw_psl.0.1.UPF
     MD5 check sum: 430fe95172b1e11ef3f8ed03bac87931
     Pseudo is Projector augmented-wave + core cor, Zval =  4.0
     Generated using "atomic" code by A. Dal Corso  v.5.0.99 svn rev. 10869
     Shape of augmentation charge: BESSEL
     Using radial grid of 1073 points,  4 beta functions with: 
                l(1) =   0
                l(2) =   0
                l(3) =   1
                l(4) =   1
     Q(r) pseudized with 0 coefficients 


     PseudoPot. # 2 for  N read from file:
     /scratch/ahofstet/pseudo/N.pbe-n-kjpaw_psl.0.1.UPF
     MD5 check sum: f73187c8b701007e77325f868c9291d7
     Pseudo is Projector augmented-wave + core cor, Zval =  5.0
     Generated using "atomic" code by A. Dal Corso  v.5.0.99 svn rev. 10869
     Shape of augmentation charge: PSQ
     Using radial grid of 1085 points,  4 beta functions with: 
                l(1) =   0
                l(2) =   0
                l(3) =   1
                l(4) =   1
     Q(r) pseudized with 0 coefficients 


     PseudoPot. # 3 for  H read from file:
     /scratch/ahofstet/pseudo/H.pbe-kjpaw_psl.0.1.UPF
     MD5 check sum: 94e484f906d9e9773b2f6e52662335b2
     Pseudo is Projector augmented-wave, Zval =  1.0
     Generated using "atomic" code by A. Dal Corso  v.5.0.99 svn rev. 10869
     Shape of augmentation charge: PSQ
     Using radial grid of  929 points,  2 beta functions with: 
                l(1) =   0
                l(2) =   0
     Q(r) pseudized with 0 coefficients 


     PseudoPot. # 4 for  O read from file:
     /scratch/ahofstet/pseudo/O.pbe-n-kjpaw_psl.0.1.UPF
     MD5 check sum: 3f94a2996a3169367d6eb21d9b593f20
     Pseudo is Projector augmented-wave + core cor, Zval =  6.0
     Generated using "atomic" code by A. Dal Corso  v.5.0.99 svn rev. 10869
     Shape of augmentation charge: BESSEL
     Using radial grid of 1095 points,  4 beta functions with: 
                l(1) =   0
                l(2) =   0
                l(3) =   1
                l(4) =   1
     Q(r) pseudized with 0 coefficients 


     atomic species   valence    mass     pseudopotential
        C              4.00    12.01070      C( 1.00)
        N              5.00    14.00670      N( 1.00)
        H              1.00     1.00794      H( 1.00)
        O              6.00    15.99940      O( 1.00)

      2 Sym. Ops., with inversion, found



   Cartesian axes

     site n.     atom                  positions (alat units)
         1           O   tau(   1) = (   0.0216959   0.8831255   2.0778981  )
         2           O   tau(   2) = (   0.1967102   0.0141669   0.1423501  )
         3           H   tau(   3) = (   0.3344471  -0.5422103   1.9824054  )
         4           H   tau(   4) = (  -0.1160410   1.4395026   0.2378428  )
         5           O   tau(   5) = (   0.4181496   1.2367744   0.1016927  )
         6           O   tau(   6) = (  -0.1997435  -0.3394821   2.1185554  )
         7           H   tau(   7) = (   0.3196310   1.1487148   0.1686727  )
         8           H   tau(   8) = (  -0.1012248  -0.2514225   2.0515754  )
         9           O   tau(   9) = (   0.4220389  -0.0851298   1.0640449  )
        10           O   tau(  10) = (  -0.2036328   0.9824221   1.1562033  )
        11           H   tau(  11) = (   0.4184139  -0.2131720   0.9954204  )
        12           H   tau(  12) = (  -0.2000077   1.1104643   1.2248277  )
        13           O   tau(  13) = (   0.3494032   0.2891774   1.1659425  )
        14           O   tau(  14) = (  -0.1309971   0.6081149   1.0543057  )
        15           H   tau(  15) = (   0.3346151   0.4325278   1.1814197  )
        16           H   tau(  16) = (  -0.1162090   0.4647645   1.0388285  )
        17           O   tau(  17) = (   0.5769246   1.0505775   0.5195072  )
        18           O   tau(  18) = (  -0.3585185  -0.1532852   1.7007410  )
        19           H   tau(  19) = (   0.5472460   1.0600567   0.6611371  )
        20           H   tau(  20) = (  -0.3288398  -0.1627644   1.5591111  )
        21           O   tau(  21) = (   0.6985865   0.9645693   0.1490656  )
        22           O   tau(  22) = (  -0.4801804  -0.0672770   2.0711825  )
        23           H   tau(  23) = (   0.6123079   1.0767333   0.1672651  )
        24           H   tau(  24) = (  -0.3939018  -0.1794410   2.0529831  )
        25           C   tau(  25) = (   0.6666827   0.2758155   0.2857407  )
        26           C   tau(  26) = (  -0.4482766   0.6214768   1.9345075  )
        27           C   tau(  27) = (   0.7257199   0.2291486   0.0963080  )
        28           C   tau(  28) = (  -0.5073138   0.6681437   2.1239401  )
        29           H   tau(  29) = (   0.7552808   0.3422239  -0.0083746  )
        30           H   tau(  30) = (  -0.5368747   0.5550684   2.2286228  )
        31           C   tau(  31) = (   0.7462749   0.0399850   0.0360966  )
        32           C   tau(  32) = (  -0.5278688   0.8573073   2.1841515  )
        33           C   tau(  33) = (   0.3999403   1.4225439   0.1669570  )
        34           C   tau(  34) = (  -0.1815342  -0.5252516   2.0532912  )
        35           C   tau(  35) = (   0.6481398  -0.0681676   0.3527487  )
        36           C   tau(  36) = (  -0.4297337   0.9654599   1.8674995  )
        37           H   tau(  37) = (   0.3126306   1.3429188   0.4465096  )
        38           H   tau(  38) = (  -0.0942245  -0.4456265   1.7737386  )
        39           C   tau(  39) = (   0.6278493   0.1235295   0.4175975  )
        40           C   tau(  40) = (  -0.4094432   0.7737629   1.8026507  )
        41           C   tau(  41) = (   0.5669937   0.1669034   0.6137857  )
        42           C   tau(  42) = (  -0.3485876   0.7303890   1.6064624  )
        43           C   tau(  43) = (   0.5275009   0.0203912   0.7493042  )
        44           C   tau(  44) = (  -0.3090948   0.8769011   1.4709440  )
        45           H   tau(  45) = (   0.5462838  -0.1304882   0.7107772  )
        46           H   tau(  46) = (  -0.3278777   1.0277805   1.5094710  )
        47           C   tau(  47) = (   0.4618955   0.0597733   0.9333713  )
        48           C   tau(  48) = (  -0.2434894   0.8375190   1.2868768  )
        49           C   tau(  49) = (   0.4313412   0.2528791   0.9894806  )
        50           C   tau(  50) = (  -0.2129350   0.6444133   1.2307675  )
        51           C   tau(  51) = (   0.4767515   0.3984511   0.8611098  )
        52           C   tau(  52) = (  -0.2583454   0.4988412   1.3591383  )
        53           H   tau(  53) = (   0.4504264   0.5450042   0.9097791  )
        54           H   tau(  54) = (  -0.2320203   0.3522881   1.3104690  )
        55           C   tau(  55) = (   0.5447917   0.3613728   0.6734464  )
        56           C   tau(  56) = (  -0.3263855   0.5359196   1.5468018  )
        57           C   tau(  57) = (   0.5866839   0.5171723   0.5396148  )
        58           C   tau(  58) = (  -0.3682778   0.3801200   1.6806334  )
        59           C   tau(  59) = (   0.5680180   0.7115407   0.5954575  )
        60           C   tau(  60) = (  -0.3496119   0.1857516   1.6247906  )
        61           H   tau(  61) = (   0.5249183   0.7489062   0.7414511  )
        62           H   tau(  62) = (  -0.3065122   0.1483861   1.4787971  )
        63           C   tau(  63) = (   0.6014230   0.8619237   0.4688976  )
        64           C   tau(  64) = (  -0.3830169   0.0353686   1.7513505  )
        65           C   tau(  65) = (   0.6598933   0.8212313   0.2782184  )
        66           C   tau(  66) = (  -0.4414872   0.0760610   1.9420298  )
        67           C   tau(  67) = (   0.6830172   0.6311310   0.2223363  )
        68           C   tau(  68) = (  -0.4646111   0.2661613   1.9979119  )
        69           H   tau(  69) = (   0.7277775   0.6072600   0.0741842  )
        70           H   tau(  70) = (  -0.5093714   0.2900324   2.1460640  )
        71           C   tau(  71) = (   0.6466936   0.4753666   0.3483886  )
        72           C   tau(  72) = (  -0.4282875   0.4219257   1.8718596  )
        73           N   tau(  73) = (   0.1705238   0.3963110   0.2988224  )
        74           N   tau(  74) = (   0.0478824   0.5009813   1.9214258  )
        75           H   tau(  75) = (   0.2116468   0.3084717   0.1850137  )
        76           H   tau(  76) = (   0.0067593   0.5888206   2.0352344  )
        77           O   tau(  77) = (   0.1018119   1.0351306   0.5416947  )
        78           O   tau(  78) = (   0.1165942  -0.1378383   1.6785535  )
        79           O   tau(  79) = (   0.1986805   0.9801932   0.2367986  )
        80           O   tau(  80) = (   0.0197256  -0.0829009   1.9834496  )
        81           C   tau(  81) = (   0.1839758   0.5883136   0.2785094  )
        82           C   tau(  82) = (   0.0344303   0.3089787   1.9417388  )
        83           H   tau(  83) = (   0.2389699   0.6417923   0.1422326  )
        84           H   tau(  84) = (  -0.0205638   0.2555000   2.0780155  )
        85           C   tau(  85) = (   0.1283027   0.7097855   0.4279767  )
        86           C   tau(  86) = (   0.0901034   0.1875068   1.7922715  )
        87           C   tau(  87) = (   0.0585880   0.6257216   0.5965094  )
        88           C   tau(  88) = (   0.1598181   0.2715707   1.6237388  )
        89           H   tau(  89) = (   0.0118931   0.7170744   0.7152297  )
        90           H   tau(  90) = (   0.2065130   0.1802179   1.5050185  )
        91           C   tau(  91) = (   0.0448348   0.4260244   0.6120900  )
        92           C   tau(  92) = (   0.1735713   0.4712680   1.6081581  )
        93           H   tau(  93) = (  -0.0106371   0.3583572   0.7419586  )
        94           H   tau(  94) = (   0.2290433   0.5389351   1.4782895  )
        95           C   tau(  95) = (   0.1027608   0.3118808   0.4595491  )
        96           C   tau(  96) = (   0.1156453   0.5854115   1.7606991  )
        97           H   tau(  97) = (   0.0979747   0.1554435   0.4586322  )
        98           H   tau(  98) = (   0.1204315   0.7418488   1.7616160  )
        99           C   tau(  99) = (   0.1446962   0.9254809   0.4009974  )
       100           C   tau( 100) = (   0.0737099  -0.0281886   1.8192507  )
       101           O   tau( 101) = (   0.1957826   0.9863093   1.3884290  )
       102           O   tau( 102) = (   0.0226235  -0.0890170   0.8318192  )
       103           H   tau( 103) = (   0.1384208   1.0089367   1.5161398  )
       104           H   tau( 104) = (   0.0799853  -0.1116444   0.7041084  )
       105           H   tau( 105) = (   0.2846890   1.0944290   1.3672858  )
       106           H   tau( 106) = (  -0.0662829  -0.1971367   0.8529623  )
       107           O   tau( 107) = (   0.2604528   0.6676523   1.1662632  )
       108           O   tau( 108) = (  -0.0420467   0.2296400   1.0539850  )
       109           H   tau( 109) = (   0.2511776   0.7763640   1.2593499  )
       110           H   tau( 110) = (  -0.0327715   0.1209284   0.9608983  )
       111           H   tau( 111) = (   0.1299694   0.6577926   1.1118826  )
       112           H   tau( 112) = (   0.0884367   0.2394997   1.1083656  )
       113           O   tau( 113) = (   0.3621041  -0.4269430   1.7653672  )
       114           O   tau( 114) = (  -0.1436980   1.3242353   0.4548809  )
       115           H   tau( 115) = (   0.2507992  -0.3391179   1.7409617  )
       116           H   tau( 116) = (  -0.0323931   1.2364102   0.4792865  )
       117           H   tau( 117) = (   0.4713937  -0.3354385   1.7657627  )
       118           H   tau( 118) = (  -0.2529876   1.2327308   0.4544855  )
       119           O   tau( 119) = (  -0.2936664  -0.2030591   1.3270187  )
       120           O   tau( 120) = (   0.5120726   1.1003514   0.8932295  )
       121           H   tau( 121) = (  -0.1580739  -0.1795587   1.2885751  )
       122           H   tau( 122) = (   0.3764800   1.0768510   0.9316731  )
       123           H   tau( 123) = (   0.6196505  -0.1400913   1.2335741  )
       124           H   tau( 124) = (  -0.4012444   1.0373836   0.9866741  )
       125           O   tau( 125) = (   0.0963926  -0.1906219   1.2972537  )
       126           O   tau( 126) = (   0.1220135   1.0879142   0.9229944  )
       127           H   tau( 127) = (   0.1898694  -0.1200835   1.2176302  )
       128           H   tau( 128) = (   0.0285367   1.0173758   1.0026179  )
       129           H   tau( 129) = (   0.1193378  -0.1563609   1.4355292  )
       130           H   tau( 130) = (   0.0990684   1.0536532   0.7847190  )

     number of k points=     8
                       cart. coord. in units 2pi/alat
        k(    1) = (   0.0000000   0.0000000   0.0000000), wk =   0.1666667
        k(    2) = (   0.0000000   0.0000000  -0.2252001), wk =   0.1666667
        k(    3) = (   0.0000000  -0.3261301  -0.0933976), wk =   0.1666667
        k(    4) = (   0.0000000  -0.3261301  -0.3185977), wk =   0.1666667
        k(    5) = (   0.3333333   0.0663041   0.0905471), wk =   0.3333333
        k(    6) = (   0.3333333   0.0663041  -0.1346529), wk =   0.3333333
        k(    7) = (   0.3333333  -0.2598260  -0.0028505), wk =   0.3333333
        k(    8) = (   0.3333333  -0.2598260  -0.2280505), wk =   0.3333333

     Dense  grid:  1039019 G-vectors     FFT dimensions: (  90, 135, 200)

     Estimated max dynamical RAM per process >    1328.66MB

     Estimated total allocated dynamical RAM >   10629.30MB

     Check: negative/imaginary core charge=   -0.000002    0.000000

     Initial potential from superposition of free atoms

     starting charge  411.99744, renormalised to  412.00000
     Starting wfc are  358 randomized atomic wfcs
     Checking if some PAW data can be deallocated... 

     total cpu time spent up to now is       72.8 secs

     per-process dynamical memory:   890.1 Mb

     Self-consistent Calculation

     iteration #  1     ecut=   100.00 Ry     beta=0.50
     Davidson diagonalization with overlap
     ethr =  1.00E-02,  avg # of iterations =  4.4

     total cpu time spent up to now is      284.0 secs

     total energy              =   -2087.02328719 Ry
     Harris-Foulkes estimate   =   -2094.20881379 Ry
     estimated scf accuracy    <      13.13502518 Ry

     iteration #  2     ecut=   100.00 Ry     beta=0.50
     Davidson diagonalization with overlap
     ethr =  3.19E-03,  avg # of iterations =  5.1

     total cpu time spent up to now is      423.8 secs

     total energy              =   -2088.97149821 Ry
     Harris-Foulkes estimate   =   -2089.71216086 Ry
     estimated scf accuracy    <       1.63138162 Ry

     iteration #  3     ecut=   100.00 Ry     beta=0.50
     Davidson diagonalization with overlap
     ethr =  3.96E-04,  avg # of iterations =  7.1

     total cpu time spent up to now is      641.5 secs

     total energy              =   -2089.52053244 Ry
     Harris-Foulkes estimate   =   -2089.70206213 Ry
     estimated scf accuracy    <       0.44472203 Ry

     iteration #  4     ecut=   100.00 Ry     beta=0.50
     Davidson diagonalization with overlap
     ethr =  1.08E-04,  avg # of iterations =  2.0

     total cpu time spent up to now is      750.4 secs

     total energy              =   -2089.55696238 Ry
     Harris-Foulkes estimate   =   -2089.59090980 Ry
     estimated scf accuracy    <       0.08645585 Ry

     iteration #  5     ecut=   100.00 Ry     beta=0.50
     Davidson diagonalization with overlap
     ethr =  2.10E-05,  avg # of iterations =  7.6

     total cpu time spent up to now is      983.0 secs

     total energy              =   -2089.59592118 Ry
     Harris-Foulkes estimate   =   -2089.61371358 Ry
     estimated scf accuracy    <       0.04971034 Ry

     iteration #  6     ecut=   100.00 Ry     beta=0.50
     Davidson diagonalization with overlap
     ethr =  1.21E-05,  avg # of iterations =  2.0

     total cpu time spent up to now is     1088.4 secs

     total energy              =   -2089.59265335 Ry
     Harris-Foulkes estimate   =   -2089.59984073 Ry
     estimated scf accuracy    <       0.01272737 Ry

     iteration #  7     ecut=   100.00 Ry     beta=0.50
     Davidson diagonalization with overlap
     ethr =  3.09E-06,  avg # of iterations =  7.0

     total cpu time spent up to now is     1321.0 secs

     total energy              =   -2089.60047502 Ry
     Harris-Foulkes estimate   =   -2089.60227806 Ry
     estimated scf accuracy    <       0.00713683 Ry

     iteration #  8     ecut=   100.00 Ry     beta=0.50
     Davidson diagonalization with overlap
     ethr =  1.73E-06,  avg # of iterations =  1.6

     total cpu time spent up to now is     1423.4 secs

     total energy              =   -2089.59947147 Ry
     Harris-Foulkes estimate   =   -2089.60090888 Ry
     estimated scf accuracy    <       0.00322403 Ry

     iteration #  9     ecut=   100.00 Ry     beta=0.50
     Davidson diagonalization with overlap
     ethr =  7.83E-07,  avg # of iterations =  4.8

     total cpu time spent up to now is     1577.7 secs

     total energy              =   -2089.60035360 Ry
     Harris-Foulkes estimate   =   -2089.60039795 Ry
     estimated scf accuracy    <       0.00015097 Ry

     iteration # 10     ecut=   100.00 Ry     beta=0.50
     Davidson diagonalization with overlap
     ethr =  3.66E-08,  avg # of iterations =  4.0

     total cpu time spent up to now is     1729.1 secs

     total energy              =   -2089.60037985 Ry
     Harris-Foulkes estimate   =   -2089.60040391 Ry
     estimated scf accuracy    <       0.00005663 Ry

     iteration # 11     ecut=   100.00 Ry     beta=0.50
     Davidson diagonalization with overlap
     ethr =  1.37E-08,  avg # of iterations =  3.9

     total cpu time spent up to now is     1839.9 secs

     total energy              =   -2089.60038655 Ry
     Harris-Foulkes estimate   =   -2089.60038799 Ry
     estimated scf accuracy    <       0.00000497 Ry

     iteration # 12     ecut=   100.00 Ry     beta=0.50
     Davidson diagonalization with overlap
     ethr =  1.21E-09,  avg # of iterations =  4.2

     total cpu time spent up to now is     2060.6 secs

     total energy              =   -2089.60039207 Ry
     Harris-Foulkes estimate   =   -2089.60039337 Ry
     estimated scf accuracy    <       0.00000321 Ry

     iteration # 13     ecut=   100.00 Ry     beta=0.50
     Davidson diagonalization with overlap
     ethr =  7.79E-10,  avg # of iterations =  1.0

     total cpu time spent up to now is     2161.7 secs

     total energy              =   -2089.60039218 Ry
     Harris-Foulkes estimate   =   -2089.60039237 Ry
     estimated scf accuracy    <       0.00000042 Ry

     iteration # 14     ecut=   100.00 Ry     beta=0.50
     Davidson diagonalization with overlap
     ethr =  1.03E-10,  avg # of iterations =  4.0

     total cpu time spent up to now is     2370.5 secs

     total energy              =   -2089.60039260 Ry
     Harris-Foulkes estimate   =   -2089.60039276 Ry
     estimated scf accuracy    <       0.00000045 Ry

     iteration # 15     ecut=   100.00 Ry     beta=0.50
     Davidson diagonalization with overlap
     ethr =  1.03E-10,  avg # of iterations =  1.0

     total cpu time spent up to now is     2471.1 secs

     total energy              =   -2089.60039254 Ry
     Harris-Foulkes estimate   =   -2089.60039262 Ry
     estimated scf accuracy    <       0.00000015 Ry

     iteration # 16     ecut=   100.00 Ry     beta=0.50
     Davidson diagonalization with overlap
     ethr =  3.54E-11,  avg # of iterations =  4.0

     total cpu time spent up to now is     2654.8 secs

     total energy              =   -2089.60039264 Ry
     Harris-Foulkes estimate   =   -2089.60039265 Ry
     estimated scf accuracy    <       0.00000007 Ry

     iteration # 17     ecut=   100.00 Ry     beta=0.50
     Davidson diagonalization with overlap
     ethr =  1.64E-11,  avg # of iterations =  1.0

     total cpu time spent up to now is     2755.6 secs

     total energy              =   -2089.60039262 Ry
     Harris-Foulkes estimate   =   -2089.60039264 Ry
     estimated scf accuracy    <       0.00000003 Ry

     iteration # 18     ecut=   100.00 Ry     beta=0.50
     Davidson diagonalization with overlap
     ethr =  8.40E-12,  avg # of iterations =  4.0

     total cpu time spent up to now is     2926.5 secs

     End of self-consistent calculation

          k = 0.0000 0.0000 0.0000 (129863 PWs)   bands (ev):

   -19.8225 -19.7397 -19.7170 -19.7053 -19.5498 -19.5476 -19.3644 -19.3262
   -19.3129 -19.2060 -18.9864 -18.9696 -18.7107 -18.7089 -18.6985 -18.6424
   -18.4287 -18.4265 -18.3809 -18.3736 -18.1325 -18.1153 -18.0064 -17.9699
   -17.6706 -17.6593 -17.2509 -17.2463 -14.8509 -14.8439 -13.9454 -13.9415
   -13.8593 -13.8292 -13.7111 -13.6963 -12.9543 -12.9524 -12.2086 -12.1991
   -11.8669 -11.8644 -11.8269 -11.8132 -10.8268 -10.8108 -10.5561 -10.5547
   -10.4384 -10.4352  -9.9690  -9.9526  -9.6146  -9.6059  -9.2441  -9.2032
    -8.7156  -8.7006  -8.5431  -8.5305  -8.1598  -8.0982  -7.9617  -7.9559
    -7.7039  -7.6832  -7.4006  -7.3382  -7.0543  -6.9900  -6.8733  -6.8423
    -6.7708  -6.7514  -6.5988  -6.5975  -6.4276  -6.3844  -6.1956  -6.1720
    -6.1645  -6.1402  -6.0622  -6.0397  -5.9951  -5.9804  -5.8476  -5.8429
    -5.7235  -5.7195  -5.6904  -5.6684  -5.5231  -5.4880  -5.3889  -5.3852
    -4.9277  -4.8837  -4.6859  -4.6728  -4.6147  -4.5674  -4.5216  -4.5047
    -4.4238  -4.3415  -4.3094  -4.2940  -4.2905  -4.1930  -4.1062  -4.0893
    -3.9568  -3.9049  -3.8283  -3.7523  -3.7221  -3.6942  -3.6127  -3.4894
    -3.4538  -3.3669  -3.3245  -3.3151  -3.2532  -3.0888  -3.0566  -3.0320
    -2.9926  -2.9760  -2.9182  -2.9167  -2.8607  -2.8250  -2.8104  -2.7401
    -2.7105  -2.6792  -2.5967  -2.5413  -2.4870  -2.4544  -2.3830  -2.3306
    -2.2952  -2.2407  -2.2227  -2.1758  -2.0789  -2.0606  -1.9757  -1.9580
    -1.9356  -1.9035  -1.8697  -1.7145  -1.6497  -1.6479  -1.6303  -1.5751
    -1.4204  -1.3734  -1.3415  -1.2698  -1.2158  -1.1873  -1.0388  -1.0051
    -0.9833  -0.9706  -0.8635  -0.8274  -0.7750  -0.7499  -0.6904  -0.6832
    -0.5553  -0.5413  -0.4551  -0.3725  -0.3013  -0.2670  -0.2545  -0.2364
    -0.1867  -0.1724  -0.0668  -0.0608   0.1198   0.1331   0.3223   0.3861
     0.6872   0.6973   0.7693   0.8103   0.9005   1.0036   1.2828   1.4184
     1.6394   1.6746   2.2206   2.2250   2.3891   2.4014   4.1093   4.1124
     4.6233   4.6396   5.3851   5.4255   5.5153   5.5275   5.6161   5.6389
     6.0745   6.7104   6.7176   6.9448   6.9487   6.9682   7.0024   7.0393
     7.3009   7.3905   7.7270   7.8969   8.0000   8.0008   8.2134   8.5236
     8.6869   8.6937   8.7217   8.7546   8.8306   8.9726   9.0267   9.1399
     9.1972   9.3140   9.3643   9.4291   9.4407   9.5358   9.6201

          k = 0.0000 0.0000-0.2252 (129858 PWs)   bands (ev):

   -19.8219 -19.7404 -19.7216 -19.7006 -19.5489 -19.5484 -19.3621 -19.3320
   -19.3095 -19.2060 -18.9900 -18.9659 -18.7135 -18.7085 -18.6956 -18.6429
   -18.4282 -18.4275 -18.3809 -18.3740 -18.1272 -18.1202 -18.0037 -17.9724
   -17.6699 -17.6600 -17.2514 -17.2457 -14.8479 -14.8470 -13.9508 -13.9333
   -13.8487 -13.8418 -13.7109 -13.6977 -12.9538 -12.9529 -12.2066 -12.1999
   -11.8680 -11.8642 -11.8266 -11.8131 -10.8204 -10.8165 -10.5568 -10.5531
   -10.4407 -10.4312  -9.9695  -9.9604  -9.6171  -9.6038  -9.2361  -9.2103
    -8.7237  -8.6892  -8.5481  -8.5259  -8.1295  -8.1049  -7.9681  -7.9564
    -7.7016  -7.6917  -7.4016  -7.3355  -7.0638  -7.0194  -6.8689  -6.8507
    -6.7849  -6.7277  -6.6189  -6.5713  -6.4155  -6.3697  -6.2389  -6.1788
    -6.1477  -6.1234  -6.0479  -6.0216  -6.0201  -5.9648  -5.8590  -5.8387
    -5.7409  -5.7220  -5.6935  -5.6671  -5.5475  -5.5352  -5.3428  -5.3123
    -4.9263  -4.8839  -4.7111  -4.6814  -4.6175  -4.5471  -4.5004  -4.4973
    -4.4108  -4.4019  -4.3319  -4.3187  -4.2096  -4.1879  -4.1657  -4.0397
    -3.9340  -3.9148  -3.9130  -3.8021  -3.7326  -3.6706  -3.5787  -3.5125
    -3.4440  -3.3513  -3.3129  -3.2817  -3.1803  -3.1760  -3.0578  -3.0331
    -3.0058  -2.9699  -2.9190  -2.9116  -2.8754  -2.8374  -2.7726  -2.7249
    -2.6698  -2.6696  -2.6173  -2.5120  -2.4729  -2.4594  -2.4128  -2.3683
    -2.3314  -2.2981  -2.1631  -2.1094  -2.1035  -2.0946  -2.0319  -1.9415
    -1.8974  -1.8951  -1.8529  -1.7427  -1.7039  -1.6504  -1.5448  -1.5146
    -1.3942  -1.3609  -1.3240  -1.3085  -1.2817  -1.2083  -1.0622  -1.0475
    -0.9931  -0.9158  -0.9021  -0.8612  -0.7555  -0.6954  -0.6681  -0.6453
    -0.5584  -0.5088  -0.4710  -0.4018  -0.3041  -0.2904  -0.2691  -0.2453
    -0.1937  -0.1566  -0.0693  -0.0565   0.1122   0.1381   0.3232   0.3851
     0.6968   0.7012   0.7817   0.7923   0.9428   0.9849   1.3069   1.3759
     1.6372   1.6802   2.2099   2.2340   2.3757   2.4159   4.1040   4.1184
     4.6238   4.6390   5.3643   5.4505   5.5103   5.5483   5.6153   5.6177
     6.1109   6.6999   6.7097   6.8663   6.9336   6.9597   6.9947   7.0331
     7.3017   7.5278   7.8891   7.9074   7.9346   8.0109   8.2079   8.3510
     8.4543   8.4923   8.6700   8.9209   9.0063   9.0343   9.0995   9.1029
     9.2549   9.3138   9.4030   9.4458   9.5006   9.6077   9.6539

          k = 0.0000-0.3261-0.0934 (129862 PWs)   bands (ev):

   -19.8036 -19.7650 -19.7120 -19.7081 -19.5494 -19.5481 -19.3701 -19.3205
   -19.2711 -19.2490 -18.9794 -18.9761 -18.7098 -18.7093 -18.6990 -18.6369
   -18.4267 -18.4254 -18.3811 -18.3704 -18.1300 -18.1226 -18.0074 -17.9723
   -17.6723 -17.6563 -17.2500 -17.2471 -14.8463 -14.8406 -13.9598 -13.9368
   -13.8462 -13.8392 -13.7192 -13.7057 -12.9512 -12.9505 -12.1813 -12.1700
   -11.8966 -11.8873 -11.8275 -11.8210 -10.7927 -10.7814 -10.5580 -10.5385
   -10.4703 -10.4581  -9.9482  -9.9474  -9.6145  -9.6085  -9.2219  -9.1938
    -8.7911  -8.7897  -8.5373  -8.5313  -8.1353  -8.0768  -7.9417  -7.9324
    -7.7653  -7.7047  -7.3594  -7.2392  -7.0505  -6.9393  -6.8754  -6.8603
    -6.7793  -6.7445  -6.6789  -6.6412  -6.3829  -6.3626  -6.2420  -6.2203
    -6.1643  -6.0869  -6.0733  -6.0258  -5.9714  -5.9205  -5.8637  -5.7901
    -5.7087  -5.7003  -5.6812  -5.6383  -5.5876  -5.5849  -5.3798  -5.3219
    -5.0416  -4.9836  -4.6898  -4.6507  -4.6236  -4.6164  -4.5734  -4.5086
    -4.4023  -4.3859  -4.3149  -4.3040  -4.2320  -4.2231  -4.0459  -4.0172
    -3.9566  -3.8532  -3.7500  -3.7194  -3.7168  -3.6392  -3.5469  -3.5054
    -3.4965  -3.3693  -3.3614  -3.2821  -3.2686  -3.1368  -3.1149  -3.0084
    -2.9640  -2.9046  -2.8893  -2.8628  -2.8292  -2.8267  -2.8085  -2.7495
    -2.7062  -2.6898  -2.5796  -2.5728  -2.5605  -2.4944  -2.4416  -2.3790
    -2.3235  -2.2657  -2.2519  -2.1830  -2.0635  -2.0517  -2.0276  -1.9727
    -1.9049  -1.8638  -1.7841  -1.7823  -1.7656  -1.6144  -1.5479  -1.5396
    -1.4538  -1.3665  -1.2761  -1.2682  -1.2024  -1.1251  -1.1148  -1.0872
    -0.9730  -0.9320  -0.9072  -0.8444  -0.7565  -0.7474  -0.6838  -0.6400
    -0.5561  -0.4862  -0.4496  -0.3911  -0.3195  -0.3185  -0.2601  -0.2519
    -0.2106  -0.1557  -0.0505  -0.0436   0.1189   0.1198   0.3528   0.3582
     0.6799   0.7107   0.8234   0.8418   0.9853   1.0024   1.2660   1.2964
     1.5928   1.6136   2.2749   2.2773   2.3571   2.4048   4.1080   4.1187
     4.6203   4.6448   5.3978   5.4390   5.5169   5.5687   5.6112   5.6193
     6.2345   6.6824   6.7320   6.8104   6.8845   6.9806   7.0291   7.0655
     7.2145   7.4085   7.7633   7.8680   7.9093   7.9443   8.2005   8.4997
     8.6657   8.6670   8.8580   8.9018   9.0154   9.0655   9.1694   9.2114
     9.2502   9.2763   9.3312   9.3540   9.4192   9.5792   9.6201

          k = 0.0000-0.3261-0.3186 (129844 PWs)   bands (ev):

   -19.8034 -19.7650 -19.7154 -19.7047 -19.5489 -19.5486 -19.3699 -19.3215
   -19.2711 -19.2483 -18.9839 -18.9716 -18.7132 -18.7098 -18.6945 -18.6374
   -18.4274 -18.4244 -18.3822 -18.3702 -18.1342 -18.1164 -18.0109 -17.9702
   -17.6732 -17.6557 -17.2507 -17.2464 -14.8444 -14.8423 -13.9562 -13.9442
   -13.8484 -13.8342 -13.7198 -13.7036 -12.9517 -12.9505 -12.1794 -12.1721
   -11.8950 -11.8897 -11.8273 -11.8204 -10.7910 -10.7838 -10.5635 -10.5367
   -10.4652 -10.4614  -9.9479  -9.9406  -9.6147  -9.6072  -9.2136  -9.2058
    -8.7996  -8.7816  -8.5479  -8.5242  -8.1527  -8.0773  -7.9358  -7.9249
    -7.7470  -7.7220  -7.3015  -7.2694  -7.0574  -6.9653  -6.9058  -6.8540
    -6.7448  -6.7278  -6.6779  -6.6673  -6.3807  -6.3753  -6.2384  -6.2082
    -6.1569  -6.0819  -6.0591  -6.0484  -5.9540  -5.9470  -5.8607  -5.7788
    -5.7198  -5.7111  -5.6780  -5.6020  -5.5601  -5.5526  -5.3969  -5.3904
    -5.0256  -5.0186  -4.6935  -4.6688  -4.6408  -4.6086  -4.5696  -4.5389
    -4.4040  -4.3530  -4.3214  -4.3042  -4.1936  -4.1678  -4.0497  -3.9559
    -3.9344  -3.9062  -3.7670  -3.7656  -3.7081  -3.6656  -3.5713  -3.5101
    -3.4113  -3.3838  -3.3429  -3.2820  -3.2703  -3.1721  -3.1300  -2.9748
    -2.9626  -2.9222  -2.9173  -2.8873  -2.8733  -2.8263  -2.7996  -2.7843
    -2.6984  -2.6315  -2.6235  -2.5865  -2.4933  -2.4749  -2.4538  -2.3596
    -2.2781  -2.2698  -2.2102  -2.1628  -2.0704  -2.0399  -2.0066  -1.9872
    -1.9494  -1.8604  -1.8405  -1.8315  -1.6807  -1.6728  -1.5877  -1.5660
    -1.4938  -1.2839  -1.2716  -1.2188  -1.1755  -1.1555  -1.0860  -1.0418
    -1.0153  -0.9514  -0.9277  -0.8432  -0.7575  -0.7303  -0.6747  -0.6702
    -0.5752  -0.4841  -0.4632  -0.3825  -0.3468  -0.2824  -0.2658  -0.2288
    -0.2157  -0.1417  -0.0491  -0.0433   0.1159   0.1206   0.3528   0.3575
     0.6860   0.7130   0.7989   0.8673   0.9109   1.0307   1.2448   1.3446
     1.5949   1.6113   2.2640   2.2862   2.3744   2.3889   4.1023   4.1241
     4.6210   4.6455   5.3964   5.4479   5.5177   5.5423   5.6045   5.6441
     6.2376   6.6868   6.7290   6.8145   6.9226   6.9507   7.0191   7.0665
     7.1423   7.5476   7.6634   7.8743   7.8861   7.9588   8.3107   8.3541
     8.6586   8.7000   8.8089   8.9102   8.9485   9.1029   9.2333   9.2506
     9.2586   9.3224   9.3474   9.4274   9.4502   9.5152   9.5326

          k = 0.3333 0.0663 0.0905 (129911 PWs)   bands (ev):

   -19.8061 -19.7486 -19.6906 -19.6827 -19.5805 -19.5766 -19.3606 -19.3253
   -19.2979 -19.2193 -18.9865 -18.9699 -18.7123 -18.7102 -18.6990 -18.6709
   -18.4279 -18.4256 -18.3931 -18.3429 -18.1321 -18.1059 -18.0081 -17.9682
   -17.6720 -17.6596 -17.2512 -17.2466 -14.8500 -14.8443 -13.9371 -13.9277
   -13.8610 -13.8371 -13.7219 -13.7122 -12.9513 -12.9486 -12.2188 -12.1967
   -11.8759 -11.8553 -11.8247 -11.8157 -10.8271 -10.8082 -10.5674 -10.5405
   -10.4417 -10.4391  -9.9669  -9.9488  -9.6115  -9.6051  -9.2336  -9.2128
    -8.7394  -8.6944  -8.5406  -8.5325  -8.1387  -8.0915  -7.9970  -7.9307
    -7.7343  -7.6609  -7.3951  -7.3022  -7.0555  -7.0258  -6.8683  -6.8498
    -6.7557  -6.7284  -6.6231  -6.5780  -6.4437  -6.3905  -6.2465  -6.2348
    -6.1622  -6.1440  -6.0588  -6.0404  -5.9988  -5.9416  -5.8213  -5.7935
    -5.7521  -5.7166  -5.6154  -5.5964  -5.5151  -5.5086  -5.4014  -5.3727
    -4.9667  -4.9073  -4.6721  -4.6242  -4.5966  -4.5592  -4.4193  -4.4058
    -4.3994  -4.3375  -4.3157  -4.2668  -4.2616  -4.2111  -4.0318  -4.0229
    -3.9084  -3.7755  -3.7525  -3.7164  -3.6637  -3.5813  -3.5545  -3.5351
    -3.5156  -3.4289  -3.3758  -3.3237  -3.2779  -3.2382  -3.2134  -3.2059
    -3.0958  -3.0922  -2.9621  -2.9183  -2.8855  -2.8439  -2.8227  -2.7519
    -2.7333  -2.6314  -2.6013  -2.5492  -2.5425  -2.4388  -2.3360  -2.3163
    -2.2785  -2.2756  -2.2619  -2.2154  -2.1166  -2.0848  -2.0281  -1.9822
    -1.9431  -1.9310  -1.8670  -1.7234  -1.7037  -1.6677  -1.6458  -1.4742
    -1.3739  -1.3526  -1.3004  -1.2338  -1.2136  -1.1811  -1.0640  -1.0060
    -0.9741  -0.9378  -0.8977  -0.8458  -0.7858  -0.7673  -0.7114  -0.6722
    -0.6101  -0.5593  -0.5129  -0.4154  -0.3112  -0.2767  -0.2620  -0.2451
    -0.2145  -0.1483  -0.0519  -0.0286   0.0987   0.1110   0.3174   0.3797
     0.6883   0.6972   0.7760   0.8065   0.8847   0.9837   1.2302   1.3894
     1.6547   1.7046   2.2446   2.2551   2.2777   2.5598   4.1280   4.1346
     4.5734   4.5864   5.3402   5.3651   5.4930   5.5217   5.5907   5.6217
     6.5691   6.7629   6.8019   6.8908   6.9136   7.0011   7.0222   7.3067
     7.5190   7.7430   7.8253   7.9113   7.9617   8.0676   8.2156   8.3141
     8.5710   8.6282   8.7660   8.7847   8.9450   8.9982   9.0652   9.1054
     9.2090   9.2506   9.3772   9.4764   9.5663   9.6480   9.6749

          k = 0.3333 0.0663-0.1347 (129877 PWs)   bands (ev):

   -19.8060 -19.7484 -19.6940 -19.6795 -19.5809 -19.5761 -19.3598 -19.3264
   -19.2979 -19.2192 -18.9885 -18.9678 -18.7130 -18.7093 -18.6995 -18.6705
   -18.4284 -18.4250 -18.3933 -18.3437 -18.1248 -18.1139 -18.0025 -17.9726
   -17.6709 -17.6607 -17.2519 -17.2459 -14.8477 -14.8468 -13.9366 -13.9258
   -13.8527 -13.8462 -13.7219 -13.7142 -12.9507 -12.9492 -12.2167 -12.1974
   -11.8746 -11.8576 -11.8236 -11.8167 -10.8228 -10.8119 -10.5673 -10.5383
   -10.4472 -10.4331  -9.9655  -9.9583  -9.6139  -9.6034  -9.2295  -9.2159
    -8.7371  -8.6952  -8.5408  -8.5288  -8.1162  -8.0974  -7.9894  -7.9437
    -7.7271  -7.6688  -7.3812  -7.3250  -7.0642  -7.0370  -6.8743  -6.8424
    -6.7626  -6.7288  -6.6487  -6.5558  -6.4169  -6.3765  -6.2771  -6.2366
    -6.1630  -6.1360  -6.0509  -6.0370  -5.9989  -5.9239  -5.8221  -5.8000
    -5.7468  -5.7163  -5.6385  -5.6219  -5.5653  -5.5070  -5.3486  -5.3128
    -4.9519  -4.9083  -4.6851  -4.6471  -4.5623  -4.5463  -4.4368  -4.4228
    -4.3975  -4.3612  -4.3263  -4.3153  -4.2230  -4.1733  -4.0845  -3.9803
    -3.9338  -3.8132  -3.7384  -3.7199  -3.6401  -3.6037  -3.5815  -3.5146
    -3.4929  -3.4369  -3.4017  -3.3279  -3.2651  -3.2318  -3.1960  -3.1634
    -3.1023  -3.0834  -2.9592  -2.9452  -2.8910  -2.8544  -2.8176  -2.7310
    -2.7051  -2.6634  -2.5782  -2.5725  -2.4494  -2.4152  -2.3861  -2.3395
    -2.2978  -2.2930  -2.2705  -2.1889  -2.1594  -2.0978  -2.0524  -1.9581
    -1.9470  -1.9418  -1.8403  -1.7638  -1.6726  -1.6476  -1.5420  -1.4297
    -1.4093  -1.3303  -1.3197  -1.2995  -1.2496  -1.2300  -1.0597  -1.0176
    -0.9834  -0.9562  -0.9030  -0.8551  -0.7882  -0.7404  -0.7059  -0.6325
    -0.5971  -0.5281  -0.4704  -0.4356  -0.3200  -0.2886  -0.2689  -0.2555
    -0.2130  -0.1522  -0.0496  -0.0301   0.0942   0.1131   0.3182   0.3789
     0.6976   0.7006   0.7677   0.8114   0.9153   0.9592   1.2537   1.3310
     1.6595   1.7085   2.2445   2.2568   2.2911   2.5582   4.1262   4.1358
     4.5760   4.5816   5.3450   5.3641   5.4754   5.5205   5.5926   5.6447
     6.5694   6.7625   6.7831   6.8992   6.9418   6.9880   6.9988   7.3581
     7.5102   7.6535   7.8823   7.9067   7.9878   8.1076   8.2282   8.2433
     8.3494   8.6587   8.7775   8.9213   8.9808   8.9976   9.0796   9.1010
     9.2420   9.3306   9.4126   9.5298   9.5387   9.5730   9.6930

          k = 0.3333-0.2598-0.0029 (129859 PWs)   bands (ev):

   -19.7920 -19.7645 -19.6883 -19.6850 -19.5806 -19.5759 -19.3593 -19.3283
   -19.2721 -19.2466 -18.9805 -18.9759 -18.7122 -18.7100 -18.6977 -18.6686
   -18.4274 -18.4241 -18.3933 -18.3367 -18.1241 -18.1200 -18.0053 -17.9745
   -17.6714 -17.6585 -17.2503 -17.2474 -14.8472 -14.8403 -13.9410 -13.9274
   -13.8493 -13.8399 -13.7377 -13.7217 -12.9526 -12.9489 -12.1815 -12.1750
   -11.9003 -11.8818 -11.8333 -11.8188 -10.7957 -10.7777 -10.5553 -10.5433
   -10.4624 -10.4475  -9.9564  -9.9513  -9.6171  -9.6077  -9.2235  -9.1961
    -8.7933  -8.7781  -8.5329  -8.5303  -8.1409  -8.0838  -7.9925  -7.8777
    -7.7471  -7.7134  -7.3383  -7.2095  -7.0748  -6.9971  -6.9188  -6.8347
    -6.7868  -6.7372  -6.6573  -6.6148  -6.4024  -6.3478  -6.2613  -6.1882
    -6.1427  -6.0959  -6.0297  -6.0215  -5.9674  -5.9102  -5.8524  -5.8032
    -5.7818  -5.7551  -5.6938  -5.6647  -5.5805  -5.5469  -5.3517  -5.3155
    -4.9976  -4.9492  -4.6150  -4.5983  -4.5760  -4.5394  -4.4579  -4.4236
    -4.4165  -4.3862  -4.3385  -4.3272  -4.2449  -4.2157  -3.9910  -3.9342
    -3.8931  -3.8174  -3.7285  -3.7043  -3.6263  -3.5667  -3.5238  -3.5122
    -3.4895  -3.4743  -3.4100  -3.3114  -3.2506  -3.2222  -3.1852  -3.1420
    -3.1110  -2.9724  -2.9495  -2.8951  -2.8841  -2.8551  -2.8344  -2.7968
    -2.6817  -2.6608  -2.6392  -2.5917  -2.5225  -2.4838  -2.4490  -2.4195
    -2.3510  -2.2995  -2.2603  -2.2317  -2.1632  -2.1106  -2.0362  -1.9755
    -1.8798  -1.8659  -1.8265  -1.7730  -1.7322  -1.6071  -1.5726  -1.5182
    -1.3910  -1.3263  -1.2765  -1.1975  -1.1733  -1.1583  -1.0990  -1.0461
    -1.0157  -0.9579  -0.8955  -0.8421  -0.7996  -0.7504  -0.6827  -0.6694
    -0.6502  -0.5212  -0.4589  -0.3927  -0.3227  -0.3035  -0.2620  -0.2402
    -0.2035  -0.1464  -0.0472  -0.0334   0.0998   0.1221   0.3493   0.3509
     0.6804   0.7068   0.7945   0.8457   0.9275   0.9531   1.1960   1.2490
     1.6188   1.6643   2.2510   2.3208   2.3372   2.5429   4.1266   4.1328
     4.5639   4.5873   5.3766   5.3928   5.4864   5.5311   5.5859   5.6627
     6.5873   6.7393   6.7849   6.9199   6.9617   6.9839   7.0295   7.2449
     7.5025   7.7340   7.8526   7.8767   7.9538   8.0529   8.1871   8.3147
     8.4237   8.6155   8.7006   8.7881   8.9386   9.1199   9.1536   9.2249
     9.3044   9.3715   9.4469   9.4811   9.5424   9.6425   9.6545

          k = 0.3333-0.2598-0.2281 (129837 PWs)   bands (ev):

   -19.7919 -19.7645 -19.6914 -19.6820 -19.5817 -19.5748 -19.3586 -19.3295
   -19.2717 -19.2465 -18.9828 -18.9735 -18.7130 -18.7096 -18.6985 -18.6674
   -18.4263 -18.4251 -18.3931 -18.3377 -18.1289 -18.1120 -18.0117 -17.9704
   -17.6727 -17.6575 -17.2511 -17.2466 -14.8442 -14.8432 -13.9411 -13.9299
   -13.8490 -13.8396 -13.7391 -13.7176 -12.9527 -12.9493 -12.1818 -12.1754
   -11.9012 -11.8814 -11.8314 -11.8197 -10.7894 -10.7845 -10.5588 -10.5459
   -10.4583 -10.4476  -9.9548  -9.9461  -9.6170  -9.6067  -9.2273  -9.1957
    -8.7949  -8.7769  -8.5402  -8.5272  -8.1594  -8.0833  -7.9809  -7.8704
    -7.7389  -7.7252  -7.2793  -7.2476  -7.0717  -7.0148  -6.9061  -6.8604
    -6.7713  -6.7399  -6.6962  -6.5849  -6.4036  -6.3518  -6.2267  -6.2184
    -6.1377  -6.0759  -6.0505  -6.0272  -5.9546  -5.9359  -5.8437  -5.7868
    -5.7783  -5.7418  -5.7210  -5.6392  -5.5207  -5.5139  -5.4022  -5.3808
    -5.0005  -4.9756  -4.6260  -4.6177  -4.5891  -4.5490  -4.4362  -4.4237
    -4.4012  -4.3822  -4.3185  -4.3145  -4.2018  -4.1588  -4.0092  -3.9777
    -3.8492  -3.8070  -3.7967  -3.7609  -3.6181  -3.5725  -3.5381  -3.5168
    -3.4404  -3.4041  -3.3616  -3.3112  -3.2814  -3.2565  -3.2147  -3.1607
    -3.1064  -3.0076  -2.9610  -2.8949  -2.8907  -2.8568  -2.8048  -2.7969
    -2.7414  -2.6710  -2.6544  -2.5605  -2.5090  -2.4724  -2.4453  -2.3646
    -2.3066  -2.2985  -2.2275  -2.1812  -2.1411  -2.1123  -2.0556  -2.0161
    -1.9464  -1.8695  -1.8268  -1.7962  -1.7269  -1.6786  -1.6042  -1.5522
    -1.3500  -1.2846  -1.2076  -1.1990  -1.1659  -1.1257  -1.0975  -1.0527
    -0.9916  -0.9817  -0.8982  -0.8160  -0.7924  -0.7566  -0.7226  -0.7028
    -0.6259  -0.5530  -0.4899  -0.3780  -0.3201  -0.2891  -0.2577  -0.2433
    -0.2023  -0.1411  -0.0504  -0.0297   0.0976   0.1216   0.3485   0.3516
     0.6834   0.7098   0.7843   0.8455   0.8968   0.9682   1.1584   1.3254
     1.6191   1.6593   2.2375   2.3065   2.3488   2.5450   4.1269   4.1341
     4.5675   4.5829   5.3704   5.4016   5.5193   5.5292   5.5803   5.6347
     6.6000   6.7335   6.7644   6.9089   6.9434   7.0149   7.0522   7.2225
     7.5376   7.7080   7.8047   7.8570   7.9768   8.1418   8.1975   8.3483
     8.3947   8.5077   8.7058   8.8507   8.8914   9.0510   9.2417   9.2714
     9.3070   9.3742   9.4074   9.4710   9.5325   9.6186   9.7222

     highest occupied, lowest unoccupied level (ev):     2.5598    4.1023

!    total energy              =   -2089.60039263 Ry
     Harris-Foulkes estimate   =   -2089.60039264 Ry
     estimated scf accuracy    <          4.9E-09 Ry

     total all-electron energy =     -7854.893832 Ry

     The total energy is the sum of the following terms:

     one-electron contribution =    -945.85388266 Ry
     hartree contribution      =     644.29197101 Ry
     xc contribution           =    -441.47656403 Ry
     ewald contribution        =    -762.85986201 Ry
     Dispersion Correction     =      -0.63310295 Ry
     one-center paw contrib.   =    -583.06895199 Ry

     convergence has been achieved in  18 iterations

     Forces acting on atoms (cartesian axes, Ry/au):

     atom    1 type  4   force =    -0.00131864    0.00027430   -0.00240206
     atom    2 type  4   force =     0.00131864   -0.00027430    0.00240206
     atom    3 type  3   force =     0.00022960   -0.00024638   -0.00113851
     atom    4 type  3   force =    -0.00022960    0.00024638    0.00113851
     atom    5 type  4   force =     0.00008549    0.00113211    0.00007691
     atom    6 type  4   force =    -0.00008549   -0.00113211   -0.00007691
     atom    7 type  3   force =     0.00021739   -0.00044714    0.00007848
     atom    8 type  3   force =    -0.00021739    0.00044714   -0.00007848
     atom    9 type  4   force =     0.00128598   -0.00142868    0.00129137
     atom   10 type  4   force =    -0.00128598    0.00142868   -0.00129137
     atom   11 type  3   force =    -0.00008153    0.00090410    0.00041839
     atom   12 type  3   force =     0.00008153   -0.00090410   -0.00041839
     atom   13 type  4   force =     0.00085927    0.00156648    0.00298898
     atom   14 type  4   force =    -0.00085927   -0.00156648   -0.00298898
     atom   15 type  3   force =     0.00058289   -0.00082590   -0.00045924
     atom   16 type  3   force =    -0.00058289    0.00082590    0.00045924
     atom   17 type  4   force =     0.00037679    0.00192475    0.00158455
     atom   18 type  4   force =    -0.00037679   -0.00192475   -0.00158455
     atom   19 type  3   force =     0.00059470    0.00001114   -0.00146042
     atom   20 type  3   force =    -0.00059470   -0.00001114    0.00146042
     atom   21 type  4   force =    -0.00011884    0.00005724   -0.00072407
     atom   22 type  4   force =     0.00011884   -0.00005724    0.00072407
     atom   23 type  3   force =    -0.00005843   -0.00060706    0.00010097
     atom   24 type  3   force =     0.00005843    0.00060706   -0.00010097
     atom   25 type  1   force =     0.00094683   -0.00022786   -0.00035320
     atom   26 type  1   force =    -0.00094683    0.00022786    0.00035320
     atom   27 type  1   force =    -0.00045870    0.00032582   -0.00010626
     atom   28 type  1   force =     0.00045870   -0.00032582    0.00010626
     atom   29 type  3   force =    -0.00042382   -0.00005100    0.00045264
     atom   30 type  3   force =     0.00042382    0.00005100   -0.00045264
     atom   31 type  1   force =    -0.00088030    0.00115593    0.00012510
     atom   32 type  1   force =     0.00088030   -0.00115593   -0.00012510
     atom   33 type  1   force =     0.00061576   -0.00203013    0.00080461
     atom   34 type  1   force =    -0.00061576    0.00203013   -0.00080461
     atom   35 type  1   force =    -0.00048272   -0.00127971    0.00080813
     atom   36 type  1   force =     0.00048272    0.00127971   -0.00080813
     atom   37 type  3   force =     0.00020436    0.00052952   -0.00004628
     atom   38 type  3   force =    -0.00020436   -0.00052952    0.00004628
     atom   39 type  1   force =     0.00010878    0.00102111    0.00131532
     atom   40 type  1   force =    -0.00010878   -0.00102111   -0.00131532
     atom   41 type  1   force =     0.00211536    0.00009007   -0.00130572
     atom   42 type  1   force =    -0.00211536   -0.00009007    0.00130572
     atom   43 type  1   force =    -0.00067120   -0.00157264    0.00021890
     atom   44 type  1   force =     0.00067120    0.00157264   -0.00021890
     atom   45 type  3   force =    -0.00011463    0.00032923   -0.00041427
     atom   46 type  3   force =     0.00011463   -0.00032923    0.00041427
     atom   47 type  1   force =    -0.00298540   -0.00067301   -0.00133641
     atom   48 type  1   force =     0.00298540    0.00067301    0.00133641
     atom   49 type  1   force =    -0.00101655   -0.00030336   -0.00102382
     atom   50 type  1   force =     0.00101655    0.00030336    0.00102382
     atom   51 type  1   force =    -0.00092649    0.00089425   -0.00069292
     atom   52 type  1   force =     0.00092649   -0.00089425    0.00069292
     atom   53 type  3   force =     0.00088970   -0.00041871   -0.00009819
     atom   54 type  3   force =    -0.00088970    0.00041871    0.00009819
     atom   55 type  1   force =     0.00092711   -0.00033504    0.00055081
     atom   56 type  1   force =    -0.00092711    0.00033504   -0.00055081
     atom   57 type  1   force =     0.00116400    0.00012244    0.00209953
     atom   58 type  1   force =    -0.00116400   -0.00012244   -0.00209953
     atom   59 type  1   force =     0.00011125    0.00034936   -0.00002885
     atom   60 type  1   force =    -0.00011125   -0.00034936    0.00002885
     atom   61 type  3   force =    -0.00011928    0.00012241   -0.00041590
     atom   62 type  3   force =     0.00011928   -0.00012241    0.00041590
     atom   63 type  1   force =     0.00024720   -0.00096475    0.00061791
     atom   64 type  1   force =    -0.00024720    0.00096475   -0.00061791
     atom   65 type  1   force =    -0.00241255   -0.00064189   -0.00076491
     atom   66 type  1   force =     0.00241255    0.00064189    0.00076491
     atom   67 type  1   force =    -0.00252794   -0.00057643   -0.00043948
     atom   68 type  1   force =     0.00252794    0.00057643    0.00043948
     atom   69 type  3   force =    -0.00020336   -0.00066357   -0.00008255
     atom   70 type  3   force =     0.00020336    0.00066357    0.00008255
     atom   71 type  1   force =     0.00067129    0.00136056   -0.00286706
     atom   72 type  1   force =    -0.00067129   -0.00136056    0.00286706
     atom   73 type  2   force =     0.00167004    0.00267973   -0.00594169
     atom   74 type  2   force =    -0.00167004   -0.00267973    0.00594169
     atom   75 type  3   force =    -0.00016866    0.00048706    0.00039535
     atom   76 type  3   force =     0.00016866   -0.00048706   -0.00039535
     atom   77 type  4   force =     0.00006620   -0.00104635    0.00132815
     atom   78 type  4   force =    -0.00006620    0.00104635   -0.00132815
     atom   79 type  4   force =    -0.00200814   -0.00031484   -0.00183567
     atom   80 type  4   force =     0.00200814    0.00031484    0.00183567
     atom   81 type  1   force =     0.00127737   -0.00006333   -0.00377408
     atom   82 type  1   force =    -0.00127737    0.00006333    0.00377408
     atom   83 type  3   force =    -0.00059585   -0.00004495    0.00031067
     atom   84 type  3   force =     0.00059585    0.00004495   -0.00031067
     atom   85 type  1   force =     0.00180426    0.00049543   -0.00138494
     atom   86 type  1   force =    -0.00180426   -0.00049543    0.00138494
     atom   87 type  1   force =    -0.00441368    0.00008122    0.00409352
     atom   88 type  1   force =     0.00441368   -0.00008122   -0.00409352
     atom   89 type  3   force =     0.00015638   -0.00022819   -0.00021026
     atom   90 type  3   force =    -0.00015638    0.00022819    0.00021026
     atom   91 type  1   force =    -0.00041812   -0.00131285    0.00352819
     atom   92 type  1   force =     0.00041812    0.00131285   -0.00352819
     atom   93 type  3   force =     0.00040121   -0.00003435   -0.00065810
     atom   94 type  3   force =    -0.00040121    0.00003435    0.00065810
     atom   95 type  1   force =    -0.00038430   -0.00247704    0.00259171
     atom   96 type  1   force =     0.00038430    0.00247704   -0.00259171
     atom   97 type  3   force =    -0.00041575    0.00025814    0.00040526
     atom   98 type  3   force =     0.00041575   -0.00025814   -0.00040526
     atom   99 type  1   force =     0.00105764    0.00148871   -0.00077446
     atom  100 type  1   force =    -0.00105764   -0.00148871    0.00077446
     atom  101 type  4   force =    -0.00002843   -0.00212449    0.00000229
     atom  102 type  4   force =     0.00002843    0.00212449   -0.00000229
     atom  103 type  3   force =    -0.00013275   -0.00015156   -0.00011939
     atom  104 type  3   force =     0.00013275    0.00015156    0.00011939
     atom  105 type  3   force =    -0.00003977   -0.00004280   -0.00010265
     atom  106 type  3   force =     0.00003977    0.00004280    0.00010265
     atom  107 type  4   force =    -0.00103463    0.00027281    0.00086445
     atom  108 type  4   force =     0.00103463   -0.00027281   -0.00086445
     atom  109 type  3   force =     0.00017790   -0.00008400    0.00023804
     atom  110 type  3   force =    -0.00017790    0.00008400   -0.00023804
     atom  111 type  3   force =     0.00030564    0.00077749    0.00048349
     atom  112 type  3   force =    -0.00030564   -0.00077749   -0.00048349
     atom  113 type  4   force =     0.00001538   -0.00058838    0.00101314
     atom  114 type  4   force =    -0.00001538    0.00058838   -0.00101314
     atom  115 type  3   force =     0.00061476   -0.00084936    0.00019090
     atom  116 type  3   force =    -0.00061476    0.00084936   -0.00019090
     atom  117 type  3   force =    -0.00031004   -0.00045861   -0.00019021
     atom  118 type  3   force =     0.00031004    0.00045861    0.00019021
     atom  119 type  4   force =    -0.00112095    0.00008195    0.00033912
     atom  120 type  4   force =     0.00112095   -0.00008195   -0.00033912
     atom  121 type  3   force =     0.00152538    0.00014365   -0.00005598
     atom  122 type  3   force =    -0.00152538   -0.00014365    0.00005598
     atom  123 type  3   force =    -0.00007481    0.00025989   -0.00020700
     atom  124 type  3   force =     0.00007481   -0.00025989    0.00020700
     atom  125 type  4   force =    -0.00044836   -0.00072312    0.00140375
     atom  126 type  4   force =     0.00044836    0.00072312   -0.00140375
     atom  127 type  3   force =     0.00025224    0.00021877   -0.00055006
     atom  128 type  3   force =    -0.00025224   -0.00021877    0.00055006
     atom  129 type  3   force =     0.00020004    0.00013086   -0.00039521
     atom  130 type  3   force =    -0.00020004   -0.00013086    0.00039521

     Total force =     0.023584     Total SCF correction =     0.000154


     Computing stress (Cartesian axis) and pressure

          total   stress  (Ry/bohr**3)                   (kbar)     P=   -6.70
  -0.00003716   0.00000699   0.00000217         -5.47      1.03      0.32
   0.00000699  -0.00005244  -0.00001368          1.03     -7.71     -2.01
   0.00000217  -0.00001368  -0.00004708          0.32     -2.01     -6.93


     Writing output data file scf.save
 
     init_run     :     69.42s CPU     72.31s WALL (       1 calls)
     electrons    :   2730.94s CPU   2853.80s WALL (       1 calls)
     forces       :     32.47s CPU     32.72s WALL (       1 calls)
     stress       :    251.69s CPU    252.17s WALL (       1 calls)

     Called by init_run:
     wfcinit      :     56.47s CPU     59.14s WALL (       1 calls)
     potinit      :      4.48s CPU      4.51s WALL (       1 calls)

     Called by electrons:
     c_bands      :   2461.45s CPU   2566.86s WALL (      18 calls)
     sum_band     :    252.59s CPU    267.76s WALL (      18 calls)
     v_of_rho     :      2.88s CPU      3.16s WALL (      19 calls)
     newd         :      6.50s CPU      8.51s WALL (      19 calls)
     PAW_pot      :      6.42s CPU      6.43s WALL (      19 calls)
     mix_rho      :      0.76s CPU      0.82s WALL (      18 calls)

     Called by c_bands:
     init_us_2    :     16.88s CPU     16.94s WALL (     312 calls)
     cegterg      :   2406.26s CPU   2511.55s WALL (     144 calls)

     Called by sum_band:
     sum_band:bec :      0.14s CPU      0.14s WALL (     144 calls)
     addusdens    :      7.06s CPU      8.96s WALL (      18 calls)

     Called by *egterg:
     h_psi        :   1353.86s CPU   1436.27s WALL (     702 calls)
     s_psi        :    254.88s CPU    254.91s WALL (     702 calls)
     g_psi        :      7.80s CPU      7.80s WALL (     550 calls)
     cdiaghg      :    168.34s CPU    168.42s WALL (     694 calls)

     Called by h_psi:
     h_psi:pot    :   1343.11s CPU   1425.34s WALL (     702 calls)
     h_psi:calbec :    245.21s CPU    245.71s WALL (     702 calls)
     vloc_psi     :    842.77s CPU    924.41s WALL (     702 calls)
     add_vuspsi   :    255.13s CPU    255.21s WALL (     702 calls)

     General routines
     calbec       :    352.40s CPU    353.11s WALL (     886 calls)
     fft          :      2.35s CPU      2.81s WALL (     271 calls)
     fftw         :    895.49s CPU    988.82s WALL (  245838 calls)
 
     Parallel routines
     fft_scatter  :    150.22s CPU    236.01s WALL (  246109 calls)
 
     PWSCF        : 51m39.66s CPU    54m41.08s WALL

 
   This run was terminated on:  18:40:39  20Dec2017            

=------------------------------------------------------------------------------=
   JOB DONE.
=------------------------------------------------------------------------------=
