
     Program PWSCF v.6.1 (svn rev. 13369) starts on  4Nov2017 at  5:50:47 

     This program is part of the open-source Quantum ESPRESSO suite
     for quantum simulation of materials; please cite
         "P. Giannozzi et al., J. Phys.:Condens. Matter 21 395502 (2009);
          URL http://www.quantum-espresso.org", 
     in publications or presentations arising from this work. More details at
     http://www.quantum-espresso.org/quote

     Parallel version (MPI), running on     8 processors
     R & G space division:  proc/nbgrp/npool/nimage =       8
     Waiting for input...
     Reading input from standard input

     Current dimensions of program PWSCF are:
     Max number of different atomic species (ntypx) = 10
     Max number of k-points (npk) =  40000
     Max angular momentum in pseudopotentials (lmaxx) =  3
               file C.pbe-n-kjpaw_psl.0.1.UPF: wavefunction(s)  2P renormalized
               file N.pbe-n-kjpaw_psl.0.1.UPF: wavefunction(s)  2P renormalized
               file H.pbe-kjpaw_psl.0.1.UPF: wavefunction(s)  1S renormalized
               file O.pbe-n-kjpaw_psl.0.1.UPF: wavefunction(s)  2P renormalized

     -------------------------------------
     Parameters for Dispersion Correction:
     -------------------------------------
       atom      VdW radius       C_6     

        C          2.744         60.710
        N          2.640         42.670
        H          1.892          4.857
        O          2.536         24.284

     Subspace diagonalization in iterative solution of the eigenvalue problem:
     a serial algorithm will be used

 
     Parallelization info
     --------------------
     sticks:   dense  smooth     PW     G-vecs:    dense   smooth      PW
     Min        1306    1306    345                73011    73011    9996
     Max        1307    1307    346                73013    73013    9997
     Sum       10453   10453   2765               584095   584095   79973
 


     bravais-lattice index     =            0
     lattice parameter (alat)  =      14.0123  a.u.
     unit-cell volume          =    4323.3136 (a.u.)^3
     number of atoms/cell      =           64
     number of atomic types    =            4
     number of electrons       =       244.00
     number of Kohn-Sham states=          146
     kinetic-energy cutoff     =     100.0000  Ry
     charge density cutoff     =     400.0000  Ry
     convergence threshold     =      1.0E-08
     mixing beta               =       0.5000
     number of iterations used =            8  plain     mixing
     Exchange-correlation      =  SLA  PW   PBX  PBC ( 1  4  3  4 0 0)

     celldm(1)=  14.012319  celldm(2)=   0.000000  celldm(3)=   0.000000
     celldm(4)=   0.000000  celldm(5)=   0.000000  celldm(6)=   0.000000

     crystal axes: (cart. coord. in units of alat)
               a(1) = (   1.000000   0.000000   0.000000 )  
               a(2) = (   0.000000   1.671746   0.000000 )  
               a(3) = (  -0.479975   0.000000   0.939975 )  

     reciprocal axes: (cart. coord. in units 2 pi/alat)
               b(1) = (  1.000000  0.000000  0.510625 )  
               b(2) = (  0.000000  0.598177  0.000000 )  
               b(3) = (  0.000000  0.000000  1.063858 )  


     PseudoPot. # 1 for  C read from file:
     /scratch/ahofstet/pseudo/C.pbe-n-kjpaw_psl.0.1.UPF
     MD5 check sum: 430fe95172b1e11ef3f8ed03bac87931
     Pseudo is Projector augmented-wave + core cor, Zval =  4.0
     Generated using "atomic" code by A. Dal Corso  v.5.0.99 svn rev. 10869
     Shape of augmentation charge: BESSEL
     Using radial grid of 1073 points,  4 beta functions with: 
                l(1) =   0
                l(2) =   0
                l(3) =   1
                l(4) =   1
     Q(r) pseudized with 0 coefficients 


     PseudoPot. # 2 for  N read from file:
     /scratch/ahofstet/pseudo/N.pbe-n-kjpaw_psl.0.1.UPF
     MD5 check sum: f73187c8b701007e77325f868c9291d7
     Pseudo is Projector augmented-wave + core cor, Zval =  5.0
     Generated using "atomic" code by A. Dal Corso  v.5.0.99 svn rev. 10869
     Shape of augmentation charge: PSQ
     Using radial grid of 1085 points,  4 beta functions with: 
                l(1) =   0
                l(2) =   0
                l(3) =   1
                l(4) =   1
     Q(r) pseudized with 0 coefficients 


     PseudoPot. # 3 for  H read from file:
     /scratch/ahofstet/pseudo/H.pbe-kjpaw_psl.0.1.UPF
     MD5 check sum: 94e484f906d9e9773b2f6e52662335b2
     Pseudo is Projector augmented-wave, Zval =  1.0
     Generated using "atomic" code by A. Dal Corso  v.5.0.99 svn rev. 10869
     Shape of augmentation charge: PSQ
     Using radial grid of  929 points,  2 beta functions with: 
                l(1) =   0
                l(2) =   0
     Q(r) pseudized with 0 coefficients 


     PseudoPot. # 4 for  O read from file:
     /scratch/ahofstet/pseudo/O.pbe-n-kjpaw_psl.0.1.UPF
     MD5 check sum: 3f94a2996a3169367d6eb21d9b593f20
     Pseudo is Projector augmented-wave + core cor, Zval =  6.0
     Generated using "atomic" code by A. Dal Corso  v.5.0.99 svn rev. 10869
     Shape of augmentation charge: BESSEL
     Using radial grid of 1095 points,  4 beta functions with: 
                l(1) =   0
                l(2) =   0
                l(3) =   1
                l(4) =   1
     Q(r) pseudized with 0 coefficients 


     atomic species   valence    mass     pseudopotential
        C              4.00    12.01070      C( 1.00)
        N              5.00    14.00670      N( 1.00)
        H              1.00     1.00794      H( 1.00)
        O              6.00    15.99940      O( 1.00)

      2 Sym. Ops., with inversion, found



   Cartesian axes

     site n.     atom                  positions (alat units)
         1           N   tau(   1) = (   0.8877389   0.2054396   0.1018937  )
         2           N   tau(   2) = (  -0.1277359   1.0413145   0.3682038  )
         3           N   tau(   3) = (  -0.3677138   1.4663068   0.8380812  )
         4           N   tau(   4) = (   0.6477611   0.6304320   0.5717711  )
         5           C   tau(   5) = (   0.2575660   0.2096624   0.9387635  )
         6           C   tau(   6) = (   0.0224641   1.0455377   0.4713038  )
         7           C   tau(   7) = (   0.2624592   1.4620841   0.0012114  )
         8           C   tau(   8) = (   0.4975611   0.6262088   0.4686712  )
         9           C   tau(   9) = (   0.5703479   0.2115885   0.0848570  )
        10           C   tau(  10) = (   0.1896542   1.0474675   0.3852316  )
        11           C   tau(  11) = (  -0.0503227   1.4601580   0.8551179  )
        12           C   tau(  12) = (   0.3303710   0.6242789   0.5547433  )
        13           C   tau(  13) = (   0.5670820   0.2053959   0.2739979  )
        14           C   tau(  14) = (   0.1929180   1.0412768   0.1960884  )
        15           C   tau(  15) = (  -0.0470569   1.4663506   0.6659770  )
        16           C   tau(  16) = (   0.3271071   0.6304697   0.7438865  )
        17           C   tau(  17) = (   0.7251313   0.2024796   0.3740381  )
        18           C   tau(  18) = (   0.0348650   1.0383543   0.0960565  )
        19           C   tau(  19) = (  -0.2051061   1.4692669   0.5659368  )
        20           C   tau(  20) = (   0.4851601   0.6333921   0.8439184  )
        21           C   tau(  21) = (  -0.1117131   0.2034427   0.2827014  )
        22           C   tau(  22) = (   0.8717129   1.0393155   0.1873991  )
        23           C   tau(  23) = (   0.6317383   1.4683037   0.6572735  )
        24           C   tau(  24) = (  -0.3516877   0.6324309   0.7525758  )
        25           C   tau(  25) = (   0.2986372   0.2062839   0.7388037  )
        26           C   tau(  26) = (  -0.0186016   1.0421534   0.6712606  )
        27           C   tau(  27) = (   0.2213880   1.4654626   0.2011712  )
        28           C   tau(  28) = (   0.5386268   0.6295930   0.2687143  )
        29           C   tau(  29) = (  -0.0896346   0.2175133   0.9325445  )
        30           C   tau(  30) = (   0.3696657   1.0533881   0.4775112  )
        31           C   tau(  31) = (   0.6096597   1.4542331   0.0074304  )
        32           C   tau(  32) = (   0.1503594   0.6183583   0.4624637  )
        33           O   tau(  33) = (   0.4608816   0.1929697   0.6924785  )
        34           O   tau(  34) = (  -0.1808490   1.0288386   0.7175781  )
        35           O   tau(  35) = (   0.0591436   1.4787768   0.2474964  )
        36           O   tau(  36) = (   0.7008741   0.6429079   0.2223968  )
        37           O   tau(  37) = (   0.1713010   0.2198362   0.6257880  )
        38           O   tau(  38) = (   0.1087341   1.0557011   0.7842758  )
        39           O   tau(  39) = (   0.3487242   1.4519103   0.3141869  )
        40           O   tau(  40) = (   0.4112910   0.6160454   0.1556991  )
        41           O   tau(  41) = (  -0.1014931   0.2576775   0.7666340  )
        42           O   tau(  42) = (   0.3815378   1.0935627   0.6434172  )
        43           O   tau(  43) = (   0.6215183   1.4140690   0.1733409  )
        44           O   tau(  44) = (   0.1384874   0.5781838   0.2965577  )
        45           O   tau(  45) = (   0.2522479   0.1837206   0.0850958  )
        46           O   tau(  46) = (   0.5077503   1.0195901   0.3849746  )
        47           O   tau(  47) = (   0.2677773   1.4880258   0.8548791  )
        48           O   tau(  48) = (   0.0122748   0.6521564   0.5550003  )
        49           H   tau(  49) = (   0.4370800   0.2037518   0.3415961  )
        50           H   tau(  50) = (   0.3229163   1.0396372   0.1284806  )
        51           H   tau(  51) = (   0.0829451   1.4679946   0.5983788  )
        52           H   tau(  52) = (   0.1971089   0.6321093   0.8114943  )
        53           H   tau(  53) = (   0.7221232   0.1990443   0.5202208  )
        54           H   tau(  54) = (  -0.4421046   1.0349172   0.8898475  )
        55           H   tau(  55) = (  -0.2020980   1.4727022   0.4197541  )
        56           H   tau(  56) = (   0.9621298   0.6368293   0.0501274  )
        57           H   tau(  57) = (   0.0194137   0.2020157   0.3472293  )
        58           H   tau(  58) = (   0.7405876   1.0378871   0.1228680  )
        59           H   tau(  59) = (   0.5006115   1.4697307   0.5927456  )
        60           H   tau(  60) = (  -0.2205625   0.6338594   0.8171069  )
        61           H   tau(  61) = (   0.0131427   0.2036276   0.0383085  )
        62           H   tau(  62) = (   0.7468602   1.0395013   0.4317867  )
        63           H   tau(  63) = (   0.5068825   1.4681189   0.9016664  )
        64           H   tau(  64) = (  -0.2268351   0.6322451   0.5081882  )

     number of k points=    10
                       cart. coord. in units 2pi/alat
        k(    1) = (   0.0000000   0.0000000   0.0000000), wk =   0.1111111
        k(    2) = (   0.0000000   0.0000000   0.3546194), wk =   0.2222222
        k(    3) = (   0.0000000  -0.2990884   0.0000000), wk =   0.1111111
        k(    4) = (   0.0000000  -0.2990884   0.3546194), wk =   0.2222222
        k(    5) = (   0.3333333   0.0000000   0.1702084), wk =   0.2222222
        k(    6) = (   0.3333333   0.0000000   0.5248278), wk =   0.2222222
        k(    7) = (   0.3333333   0.0000000  -0.1844110), wk =   0.2222222
        k(    8) = (   0.3333333  -0.2990884   0.1702084), wk =   0.2222222
        k(    9) = (   0.3333333  -0.2990884   0.5248278), wk =   0.2222222
        k(   10) = (   0.3333333  -0.2990884  -0.1844110), wk =   0.2222222

     Dense  grid:   584095 G-vectors     FFT dimensions: (  90, 150,  96)

     Estimated max dynamical RAM per process >     499.21MB

     Estimated total allocated dynamical RAM >    3993.68MB

     Check: negative/imaginary core charge=   -0.000003    0.000000

     Initial potential from superposition of free atoms

     starting charge  243.99863, renormalised to  244.00000
     Starting wfc are  208 randomized atomic wfcs
     Checking if some PAW data can be deallocated... 

     total cpu time spent up to now is       30.6 secs

     per-process dynamical memory:   422.8 Mb

     Self-consistent Calculation

     iteration #  1     ecut=   100.00 Ry     beta=0.50
     Davidson diagonalization with overlap
     ethr =  1.00E-02,  avg # of iterations =  3.0

     total cpu time spent up to now is      112.5 secs

     total energy              =   -1313.07788563 Ry
     Harris-Foulkes estimate   =   -1316.33730068 Ry
     estimated scf accuracy    <       6.12722915 Ry

     iteration #  2     ecut=   100.00 Ry     beta=0.50
     Davidson diagonalization with overlap
     ethr =  2.51E-03,  avg # of iterations =  3.0

     total cpu time spent up to now is      161.2 secs

     total energy              =   -1312.90813707 Ry
     Harris-Foulkes estimate   =   -1314.39109312 Ry
     estimated scf accuracy    <       3.09604579 Ry

     iteration #  3     ecut=   100.00 Ry     beta=0.50
     Davidson diagonalization with overlap
     ethr =  1.27E-03,  avg # of iterations =  7.3

     total cpu time spent up to now is      226.3 secs

     total energy              =   -1313.53405669 Ry
     Harris-Foulkes estimate   =   -1315.45970726 Ry
     estimated scf accuracy    <       8.01724963 Ry

     iteration #  4     ecut=   100.00 Ry     beta=0.50
     Davidson diagonalization with overlap
     ethr =  1.27E-03,  avg # of iterations =  2.9

     total cpu time spent up to now is      271.1 secs

     total energy              =   -1313.87709347 Ry
     Harris-Foulkes estimate   =   -1314.44005066 Ry
     estimated scf accuracy    <       2.30226419 Ry

     iteration #  5     ecut=   100.00 Ry     beta=0.50
     Davidson diagonalization with overlap
     ethr =  9.44E-04,  avg # of iterations =  1.9

     total cpu time spent up to now is      313.9 secs

     total energy              =   -1314.24354203 Ry
     Harris-Foulkes estimate   =   -1314.50664320 Ry
     estimated scf accuracy    <       2.04133873 Ry

     iteration #  6     ecut=   100.00 Ry     beta=0.50
     Davidson diagonalization with overlap
     ethr =  8.37E-04,  avg # of iterations =  1.1

     total cpu time spent up to now is      355.6 secs

     total energy              =   -1314.15784356 Ry
     Harris-Foulkes estimate   =   -1314.32537082 Ry
     estimated scf accuracy    <       1.88087393 Ry

     iteration #  7     ecut=   100.00 Ry     beta=0.50
     Davidson diagonalization with overlap
     ethr =  7.71E-04,  avg # of iterations =  1.0

     total cpu time spent up to now is      397.1 secs

     total energy              =   -1314.15833403 Ry
     Harris-Foulkes estimate   =   -1314.26124002 Ry
     estimated scf accuracy    <       1.21801298 Ry

     iteration #  8     ecut=   100.00 Ry     beta=0.50
     Davidson diagonalization with overlap
     ethr =  4.99E-04,  avg # of iterations =  1.8

     total cpu time spent up to now is      439.4 secs

     total energy              =   -1314.20929667 Ry
     Harris-Foulkes estimate   =   -1314.32866022 Ry
     estimated scf accuracy    <       1.44576355 Ry

     iteration #  9     ecut=   100.00 Ry     beta=0.50
     Davidson diagonalization with overlap
     ethr =  4.99E-04,  avg # of iterations =  2.6

     total cpu time spent up to now is      482.4 secs

     total energy              =   -1314.25433591 Ry
     Harris-Foulkes estimate   =   -1314.29077861 Ry
     estimated scf accuracy    <       1.32003106 Ry

     iteration # 10     ecut=   100.00 Ry     beta=0.50
     Davidson diagonalization with overlap
     ethr =  4.99E-04,  avg # of iterations =  1.0

     total cpu time spent up to now is      523.9 secs

     total energy              =   -1314.19674093 Ry
     Harris-Foulkes estimate   =   -1314.26416148 Ry
     estimated scf accuracy    <       1.20655901 Ry

     iteration # 11     ecut=   100.00 Ry     beta=0.50
     Davidson diagonalization with overlap
     ethr =  4.94E-04,  avg # of iterations =  1.0

     total cpu time spent up to now is      565.5 secs

     total energy              =   -1314.28270355 Ry
     Harris-Foulkes estimate   =   -1314.31911476 Ry
     estimated scf accuracy    <       1.37744075 Ry

     iteration # 12     ecut=   100.00 Ry     beta=0.50
     Davidson diagonalization with overlap
     ethr =  4.94E-04,  avg # of iterations =  1.0

     total cpu time spent up to now is      607.1 secs

     total energy              =   -1314.27751605 Ry
     Harris-Foulkes estimate   =   -1314.28551227 Ry
     estimated scf accuracy    <       1.30277856 Ry

     iteration # 13     ecut=   100.00 Ry     beta=0.50
     Davidson diagonalization with overlap
     ethr =  4.94E-04,  avg # of iterations =  1.0

     total cpu time spent up to now is      648.8 secs

     total energy              =   -1314.23988897 Ry
     Harris-Foulkes estimate   =   -1314.27944300 Ry
     estimated scf accuracy    <       1.27129044 Ry

     iteration # 14     ecut=   100.00 Ry     beta=0.50
     Davidson diagonalization with overlap
     ethr =  4.94E-04,  avg # of iterations =  1.8

     total cpu time spent up to now is      691.2 secs

     total energy              =   -1314.26233926 Ry
     Harris-Foulkes estimate   =   -1314.28286079 Ry
     estimated scf accuracy    <       1.27055474 Ry

     iteration # 15     ecut=   100.00 Ry     beta=0.50
     Davidson diagonalization with overlap
     ethr =  4.94E-04,  avg # of iterations =  1.0

     total cpu time spent up to now is      732.9 secs

     total energy              =   -1314.26574156 Ry
     Harris-Foulkes estimate   =   -1314.26569406 Ry
     estimated scf accuracy    <       0.00326027 Ry

     iteration # 16     ecut=   100.00 Ry     beta=0.50
     Davidson diagonalization with overlap
     c_bands:  3 eigenvalues not converged
     c_bands:  2 eigenvalues not converged
     c_bands:  4 eigenvalues not converged
     ethr =  1.34E-06,  avg # of iterations = 16.4

     total cpu time spent up to now is      843.7 secs

     total energy              =   -1314.25248896 Ry
     Harris-Foulkes estimate   =   -1314.27089783 Ry
     estimated scf accuracy    <       1.20939728 Ry

     iteration # 17     ecut=   100.00 Ry     beta=0.50
     Davidson diagonalization with overlap
     c_bands:  1 eigenvalues not converged
     c_bands:  1 eigenvalues not converged
     ethr =  1.34E-06,  avg # of iterations =  9.7

     total cpu time spent up to now is      894.3 secs

     total energy              =   -1314.25126700 Ry
     Harris-Foulkes estimate   =   -1314.27709686 Ry
     estimated scf accuracy    <       1.24778553 Ry

     iteration # 18     ecut=   100.00 Ry     beta=0.50
     Davidson diagonalization with overlap
     c_bands:  1 eigenvalues not converged
     c_bands:  2 eigenvalues not converged
     c_bands:  2 eigenvalues not converged
     ethr =  1.34E-06,  avg # of iterations =  9.5

     total cpu time spent up to now is      945.2 secs

     total energy              =   -1314.28313511 Ry
     Harris-Foulkes estimate   =   -1314.27787164 Ry
     estimated scf accuracy    <       1.25196727 Ry

     iteration # 19     ecut=   100.00 Ry     beta=0.50
     Davidson diagonalization with overlap
     c_bands:  1 eigenvalues not converged
     ethr =  1.34E-06,  avg # of iterations =  3.2

     total cpu time spent up to now is      988.9 secs

     total energy              =   -1314.28213371 Ry
     Harris-Foulkes estimate   =   -1314.28327198 Ry
     estimated scf accuracy    <       1.27504668 Ry

     iteration # 20     ecut=   100.00 Ry     beta=0.50
     Davidson diagonalization with overlap
     ethr =  1.34E-06,  avg # of iterations =  1.1

     total cpu time spent up to now is     1030.6 secs

     total energy              =   -1314.27184250 Ry
     Harris-Foulkes estimate   =   -1314.28219768 Ry
     estimated scf accuracy    <       1.26634164 Ry

     iteration # 21     ecut=   100.00 Ry     beta=0.50
     Davidson diagonalization with overlap
     ethr =  1.34E-06,  avg # of iterations =  1.0

     total cpu time spent up to now is     1072.2 secs

     total energy              =   -1314.26679812 Ry
     Harris-Foulkes estimate   =   -1314.27189513 Ry
     estimated scf accuracy    <       1.22500617 Ry

     iteration # 22     ecut=   100.00 Ry     beta=0.50
     Davidson diagonalization with overlap
     ethr =  1.34E-06,  avg # of iterations =  1.0

     total cpu time spent up to now is     1113.9 secs

     total energy              =   -1314.26827922 Ry
     Harris-Foulkes estimate   =   -1314.26792063 Ry
     estimated scf accuracy    <       0.05299451 Ry

     iteration # 23     ecut=   100.00 Ry     beta=0.50
     Davidson diagonalization with overlap
     ethr =  1.34E-06,  avg # of iterations =  1.0

     total cpu time spent up to now is     1155.5 secs

     total energy              =   -1314.26873293 Ry
     Harris-Foulkes estimate   =   -1314.26869061 Ry
     estimated scf accuracy    <       0.81339905 Ry

     iteration # 24     ecut=   100.00 Ry     beta=0.50
     Davidson diagonalization with overlap
     ethr =  1.34E-06,  avg # of iterations =  1.0

     total cpu time spent up to now is     1197.2 secs

     total energy              =   -1314.26625065 Ry
     Harris-Foulkes estimate   =   -1314.26874017 Ry
     estimated scf accuracy    <       0.87589701 Ry

     iteration # 25     ecut=   100.00 Ry     beta=0.50
     Davidson diagonalization with overlap
     ethr =  1.34E-06,  avg # of iterations =  1.0

     total cpu time spent up to now is     1238.9 secs

     total energy              =   -1314.26765675 Ry
     Harris-Foulkes estimate   =   -1314.26777806 Ry
     estimated scf accuracy    <       0.00175354 Ry

     iteration # 26     ecut=   100.00 Ry     beta=0.50
     Davidson diagonalization with overlap
     ethr =  7.19E-07,  avg # of iterations =  1.0

     total cpu time spent up to now is     1280.5 secs

     total energy              =   -1314.26795235 Ry
     Harris-Foulkes estimate   =   -1314.26775250 Ry
     estimated scf accuracy    <       0.00429300 Ry

     iteration # 27     ecut=   100.00 Ry     beta=0.50
     Davidson diagonalization with overlap
     ethr =  7.19E-07,  avg # of iterations =  1.0

     total cpu time spent up to now is     1322.2 secs

     total energy              =   -1314.26898525 Ry
     Harris-Foulkes estimate   =   -1314.27101136 Ry
     estimated scf accuracy    <       1.20699750 Ry

     iteration # 28     ecut=   100.00 Ry     beta=0.50
     Davidson diagonalization with overlap
     ethr =  7.19E-07,  avg # of iterations =  1.0

     total cpu time spent up to now is     1363.8 secs

     total energy              =   -1314.26825135 Ry
     Harris-Foulkes estimate   =   -1314.26904343 Ry
     estimated scf accuracy    <       1.04775575 Ry

     iteration # 29     ecut=   100.00 Ry     beta=0.50
     Davidson diagonalization with overlap
     ethr =  7.19E-07,  avg # of iterations =  1.0

     total cpu time spent up to now is     1405.5 secs

     total energy              =   -1314.26806616 Ry
     Harris-Foulkes estimate   =   -1314.26834345 Ry
     estimated scf accuracy    <       0.49419036 Ry

     iteration # 30     ecut=   100.00 Ry     beta=0.50
     Davidson diagonalization with overlap
     ethr =  7.19E-07,  avg # of iterations =  1.0

     total cpu time spent up to now is     1447.1 secs

     total energy              =   -1314.26797857 Ry
     Harris-Foulkes estimate   =   -1314.26812015 Ry
     estimated scf accuracy    <       0.21260708 Ry

     iteration # 31     ecut=   100.00 Ry     beta=0.50
     Davidson diagonalization with overlap
     ethr =  7.19E-07,  avg # of iterations =  1.0

     total cpu time spent up to now is     1488.7 secs

     total energy              =   -1314.26788910 Ry
     Harris-Foulkes estimate   =   -1314.26799370 Ry
     estimated scf accuracy    <       0.13967500 Ry

     iteration # 32     ecut=   100.00 Ry     beta=0.50
     Davidson diagonalization with overlap
     ethr =  7.19E-07,  avg # of iterations =  1.0

     total cpu time spent up to now is     1530.3 secs

     total energy              =   -1314.26769748 Ry
     Harris-Foulkes estimate   =   -1314.26789742 Ry
     estimated scf accuracy    <       0.09933118 Ry

     iteration # 33     ecut=   100.00 Ry     beta=0.50
     Davidson diagonalization with overlap
     ethr =  7.19E-07,  avg # of iterations =  1.0

     total cpu time spent up to now is     1572.0 secs

     total energy              =   -1314.26767161 Ry
     Harris-Foulkes estimate   =   -1314.26774893 Ry
     estimated scf accuracy    <       0.01177179 Ry

     iteration # 34     ecut=   100.00 Ry     beta=0.50
     Davidson diagonalization with overlap
     ethr =  7.19E-07,  avg # of iterations =  1.0

     total cpu time spent up to now is     1613.6 secs

     total energy              =   -1314.26766219 Ry
     Harris-Foulkes estimate   =   -1314.26769817 Ry
     estimated scf accuracy    <       0.00264528 Ry

     iteration # 35     ecut=   100.00 Ry     beta=0.50
     Davidson diagonalization with overlap
     ethr =  7.19E-07,  avg # of iterations =  1.0

     total cpu time spent up to now is     1655.3 secs

     total energy              =   -1314.26767274 Ry
     Harris-Foulkes estimate   =   -1314.26767563 Ry
     estimated scf accuracy    <       0.00048267 Ry

     iteration # 36     ecut=   100.00 Ry     beta=0.50
     Davidson diagonalization with overlap
     ethr =  1.98E-07,  avg # of iterations =  1.0

     total cpu time spent up to now is     1696.9 secs

     total energy              =   -1314.26766961 Ry
     Harris-Foulkes estimate   =   -1314.26767502 Ry
     estimated scf accuracy    <       0.00048426 Ry

     iteration # 37     ecut=   100.00 Ry     beta=0.50
     Davidson diagonalization with overlap
     ethr =  1.98E-07,  avg # of iterations =  1.0

     total cpu time spent up to now is     1738.5 secs

     total energy              =   -1314.26766726 Ry
     Harris-Foulkes estimate   =   -1314.26767110 Ry
     estimated scf accuracy    <       0.00021613 Ry

     iteration # 38     ecut=   100.00 Ry     beta=0.50
     Davidson diagonalization with overlap
     ethr =  8.86E-08,  avg # of iterations =  1.0

     total cpu time spent up to now is     1780.2 secs

     total energy              =   -1314.26766889 Ry
     Harris-Foulkes estimate   =   -1314.26766888 Ry
     estimated scf accuracy    <       0.00006339 Ry

     iteration # 39     ecut=   100.00 Ry     beta=0.50
     Davidson diagonalization with overlap
     ethr =  2.60E-08,  avg # of iterations =  1.0

     total cpu time spent up to now is     1821.8 secs

     total energy              =   -1314.26766910 Ry
     Harris-Foulkes estimate   =   -1314.26766919 Ry
     estimated scf accuracy    <       0.00008236 Ry

     iteration # 40     ecut=   100.00 Ry     beta=0.50
     Davidson diagonalization with overlap
     ethr =  2.60E-08,  avg # of iterations =  1.0

     total cpu time spent up to now is     1863.3 secs

     total energy              =   -1314.26766911 Ry
     Harris-Foulkes estimate   =   -1314.26766926 Ry
     estimated scf accuracy    <       0.00008291 Ry

     iteration # 41     ecut=   100.00 Ry     beta=0.50
     Davidson diagonalization with overlap
     ethr =  2.60E-08,  avg # of iterations =  1.0

     total cpu time spent up to now is     1904.9 secs

     total energy              =   -1314.26766810 Ry
     Harris-Foulkes estimate   =   -1314.26766920 Ry
     estimated scf accuracy    <       0.00007493 Ry

     iteration # 42     ecut=   100.00 Ry     beta=0.50
     Davidson diagonalization with overlap
     ethr =  2.60E-08,  avg # of iterations =  1.0

     total cpu time spent up to now is     1946.5 secs

     total energy              =   -1314.26766770 Ry
     Harris-Foulkes estimate   =   -1314.26766845 Ry
     estimated scf accuracy    <       0.00002387 Ry

     iteration # 43     ecut=   100.00 Ry     beta=0.50
     Davidson diagonalization with overlap
     ethr =  9.78E-09,  avg # of iterations =  1.0

     total cpu time spent up to now is     1988.0 secs

     total energy              =   -1314.26766796 Ry
     Harris-Foulkes estimate   =   -1314.26766809 Ry
     estimated scf accuracy    <       0.00000086 Ry

     iteration # 44     ecut=   100.00 Ry     beta=0.50
     Davidson diagonalization with overlap
     ethr =  3.53E-10,  avg # of iterations =  2.7

     total cpu time spent up to now is     2032.7 secs

     total energy              =   -1314.26766804 Ry
     Harris-Foulkes estimate   =   -1314.26766809 Ry
     estimated scf accuracy    <       0.00000016 Ry

     iteration # 45     ecut=   100.00 Ry     beta=0.50
     Davidson diagonalization with overlap
     ethr =  6.71E-11,  avg # of iterations =  4.0

     total cpu time spent up to now is     2101.8 secs

     total energy              =   -1314.26766811 Ry
     Harris-Foulkes estimate   =   -1314.26766812 Ry
     estimated scf accuracy    <       0.00000004 Ry

     iteration # 46     ecut=   100.00 Ry     beta=0.50
     Davidson diagonalization with overlap
     ethr =  1.71E-11,  avg # of iterations =  1.0

     total cpu time spent up to now is     2143.3 secs

     End of self-consistent calculation

          k = 0.0000 0.0000 0.0000 ( 72971 PWs)   bands (ev):

   -19.8616 -19.8157 -19.7986 -19.7535 -19.5702 -19.5526 -19.5401 -19.5210
   -18.2038 -18.2024 -18.1897 -18.1890 -17.2543 -17.2393 -17.2339 -17.2184
   -17.0221 -17.0139 -17.0137 -17.0054 -13.7469 -13.7439 -13.7101 -13.7083
   -12.9960 -12.9616 -12.9361 -12.8986  -9.9928  -9.9686  -9.9082  -9.8817
    -9.4116  -9.4082  -9.3379  -9.3357  -8.0011  -7.9707  -7.9575  -7.9212
    -6.7507  -6.7189  -6.6932  -6.6652  -6.3156  -6.3058  -6.2768  -6.2629
    -5.7231  -5.7005  -5.6764  -5.6525  -5.0078  -4.9828  -4.9509  -4.9289
    -4.8839  -4.4405  -4.4346  -4.3240  -4.3167  -4.3050  -4.2756  -4.0856
    -4.0794  -4.0593  -4.0491  -4.0221  -3.7767  -3.7610  -3.7351  -3.7065
    -3.5131  -3.4300  -3.3293  -3.3235  -3.2874  -3.2594  -3.1703  -3.1632
    -3.0297  -2.9255  -2.8433  -2.7542  -2.2559  -2.2473  -2.2160  -2.1997
    -1.9857  -1.9752  -1.9546  -1.9384  -0.9806  -0.7846  -0.7698  -0.7695
    -0.4054  -0.2619  -0.2076  -0.1734  -0.1411  -0.0957  -0.0928   0.0481
     0.0565   0.1050   0.2918   0.3148   0.4810   0.4980   0.5222   0.5622
     0.5848   0.6090   0.6298   0.6932   0.8395   0.8770   0.9004   0.9063
     1.7637   1.7667   1.7743   1.7857   3.8711   4.0269   4.0507   4.3830
     4.4924   4.5167   4.5785   4.8908   6.9907   7.0434   7.1561   7.1744
     7.3192   7.4428   7.4928   7.4967   7.7692   8.4828   8.7379   8.8504
     9.6538   9.8274

          k = 0.0000 0.0000 0.3546 ( 73023 PWs)   bands (ev):

   -19.8464 -19.8231 -19.7860 -19.7635 -19.5676 -19.5586 -19.5350 -19.5254
   -18.2090 -18.2080 -18.1975 -18.1970 -17.2471 -17.2371 -17.2328 -17.2225
   -17.0202 -17.0160 -17.0125 -17.0084 -13.7393 -13.7386 -13.7216 -13.7200
   -12.9354 -12.9178 -12.9015 -12.8823  -9.9815  -9.9726  -9.9365  -9.9206
    -9.4264  -9.3946  -9.3894  -9.3591  -8.1254  -8.1122  -8.1072  -8.0874
    -6.8240  -6.8075  -6.7912  -6.7779  -6.1632  -6.1391  -6.1209  -6.1099
    -5.6246  -5.6098  -5.5914  -5.5804  -4.9373  -4.9285  -4.8438  -4.7966
    -4.7815  -4.5248  -4.4626  -4.4621  -4.4289  -4.4228  -4.2835  -4.1532
    -4.0508  -4.0401  -4.0196  -4.0098  -3.5617  -3.5568  -3.5048  -3.5036
    -3.4017  -3.3153  -3.3084  -3.2727  -3.2560  -3.2071  -3.1501  -3.1329
    -3.0754  -2.9741  -2.8466  -2.7622  -2.4650  -2.4508  -2.4208  -2.4056
    -2.0037  -1.9855  -1.9763  -1.9647  -0.8746  -0.8257  -0.7845  -0.7384
    -0.3390  -0.2820  -0.2353  -0.2270  -0.2180  -0.1737  -0.0644   0.0344
     0.1058   0.1719   0.2218   0.2741   0.4405   0.4638   0.4816   0.4894
     0.5074   0.5247   0.5836   0.6162   0.8360   0.8707   0.8726   0.8900
     1.7206   1.7232   1.7455   1.7499   3.9556   4.0562   4.0845   4.2340
     4.3502   4.3635   4.7287   4.8186   6.9516   7.0704   7.1320   7.1609
     7.2250   7.2988   7.5274   7.5752   8.2098   8.8526   9.1179   9.1594
     9.2748   9.6418

          k = 0.0000-0.2991 0.0000 ( 72982 PWs)   bands (ev):

   -19.8462 -19.8460 -19.7687 -19.7685 -19.5640 -19.5638 -19.5280 -19.5279
   -18.2031 -18.2031 -18.1894 -18.1893 -17.2493 -17.2493 -17.2237 -17.2236
   -17.0197 -17.0197 -17.0079 -17.0078 -13.7454 -13.7452 -13.7094 -13.7091
   -12.9838 -12.9835 -12.9125 -12.9124  -9.9826  -9.9824  -9.8932  -9.8931
    -9.4099  -9.4099  -9.3368  -9.3368  -7.9911  -7.9911  -7.9342  -7.9341
    -6.7387  -6.7386  -6.6755  -6.6754  -6.3090  -6.3090  -6.2722  -6.2722
    -5.7154  -5.7152  -5.6607  -5.6604  -4.9845  -4.9845  -4.9464  -4.9463
    -4.7552  -4.7551  -4.3307  -4.3304  -4.2871  -4.2869  -4.1438  -4.1438
    -4.0775  -4.0775  -4.0412  -4.0411  -3.7748  -3.7748  -3.7317  -3.7317
    -3.4688  -3.4688  -3.3019  -3.3018  -3.2677  -3.2675  -3.1642  -3.1641
    -3.0212  -3.0212  -2.7840  -2.7839  -2.2528  -2.2525  -2.2072  -2.2069
    -1.9798  -1.9798  -1.9470  -1.9468  -0.8936  -0.8933  -0.7661  -0.7659
    -0.3334  -0.3333  -0.1640  -0.1638  -0.1326  -0.1326  -0.0450  -0.0449
     0.1111   0.1112   0.2851   0.2852   0.4954   0.4954   0.5375   0.5377
     0.6100   0.6100   0.6553   0.6553   0.8552   0.8552   0.9062   0.9063
     1.7639   1.7639   1.7812   1.7813   3.9434   3.9436   4.1699   4.1699
     4.5164   4.5164   4.7747   4.7751   7.0036   7.0037   7.1418   7.1418
     7.4030   7.4031   7.5029   7.5029   8.0842   8.0844   8.7976   8.7977
     9.6582   9.6584

          k = 0.0000-0.2991 0.3546 ( 73004 PWs)   bands (ev):

   -19.8369 -19.8367 -19.7728 -19.7727 -19.5636 -19.5635 -19.5298 -19.5297
   -18.2086 -18.2085 -18.1973 -18.1973 -17.2438 -17.2437 -17.2261 -17.2260
   -17.0187 -17.0186 -17.0100 -17.0099 -13.7391 -13.7389 -13.7209 -13.7207
   -12.9290 -12.9288 -12.8897 -12.8896  -9.9779  -9.9778  -9.9278  -9.9277
    -9.4162  -9.4161  -9.3687  -9.3685  -8.1216  -8.1215  -8.0946  -8.0945
    -6.8176  -6.8175  -6.7828  -6.7828  -6.1532  -6.1531  -6.1136  -6.1135
    -5.6178  -5.6176  -5.5856  -5.5854  -4.9335  -4.9333  -4.8300  -4.8298
    -4.6806  -4.6804  -4.4576  -4.4574  -4.3743  -4.3741  -4.2325  -4.2323
    -4.0467  -4.0465  -4.0193  -4.0191  -3.5507  -3.5505  -3.5149  -3.5147
    -3.3866  -3.3865  -3.2876  -3.2874  -3.2261  -3.2260  -3.1390  -3.1389
    -2.9916  -2.9915  -2.8184  -2.8183  -2.4586  -2.4583  -2.4126  -2.4122
    -1.9958  -1.9955  -1.9687  -1.9686  -0.8565  -0.8562  -0.7534  -0.7532
    -0.3121  -0.3119  -0.2350  -0.2347  -0.1912  -0.1910  -0.0272  -0.0270
     0.1434   0.1435   0.2447   0.2449   0.4516   0.4516   0.4840   0.4840
     0.5440   0.5442   0.5816   0.5818   0.8501   0.8502   0.8854   0.8855
     1.7226   1.7227   1.7472   1.7473   3.9868   3.9871   4.2056   4.2058
     4.3181   4.3182   4.7842   4.7845   6.9908   6.9909   7.1674   7.1675
     7.2554   7.2556   7.5438   7.5438   8.5260   8.5261   9.1335   9.1337
     9.4444   9.4446

          k = 0.3333 0.0000 0.1702 ( 73020 PWs)   bands (ev):

   -19.8284 -19.7867 -19.7738 -19.7332 -19.5992 -19.5882 -19.5627 -19.5483
   -18.2075 -18.2059 -18.1927 -18.1912 -17.2694 -17.2666 -17.2467 -17.2427
   -17.0039 -16.9992 -16.9981 -16.9930 -13.6930 -13.6872 -13.6721 -13.6669
   -12.9674 -12.9244 -12.9234 -12.8768 -10.0516 -10.0295 -10.0070  -9.9866
    -9.4511  -9.4230  -9.3936  -9.3705  -8.2915  -8.2371  -8.2357  -8.1708
    -6.7898  -6.7664  -6.7286  -6.7075  -5.7980  -5.7974  -5.7691  -5.7626
    -5.5929  -5.5817  -5.5652  -5.5427  -4.9816  -4.9613  -4.9595  -4.8919
    -4.8793  -4.6089  -4.6074  -4.5607  -4.5418  -4.4695  -4.3924  -4.1926
    -3.9656  -3.9508  -3.9332  -3.8824  -3.5250  -3.4631  -3.4583  -3.4266
    -3.4179  -3.3989  -3.3286  -3.2806  -3.2544  -3.2340  -3.2124  -3.1799
    -3.0390  -2.9197  -2.8307  -2.7407  -2.4471  -2.4357  -2.4058  -2.3843
    -2.1804  -2.1780  -2.1639  -2.1492  -0.9307  -0.8261  -0.7471  -0.5840
    -0.3470  -0.3422  -0.3153  -0.2240  -0.1389  -0.1191  -0.0578   0.0765
     0.0831   0.2127   0.2909   0.3270   0.3837   0.4088   0.4464   0.4564
     0.4863   0.5329   0.6114   0.6871   0.7780   0.8174   0.8274   0.8392
     1.6997   1.7036   1.7132   1.7190   3.8515   3.9601   4.0091   4.2955
     4.4494   4.4554   4.5738   4.9215   6.9353   7.0226   7.0541   7.1905
     7.3247   7.4091   7.4356   7.5244   8.2629   8.9738   9.1844   9.3131
     9.3803   9.8541

          k = 0.3333 0.0000 0.5248 ( 72992 PWs)   bands (ev):

   -19.8123 -19.7974 -19.7613 -19.7460 -19.5954 -19.5951 -19.5560 -19.5543
   -18.2081 -18.2074 -18.1963 -18.1929 -17.2657 -17.2632 -17.2492 -17.2471
   -17.0033 -17.0030 -16.9981 -16.9976 -13.6818 -13.6780 -13.6748 -13.6719
   -12.9329 -12.9043 -12.9041 -12.8747 -10.0849 -10.0631 -10.0363 -10.0201
    -9.4333  -9.4038  -9.3945  -9.3691  -8.3303  -8.3029  -8.2899  -8.2565
    -6.7685  -6.7396  -6.7336  -6.7097  -5.7542  -5.7219  -5.7096  -5.6811
    -5.5668  -5.5526  -5.5304  -5.5205  -4.9399  -4.9116  -4.9050  -4.8499
    -4.7964  -4.6583  -4.6100  -4.5557  -4.5108  -4.4883  -4.4356  -4.2437
    -4.0599  -4.0490  -4.0145  -3.9745  -3.5669  -3.4926  -3.4803  -3.4482
    -3.3642  -3.3002  -3.2997  -3.2284  -3.2031  -3.1995  -3.1553  -3.1391
    -3.0509  -2.9742  -2.9113  -2.7582  -2.4972  -2.4797  -2.4720  -2.4487
    -2.0822  -2.0750  -2.0626  -2.0540  -0.8669  -0.8041  -0.7372  -0.6757
    -0.4074  -0.3364  -0.2975  -0.2694  -0.1510  -0.1172  -0.0396   0.0262
     0.1307   0.2064   0.2421   0.3421   0.4029   0.4210   0.4434   0.4587
     0.5106   0.5590   0.5784   0.6428   0.7298   0.7641   0.7756   0.7857
     1.6760   1.6798   1.7022   1.7031   3.9427   3.9746   4.0341   4.2773
     4.3289   4.3623   4.5839   4.8282   6.9573   6.9604   7.0686   7.2141
     7.3796   7.4323   7.4782   7.5672   8.7731   8.9706   9.1192   9.5611
     9.8022   9.8161

          k = 0.3333 0.0000-0.1844 ( 72985 PWs)   bands (ev):

   -19.8203 -19.7927 -19.7670 -19.7421 -19.6008 -19.5891 -19.5617 -19.5489
   -18.2031 -18.2008 -18.1903 -18.1886 -17.2654 -17.2615 -17.2590 -17.2539
   -17.0062 -17.0010 -17.0000 -16.9944 -13.6850 -13.6836 -13.6588 -13.6573
   -12.9535 -12.9366 -12.9098 -12.8914 -10.1255 -10.1204 -10.0436 -10.0373
    -9.3876  -9.3691  -9.3597  -9.3392  -8.2397  -8.2271  -8.2156  -8.2020
    -6.6797  -6.6442  -6.6391  -6.6064  -5.9045  -5.8652  -5.8629  -5.8152
    -5.6127  -5.6111  -5.5924  -5.5911  -4.8934  -4.8922  -4.8502  -4.8490
    -4.8252  -4.5269  -4.4974  -4.4368  -4.4098  -4.3639  -4.3260  -4.3231
    -4.2797  -4.2479  -4.1944  -4.1805  -3.6567  -3.6469  -3.6323  -3.6322
    -3.3826  -3.3651  -3.3339  -3.3023  -3.2431  -3.2195  -3.1582  -3.1396
    -3.0406  -2.9447  -2.9135  -2.8443  -2.3224  -2.3201  -2.2975  -2.2868
    -1.9946  -1.9749  -1.9744  -1.9617  -0.8622  -0.7962  -0.7770  -0.7329
    -0.4078  -0.3711  -0.2120  -0.1902  -0.1225  -0.0396  -0.0369  -0.0117
     0.1214   0.2319   0.2583   0.3113   0.4185   0.4569   0.4591   0.4999
     0.5561   0.5827   0.5857   0.6325   0.7512   0.7861   0.7914   0.7987
     1.6909   1.6921   1.7127   1.7185   3.8991   3.9933   4.0686   4.2941
     4.4394   4.4551   4.5372   4.6736   6.9319   7.0045   7.1612   7.3035
     7.3624   7.4652   7.5674   7.6332   8.2888   8.9108   9.2602   9.3735
     9.6661   9.6922

          k = 0.3333-0.2991 0.1702 ( 73066 PWs)   bands (ev):

   -19.8147 -19.8145 -19.7466 -19.7464 -19.5948 -19.5947 -19.5545 -19.5544
   -18.2067 -18.2067 -18.1920 -18.1920 -17.2681 -17.2681 -17.2446 -17.2446
   -17.0024 -17.0024 -16.9947 -16.9947 -13.6906 -13.6903 -13.6693 -13.6691
   -12.9551 -12.9549 -12.8910 -12.8909 -10.0431 -10.0430  -9.9944  -9.9943
    -9.4398  -9.4397  -9.3793  -9.3793  -8.2764  -8.2763  -8.1913  -8.1913
    -6.7800  -6.7799  -6.7162  -6.7161  -5.7976  -5.7975  -5.7663  -5.7662
    -5.5906  -5.5904  -5.5516  -5.5514  -4.9767  -4.9765  -4.9398  -4.9396
    -4.7424  -4.7424  -4.5897  -4.5894  -4.5025  -4.5023  -4.2700  -4.2700
    -3.9603  -3.9603  -3.9097  -3.9097  -3.5169  -3.5168  -3.4412  -3.4411
    -3.3787  -3.3786  -3.3041  -3.3040  -3.2502  -3.2501  -3.2023  -3.2022
    -2.9848  -2.9847  -2.7765  -2.7763  -2.4433  -2.4430  -2.3911  -2.3907
    -2.1791  -2.1790  -2.1580  -2.1579  -0.8908  -0.8906  -0.6559  -0.6556
    -0.3741  -0.3740  -0.2100  -0.2097  -0.1518  -0.1516  -0.0382  -0.0381
     0.2141   0.2141   0.2952   0.2953   0.3786   0.3787   0.4593   0.4593
     0.5106   0.5108   0.6485   0.6486   0.7934   0.7935   0.8368   0.8369
     1.7017   1.7017   1.7162   1.7162   3.8959   3.8961   4.1343   4.1344
     4.4306   4.4308   4.7965   4.7967   6.9538   6.9539   7.1419   7.1422
     7.3476   7.3477   7.5002   7.5003   8.5846   8.5848   9.2785   9.2786
     9.4878   9.4879

          k = 0.3333-0.2991 0.5248 ( 73000 PWs)   bands (ev):

   -19.8058 -19.8057 -19.7529 -19.7527 -19.5949 -19.5948 -19.5555 -19.5553
   -18.2078 -18.2078 -18.1945 -18.1945 -17.2646 -17.2645 -17.2481 -17.2481
   -17.0032 -17.0031 -16.9980 -16.9979 -13.6803 -13.6801 -13.6731 -13.6729
   -12.9247 -12.9245 -12.8835 -12.8834 -10.0760 -10.0759 -10.0264 -10.0262
    -9.4231  -9.4229  -9.3774  -9.3773  -8.3213  -8.3212  -8.2686  -8.2685
    -6.7587  -6.7585  -6.7172  -6.7171  -5.7426  -5.7425  -5.6909  -5.6907
    -5.5603  -5.5602  -5.5252  -5.5252  -4.9273  -4.9270  -4.8915  -4.8913
    -4.7293  -4.7292  -4.5928  -4.5926  -4.4535  -4.4532  -4.3569  -4.3567
    -4.0390  -4.0390  -4.0104  -4.0104  -3.5261  -3.5260  -3.4668  -3.4668
    -3.3882  -3.3880  -3.2440  -3.2439  -3.1906  -3.1905  -3.1493  -3.1492
    -2.9851  -2.9849  -2.8391  -2.8389  -2.4919  -2.4917  -2.4545  -2.4542
    -2.0791  -2.0788  -2.0584  -2.0582  -0.8474  -0.8472  -0.6922  -0.6919
    -0.3935  -0.3934  -0.2476  -0.2472  -0.1488  -0.1487  -0.0274  -0.0272
     0.1919   0.1920   0.2837   0.2841   0.4116   0.4118   0.4582   0.4583
     0.5226   0.5228   0.6158   0.6160   0.7473   0.7474   0.7813   0.7815
     1.6789   1.6789   1.7020   1.7020   3.9976   3.9977   4.0623   4.0624
     4.3825   4.3826   4.7224   4.7225   6.9693   6.9694   7.1247   7.1251
     7.3935   7.3938   7.5354   7.5355   9.0715   9.0717   9.2523   9.2525
     9.5141   9.5143

          k = 0.3333-0.2991-0.1844 ( 72978 PWs)   bands (ev):

   -19.8097 -19.8095 -19.7516 -19.7515 -19.5957 -19.5956 -19.5546 -19.5545
   -18.2021 -18.2020 -18.1894 -18.1893 -17.2641 -17.2640 -17.2558 -17.2557
   -17.0046 -17.0046 -16.9962 -16.9962 -13.6844 -13.6842 -13.6582 -13.6580
   -12.9469 -12.9467 -12.8990 -12.8989 -10.1231 -10.1230 -10.0404 -10.0403
    -9.3813  -9.3812  -9.3466  -9.3464  -8.2351  -8.2350  -8.2072  -8.2071
    -6.6685  -6.6684  -6.6163  -6.6162  -5.8918  -5.8916  -5.8335  -5.8333
    -5.6117  -5.6115  -5.5917  -5.5914  -4.9001  -4.9000  -4.8549  -4.8547
    -4.6889  -4.6888  -4.4507  -4.4505  -4.3804  -4.3802  -4.3379  -4.3378
    -4.2669  -4.2667  -4.1732  -4.1731  -3.6408  -3.6407  -3.6233  -3.6232
    -3.3713  -3.3712  -3.2951  -3.2950  -3.2484  -3.2482  -3.1766  -3.1764
    -3.0281  -3.0281  -2.8432  -2.8430  -2.3224  -2.3221  -2.2909  -2.2906
    -1.9877  -1.9876  -1.9656  -1.9654  -0.8217  -0.8215  -0.7528  -0.7525
    -0.3732  -0.3730  -0.2319  -0.2316  -0.0762  -0.0761  -0.0321  -0.0319
     0.1870   0.1872   0.2883   0.2886   0.4131   0.4132   0.5016   0.5018
     0.5627   0.5628   0.6134   0.6135   0.7650   0.7651   0.7988   0.7989
     1.6925   1.6926   1.7150   1.7150   3.9299   3.9302   4.1881   4.1883
     4.4385   4.4386   4.6228   4.6232   6.9749   6.9750   7.1951   7.1955
     7.4365   7.4367   7.6038   7.6040   8.6123   8.6125   9.2325   9.2327
     9.6426   9.6431

     highest occupied, lowest unoccupied level (ev):     1.7667    1.7020

!    total energy              =   -1314.26766811 Ry
     Harris-Foulkes estimate   =   -1314.26766811 Ry
     estimated scf accuracy    <          7.7E-09 Ry

     total all-electron energy =     -4998.407921 Ry

     The total energy is the sum of the following terms:

     one-electron contribution =    -565.22684459 Ry
     hartree contribution      =     386.95828663 Ry
     xc contribution           =    -266.44176736 Ry
     ewald contribution        =    -497.42259721 Ry
     Dispersion Correction     =      -0.32829964 Ry
     one-center paw contrib.   =    -371.80644593 Ry

     convergence has been achieved in  46 iterations

     Forces acting on atoms (cartesian axes, Ry/au):

     atom    1 type  2   force =    -0.00275604    0.00234475    0.00291471
     atom    2 type  2   force =     0.00273427    0.00234338   -0.00292387
     atom    3 type  2   force =     0.00275604   -0.00234475   -0.00291471
     atom    4 type  2   force =    -0.00273427   -0.00234338    0.00292387
     atom    5 type  1   force =    -0.00109271    0.00072033    0.00063469
     atom    6 type  1   force =     0.00111530    0.00071746   -0.00063120
     atom    7 type  1   force =     0.00109271   -0.00072033   -0.00063469
     atom    8 type  1   force =    -0.00111530   -0.00071746    0.00063120
     atom    9 type  1   force =     0.00233263   -0.00152462    0.00565082
     atom   10 type  1   force =    -0.00231620   -0.00152857   -0.00567378
     atom   11 type  1   force =    -0.00233263    0.00152462   -0.00565082
     atom   12 type  1   force =     0.00231620    0.00152857    0.00567378
     atom   13 type  1   force =     0.00149321   -0.00109960    0.00020655
     atom   14 type  1   force =    -0.00149757   -0.00110239   -0.00019973
     atom   15 type  1   force =    -0.00149321    0.00109960   -0.00020655
     atom   16 type  1   force =     0.00149757    0.00110239    0.00019973
     atom   17 type  1   force =     0.00207881   -0.00082899   -0.00114226
     atom   18 type  1   force =    -0.00207255   -0.00083177    0.00111967
     atom   19 type  1   force =    -0.00207881    0.00082899    0.00114226
     atom   20 type  1   force =     0.00207255    0.00083177   -0.00111967
     atom   21 type  1   force =    -0.00455105   -0.00023199   -0.00248093
     atom   22 type  1   force =     0.00454868   -0.00023620    0.00242217
     atom   23 type  1   force =     0.00455105    0.00023199    0.00248093
     atom   24 type  1   force =    -0.00454868    0.00023620   -0.00242217
     atom   25 type  1   force =     0.00684270    0.00018695   -0.00532607
     atom   26 type  1   force =    -0.00685668    0.00018689    0.00534135
     atom   27 type  1   force =    -0.00684270   -0.00018695    0.00532607
     atom   28 type  1   force =     0.00685668   -0.00018689   -0.00534135
     atom   29 type  1   force =    -0.00344888    0.00244865   -0.01118841
     atom   30 type  1   force =     0.00345209    0.00246130    0.01118940
     atom   31 type  1   force =     0.00344888   -0.00244865    0.01118841
     atom   32 type  1   force =    -0.00345209   -0.00246130   -0.01118940
     atom   33 type  4   force =    -0.00760034   -0.00078041    0.00285032
     atom   34 type  4   force =     0.00757688   -0.00077868   -0.00282172
     atom   35 type  4   force =     0.00760034    0.00078041   -0.00285032
     atom   36 type  4   force =    -0.00757688    0.00077868    0.00282172
     atom   37 type  4   force =    -0.00431324    0.00021859    0.00050389
     atom   38 type  4   force =     0.00432397    0.00022090   -0.00048966
     atom   39 type  4   force =     0.00431324   -0.00021859   -0.00050389
     atom   40 type  4   force =    -0.00432397   -0.00022090    0.00048966
     atom   41 type  4   force =     0.00394802   -0.00012077    0.00199985
     atom   42 type  4   force =    -0.00394921   -0.00011697   -0.00199249
     atom   43 type  4   force =    -0.00394802    0.00012077   -0.00199985
     atom   44 type  4   force =     0.00394921    0.00011697    0.00199249
     atom   45 type  4   force =    -0.00409704    0.00020132   -0.00079027
     atom   46 type  4   force =     0.00413161    0.00019648    0.00078123
     atom   47 type  4   force =     0.00409704   -0.00020132    0.00079027
     atom   48 type  4   force =    -0.00413161   -0.00019648   -0.00078123
     atom   49 type  3   force =    -0.00316479   -0.00037483    0.00383392
     atom   50 type  3   force =     0.00315720   -0.00037564   -0.00382088
     atom   51 type  3   force =     0.00316479    0.00037483   -0.00383392
     atom   52 type  3   force =    -0.00315720    0.00037564    0.00382088
     atom   53 type  3   force =     0.00105045    0.00134204    0.00242517
     atom   54 type  3   force =    -0.00105592    0.00134068   -0.00241672
     atom   55 type  3   force =    -0.00105045   -0.00134204   -0.00242517
     atom   56 type  3   force =     0.00105592   -0.00134068    0.00241672
     atom   57 type  3   force =     0.00437721   -0.00001293    0.00222709
     atom   58 type  3   force =    -0.00438024   -0.00001332   -0.00221897
     atom   59 type  3   force =    -0.00437721    0.00001293   -0.00222709
     atom   60 type  3   force =     0.00438024    0.00001332    0.00221897
     atom   61 type  3   force =     0.00784756   -0.00157587   -0.00224895
     atom   62 type  3   force =    -0.00784775   -0.00157787    0.00226155
     atom   63 type  3   force =    -0.00784756    0.00157587    0.00224895
     atom   64 type  3   force =     0.00784775    0.00157787   -0.00226155

     Total force =     0.047654     Total SCF correction =     0.000200


     Computing stress (Cartesian axis) and pressure

          total   stress  (Ry/bohr**3)                   (kbar)     P=    2.36
   0.00002569   0.00000001   0.00000369          3.78      0.00      0.54
   0.00000001  -0.00001483  -0.00000001          0.00     -2.18     -0.00
   0.00000369  -0.00000001   0.00003727          0.54     -0.00      5.48


     Writing output data file scf.save
 
     init_run     :     28.77s CPU     29.86s WALL (       1 calls)
     electrons    :   2011.86s CPU   2112.97s WALL (       1 calls)
     forces       :     14.14s CPU     14.23s WALL (       1 calls)
     stress       :     48.05s CPU     48.19s WALL (       1 calls)

     Called by init_run:
     wfcinit      :     21.95s CPU     22.95s WALL (       1 calls)
     potinit      :      2.46s CPU      2.48s WALL (       1 calls)

     Called by electrons:
     c_bands      :   1731.01s CPU   1815.00s WALL (      46 calls)
     sum_band     :    256.46s CPU    271.71s WALL (      46 calls)
     v_of_rho     :      3.77s CPU      4.18s WALL (      47 calls)
     newd         :      8.01s CPU      9.31s WALL (      47 calls)
     PAW_pot      :     11.50s CPU     11.52s WALL (      47 calls)
     mix_rho      :      1.00s CPU      1.06s WALL (      46 calls)

     Called by c_bands:
     init_us_2    :     14.22s CPU     14.24s WALL (     950 calls)
     cegterg      :   1670.65s CPU   1754.54s WALL (     460 calls)

     Called by sum_band:
     sum_band:bec :      0.21s CPU      0.21s WALL (     460 calls)
     addusdens    :      8.41s CPU      9.68s WALL (      46 calls)

     Called by *egterg:
     h_psi        :   1024.20s CPU   1084.38s WALL (    1490 calls)
     s_psi        :    194.88s CPU    194.91s WALL (    1490 calls)
     g_psi        :      4.59s CPU      4.59s WALL (    1020 calls)
     cdiaghg      :     61.85s CPU     61.84s WALL (    1480 calls)

     Called by h_psi:
     h_psi:pot    :   1016.56s CPU   1076.69s WALL (    1490 calls)
     h_psi:calbec :    193.83s CPU    194.42s WALL (    1490 calls)
     vloc_psi     :    627.68s CPU    687.19s WALL (    1490 calls)
     add_vuspsi   :    195.05s CPU    195.08s WALL (    1490 calls)

     General routines
     calbec       :    291.68s CPU    292.52s WALL (    2000 calls)
     fft          :      2.07s CPU      2.75s WALL (     635 calls)
     fftw         :    709.51s CPU    778.21s WALL (  358798 calls)
 
     Parallel routines
     fft_scatter  :    168.71s CPU    215.50s WALL (  359433 calls)
 
     PWSCF        : 35m10.48s CPU    37m34.70s WALL

 
   This run was terminated on:   6:28:21   4Nov2017            

=------------------------------------------------------------------------------=
   JOB DONE.
=------------------------------------------------------------------------------=
