
     Program PWSCF v.6.1 (svn rev. 13369) starts on  4Nov2017 at  2:15:29 

     This program is part of the open-source Quantum ESPRESSO suite
     for quantum simulation of materials; please cite
         "P. Giannozzi et al., J. Phys.:Condens. Matter 21 395502 (2009);
          URL http://www.quantum-espresso.org", 
     in publications or presentations arising from this work. More details at
     http://www.quantum-espresso.org/quote

     Parallel version (MPI), running on     8 processors
     R & G space division:  proc/nbgrp/npool/nimage =       8
     Waiting for input...
     Reading input from standard input

     Current dimensions of program PWSCF are:
     Max number of different atomic species (ntypx) = 10
     Max number of k-points (npk) =  40000
     Max angular momentum in pseudopotentials (lmaxx) =  3
               file C.pbe-n-kjpaw_psl.0.1.UPF: wavefunction(s)  2P renormalized
               file N.pbe-n-kjpaw_psl.0.1.UPF: wavefunction(s)  2P renormalized
               file H.pbe-kjpaw_psl.0.1.UPF: wavefunction(s)  1S renormalized
               file O.pbe-n-kjpaw_psl.0.1.UPF: wavefunction(s)  2P renormalized

     -------------------------------------
     Parameters for Dispersion Correction:
     -------------------------------------
       atom      VdW radius       C_6     

        C          2.744         60.710
        N          2.640         42.670
        H          1.892          4.857
        O          2.536         24.284

     Subspace diagonalization in iterative solution of the eigenvalue problem:
     a serial algorithm will be used

 
     Parallelization info
     --------------------
     sticks:   dense  smooth     PW     G-vecs:    dense   smooth      PW
     Min        1316    1316    348                78314    78314   10667
     Max        1317    1317    349                78315    78315   10670
     Sum       10535   10535   2791               626517   626517   85347
 


     bravais-lattice index     =            0
     lattice parameter (alat)  =      13.7878  a.u.
     unit-cell volume          =    4637.8700 (a.u.)^3
     number of atoms/cell      =           82
     number of atomic types    =            4
     number of electrons       =       204.00
     number of Kohn-Sham states=          122
     kinetic-energy cutoff     =     100.0000  Ry
     charge density cutoff     =     400.0000  Ry
     convergence threshold     =      1.0E-08
     mixing beta               =       0.5000
     number of iterations used =            8  plain     mixing
     Exchange-correlation      =  SLA  PW   PBX  PBC ( 1  4  3  4 0 0)

     celldm(1)=  13.787820  celldm(2)=   0.000000  celldm(3)=   0.000000
     celldm(4)=   0.000000  celldm(5)=   0.000000  celldm(6)=   0.000000

     crystal axes: (cart. coord. in units of alat)
               a(1) = (   1.000000   0.000000   0.000000 )  
               a(2) = (   0.000000   1.739536   0.000000 )  
               a(3) = (  -0.378691   0.000000   1.017181 )  

     reciprocal axes: (cart. coord. in units 2 pi/alat)
               b(1) = (  1.000000  0.000000  0.372294 )  
               b(2) = (  0.000000  0.574866  0.000000 )  
               b(3) = (  0.000000  0.000000  0.983109 )  


     PseudoPot. # 1 for  C read from file:
     /scratch/ahofstet/pseudo/C.pbe-n-kjpaw_psl.0.1.UPF
     MD5 check sum: 430fe95172b1e11ef3f8ed03bac87931
     Pseudo is Projector augmented-wave + core cor, Zval =  4.0
     Generated using "atomic" code by A. Dal Corso  v.5.0.99 svn rev. 10869
     Shape of augmentation charge: BESSEL
     Using radial grid of 1073 points,  4 beta functions with: 
                l(1) =   0
                l(2) =   0
                l(3) =   1
                l(4) =   1
     Q(r) pseudized with 0 coefficients 


     PseudoPot. # 2 for  N read from file:
     /scratch/ahofstet/pseudo/N.pbe-n-kjpaw_psl.0.1.UPF
     MD5 check sum: f73187c8b701007e77325f868c9291d7
     Pseudo is Projector augmented-wave + core cor, Zval =  5.0
     Generated using "atomic" code by A. Dal Corso  v.5.0.99 svn rev. 10869
     Shape of augmentation charge: PSQ
     Using radial grid of 1085 points,  4 beta functions with: 
                l(1) =   0
                l(2) =   0
                l(3) =   1
                l(4) =   1
     Q(r) pseudized with 0 coefficients 


     PseudoPot. # 3 for  H read from file:
     /scratch/ahofstet/pseudo/H.pbe-kjpaw_psl.0.1.UPF
     MD5 check sum: 94e484f906d9e9773b2f6e52662335b2
     Pseudo is Projector augmented-wave, Zval =  1.0
     Generated using "atomic" code by A. Dal Corso  v.5.0.99 svn rev. 10869
     Shape of augmentation charge: PSQ
     Using radial grid of  929 points,  2 beta functions with: 
                l(1) =   0
                l(2) =   0
     Q(r) pseudized with 0 coefficients 


     PseudoPot. # 4 for  O read from file:
     /scratch/ahofstet/pseudo/O.pbe-n-kjpaw_psl.0.1.UPF
     MD5 check sum: 3f94a2996a3169367d6eb21d9b593f20
     Pseudo is Projector augmented-wave + core cor, Zval =  6.0
     Generated using "atomic" code by A. Dal Corso  v.5.0.99 svn rev. 10869
     Shape of augmentation charge: BESSEL
     Using radial grid of 1095 points,  4 beta functions with: 
                l(1) =   0
                l(2) =   0
                l(3) =   1
                l(4) =   1
     Q(r) pseudized with 0 coefficients 


     atomic species   valence    mass     pseudopotential
        C              4.00    12.01070      C( 1.00)
        N              5.00    14.00670      N( 1.00)
        H              1.00     1.00794      H( 1.00)
        O              6.00    15.99940      O( 1.00)

      2 Sym. Ops. (no inversion) found ( 1 have fractional translation)



   Cartesian axes

     site n.     atom                  positions (alat units)
         1           C   tau(   1) = (   0.0995068   1.5975950   0.2580439  )
         2           C   tau(   2) = (   0.5218026   0.7278272   0.7591376  )
         3           H   tau(   3) = (   0.2273779   1.6726917   0.2258345  )
         4           H   tau(   4) = (   0.3939315   0.8029239   0.7913470  )
         5           H   tau(   5) = (  -0.0100919   1.6981135   0.2813450  )
         6           H   tau(   6) = (   0.6314013   0.8283456   0.7358365  )
         7           C   tau(   7) = (   0.0477655   1.4751637   0.0969128  )
         8           C   tau(   8) = (   0.5735439   0.6053958   0.9202687  )
         9           H   tau(   9) = (   0.9131406   1.4092658   0.1220799  )
        10           H   tau(  10) = (  -0.2918312   0.5394980   0.8951016  )
        11           H   tau(  11) = (  -0.3419678   1.5582920   0.9890699  )
        12           H   tau(  12) = (   0.9632771   0.6885242   0.0281116  )
        13           C   tau(  13) = (   0.2125794   1.2267752   0.2366303  )
        14           C   tau(  14) = (   0.4087300   0.3570074   0.7805512  )
        15           H   tau(  15) = (   0.3214407   1.1257735   0.2129776  )
        16           H   tau(  16) = (   0.2998686   0.2560057   0.8042038  )
        17           H   tau(  17) = (   0.0845270   1.1520170   0.2701068  )
        18           H   tau(  18) = (   0.5367824   0.2822492   0.7470747  )
        19           C   tau(  19) = (   0.2661395   1.3471187   0.3996933  )
        20           C   tau(  20) = (   0.3551699   0.4773508   0.6174882  )
        21           H   tau(  21) = (   0.3978513   1.4167028   0.3679290  )
        22           H   tau(  22) = (   0.2234581   0.5469350   0.6492525  )
        23           C   tau(  23) = (   0.2893093   1.2296684   0.5706862  )
        24           C   tau(  24) = (   0.3320001   0.3599005   0.4464953  )
        25           H   tau(  25) = (   0.3336682   1.3115613   0.6885199  )
        26           H   tau(  26) = (   0.2876412   0.4417935   0.3286615  )
        27           H   tau(  27) = (   0.3938651   1.1244649   0.5450137  )
        28           H   tau(  28) = (   0.2274443   0.2546971   0.4721678  )
        29           H   tau(  29) = (   0.1599921   1.1611585   0.6063125  )
        30           H   tau(  30) = (   0.4613173   0.2913906   0.4108690  )
        31           N   tau(  31) = (   0.1686041   1.6152141   0.5730092  )
        32           N   tau(  32) = (   0.4527052   0.7454463   0.4441723  )
        33           H   tau(  33) = (   0.3038268   1.6556049   0.5581818  )
        34           H   tau(  34) = (   0.3174826   0.7858371   0.4589997  )
        35           H   tau(  35) = (   0.1587056   1.5458730   0.6956206  )
        36           H   tau(  36) = (   0.4626038   0.6761052   0.3215609  )
        37           N   tau(  37) = (   0.1226629   1.4891800   0.4271040  )
        38           N   tau(  38) = (   0.4986465   0.6194122   0.5900775  )
        39           N   tau(  39) = (   0.1893872   1.3340954   0.0674339  )
        40           N   tau(  40) = (   0.4319222   0.4643276   0.9497476  )
        41           N   tau(  41) = (  -0.2380981   1.2099105   0.9382511  )
        42           N   tau(  42) = (   0.8594075   0.3401427   0.0789304  )
        43           H   tau(  43) = (   0.6268712   1.1693729   0.9545379  )
        44           H   tau(  44) = (  -0.0055618   0.2996050   0.0626436  )
        45           H   tau(  45) = (  -0.2289748   1.2804684   0.8159851  )
        46           H   tau(  46) = (   0.8502841   0.4107006   0.2011964  )
        47           O   tau(  47) = (   0.0229335   0.9257318   0.8872012  )
        48           O   tau(  48) = (   0.5983759   0.0559640   0.1299803  )
        49           H   tau(  49) = (   0.0167184   0.8935514   0.7537381  )
        50           H   tau(  50) = (   0.6045909   0.0237836   0.2634434  )
        51           H   tau(  51) = (  -0.0755428   1.0196096   0.9091425  )
        52           H   tau(  52) = (   0.6968522   0.1498418   0.1080389  )
        53           O   tau(  53) = (  -0.0976107   0.1499137   0.6369031  )
        54           O   tau(  54) = (   0.7189201   1.0196815   0.3802784  )
        55           H   tau(  55) = (   0.0021710   0.0584808   0.6103317  )
        56           H   tau(  56) = (   0.6191384   0.9282486   0.4068497  )
        57           H   tau(  57) = (  -0.0871242   0.1807329   0.7703840  )
        58           H   tau(  58) = (   0.7084336   1.0505007   0.2467975  )
        59           O   tau(  59) = (  -0.0751965   0.2484821   0.9964457  )
        60           O   tau(  60) = (   0.6965059   1.1182499   0.0207358  )
        61           H   tau(  61) = (   0.3488132   0.3766601  -0.0073009  )
        62           H   tau(  62) = (   0.2724962   1.2464279   1.0244824  )
        63           H   tau(  63) = (   0.3990088   0.1743850   0.0420804  )
        64           H   tau(  64) = (   0.2223005   1.0441528   0.9751010  )
        65           O   tau(  65) = (   0.0124756   0.8263882   0.5271973  )
        66           O   tau(  66) = (   0.6088337   1.6961560   0.4899842  )
        67           H   tau(  67) = (  -0.0364575   0.6992070   0.5153528  )
        68           H   tau(  68) = (   0.6577668   1.5689748   0.5018287  )
        69           H   tau(  69) = (  -0.0818901   0.9020280   0.4644389  )
        70           H   tau(  70) = (   0.7031995   0.0322602   0.5527426  )
        71           O   tau(  71) = (   0.7751321   1.3640513   0.5390589  )
        72           O   tau(  72) = (  -0.1538228   0.4942834   0.4781226  )
        73           H   tau(  73) = (  -0.0980444   1.3962764   0.4952147  )
        74           H   tau(  74) = (   0.7193538   0.5265085   0.5219668  )
        75           H   tau(  75) = (   0.7442997   1.2445232   0.4817764  )
        76           H   tau(  76) = (  -0.1229903   0.3747554   0.5354050  )
        77           O   tau(  77) = (   0.1606585   1.4569617   0.9794716  )
        78           O   tau(  78) = (   0.4606508   0.5871938   0.0377099  )
        79           H   tau(  79) = (   0.0325899   1.4254358   1.0200715  )
        80           H   tau(  80) = (   0.5887195   0.5556680  -0.0028900  )
        81           H   tau(  81) = (   0.5700588   1.5752534   0.0222354  )
        82           H   tau(  82) = (   0.0512506   0.7054855   0.9949461  )

     number of k points=    10
                       cart. coord. in units 2pi/alat
        k(    1) = (   0.0000000   0.0000000   0.0000000), wk =   0.1111111
        k(    2) = (   0.0000000   0.0000000   0.3277029), wk =   0.2222222
        k(    3) = (   0.0000000  -0.2874330   0.0000000), wk =   0.1111111
        k(    4) = (   0.0000000  -0.2874330   0.3277029), wk =   0.2222222
        k(    5) = (   0.3333333   0.0000000   0.1240980), wk =   0.2222222
        k(    6) = (   0.3333333   0.0000000   0.4518009), wk =   0.2222222
        k(    7) = (   0.3333333   0.0000000  -0.2036049), wk =   0.2222222
        k(    8) = (   0.3333333  -0.2874330   0.1240980), wk =   0.2222222
        k(    9) = (   0.3333333  -0.2874330   0.4518009), wk =   0.2222222
        k(   10) = (   0.3333333  -0.2874330  -0.2036049), wk =   0.2222222

     Dense  grid:   626517 G-vectors     FFT dimensions: (  90, 160,  96)

     Estimated max dynamical RAM per process >     452.35MB

     Estimated total allocated dynamical RAM >    3618.76MB

     Check: negative/imaginary core charge=   -0.000002    0.000000

     Initial potential from superposition of free atoms

     starting charge  203.99901, renormalised to  204.00000
     Starting wfc are  172 randomized atomic wfcs
     Checking if some PAW data can be deallocated... 

     total cpu time spent up to now is       26.4 secs

     per-process dynamical memory:   337.5 Mb

     Self-consistent Calculation

     iteration #  1     ecut=   100.00 Ry     beta=0.50
     Davidson diagonalization with overlap
     ethr =  1.00E-02,  avg # of iterations =  4.0

     total cpu time spent up to now is       86.9 secs

     total energy              =    -970.61980145 Ry
     Harris-Foulkes estimate   =    -975.08652163 Ry
     estimated scf accuracy    <       8.14563766 Ry

     iteration #  2     ecut=   100.00 Ry     beta=0.50
     Davidson diagonalization with overlap
     ethr =  3.99E-03,  avg # of iterations =  3.0

     total cpu time spent up to now is      133.0 secs

     total energy              =    -972.31464891 Ry
     Harris-Foulkes estimate   =    -972.70383575 Ry
     estimated scf accuracy    <       0.94082342 Ry

     iteration #  3     ecut=   100.00 Ry     beta=0.50
     Davidson diagonalization with overlap
     ethr =  4.61E-04,  avg # of iterations =  7.5

     total cpu time spent up to now is      190.2 secs

     total energy              =    -972.46225725 Ry
     Harris-Foulkes estimate   =    -972.51447265 Ry
     estimated scf accuracy    <       0.16124264 Ry

     iteration #  4     ecut=   100.00 Ry     beta=0.50
     Davidson diagonalization with overlap
     ethr =  7.90E-05,  avg # of iterations =  5.2

     total cpu time spent up to now is      230.7 secs

     total energy              =    -972.47565637 Ry
     Harris-Foulkes estimate   =    -972.47954272 Ry
     estimated scf accuracy    <       0.01579799 Ry

     iteration #  5     ecut=   100.00 Ry     beta=0.50
     Davidson diagonalization with overlap
     ethr =  7.74E-06,  avg # of iterations =  8.2

     total cpu time spent up to now is      298.7 secs

     total energy              =    -972.47925519 Ry
     Harris-Foulkes estimate   =    -972.48092735 Ry
     estimated scf accuracy    <       0.00329888 Ry

     iteration #  6     ecut=   100.00 Ry     beta=0.50
     Davidson diagonalization with overlap
     ethr =  1.62E-06,  avg # of iterations =  3.6

     total cpu time spent up to now is      337.2 secs

     total energy              =    -972.47967062 Ry
     Harris-Foulkes estimate   =    -972.47973202 Ry
     estimated scf accuracy    <       0.00023421 Ry

     iteration #  7     ecut=   100.00 Ry     beta=0.50
     Davidson diagonalization with overlap
     ethr =  1.15E-07,  avg # of iterations =  4.0

     total cpu time spent up to now is      400.8 secs

     total energy              =    -972.47986372 Ry
     Harris-Foulkes estimate   =    -972.47996941 Ry
     estimated scf accuracy    <       0.00023583 Ry

     iteration #  8     ecut=   100.00 Ry     beta=0.50
     Davidson diagonalization with overlap
     ethr =  1.15E-07,  avg # of iterations =  3.0

     total cpu time spent up to now is      436.7 secs

     total energy              =    -972.47986712 Ry
     Harris-Foulkes estimate   =    -972.47988327 Ry
     estimated scf accuracy    <       0.00003007 Ry

     iteration #  9     ecut=   100.00 Ry     beta=0.50
     Davidson diagonalization with overlap
     ethr =  1.47E-08,  avg # of iterations =  4.0

     total cpu time spent up to now is      500.5 secs

     total energy              =    -972.47989902 Ry
     Harris-Foulkes estimate   =    -972.47993220 Ry
     estimated scf accuracy    <       0.00007709 Ry

     iteration # 10     ecut=   100.00 Ry     beta=0.50
     Davidson diagonalization with overlap
     ethr =  1.47E-08,  avg # of iterations =  5.2

     total cpu time spent up to now is      546.9 secs

     total energy              =    -972.47990688 Ry
     Harris-Foulkes estimate   =    -972.47990879 Ry
     estimated scf accuracy    <       0.00000341 Ry

     iteration # 11     ecut=   100.00 Ry     beta=0.50
     Davidson diagonalization with overlap
     ethr =  1.67E-09,  avg # of iterations =  4.0

     total cpu time spent up to now is      598.3 secs

     total energy              =    -972.47990791 Ry
     Harris-Foulkes estimate   =    -972.47990823 Ry
     estimated scf accuracy    <       0.00000049 Ry

     iteration # 12     ecut=   100.00 Ry     beta=0.50
     Davidson diagonalization with overlap
     ethr =  2.38E-10,  avg # of iterations =  3.9

     total cpu time spent up to now is      649.3 secs

     total energy              =    -972.47990807 Ry
     Harris-Foulkes estimate   =    -972.47990813 Ry
     estimated scf accuracy    <       0.00000014 Ry

     iteration # 13     ecut=   100.00 Ry     beta=0.50
     Davidson diagonalization with overlap
     ethr =  7.09E-11,  avg # of iterations =  1.0

     total cpu time spent up to now is      682.7 secs

     total energy              =    -972.47990806 Ry
     Harris-Foulkes estimate   =    -972.47990808 Ry
     estimated scf accuracy    <       0.00000003 Ry

     iteration # 14     ecut=   100.00 Ry     beta=0.50
     Davidson diagonalization with overlap
     ethr =  1.56E-11,  avg # of iterations =  4.0

     total cpu time spent up to now is      742.8 secs

     total energy              =    -972.47990808 Ry
     Harris-Foulkes estimate   =    -972.47990810 Ry
     estimated scf accuracy    <       0.00000004 Ry

     iteration # 15     ecut=   100.00 Ry     beta=0.50
     Davidson diagonalization with overlap
     ethr =  1.56E-11,  avg # of iterations =  1.0

     total cpu time spent up to now is      776.2 secs

     total energy              =    -972.47990808 Ry
     Harris-Foulkes estimate   =    -972.47990809 Ry
     estimated scf accuracy    <       0.00000001 Ry

     iteration # 16     ecut=   100.00 Ry     beta=0.50
     Davidson diagonalization with overlap
     ethr =  5.16E-12,  avg # of iterations =  3.3

     total cpu time spent up to now is      826.3 secs

     End of self-consistent calculation

          k = 0.0000 0.0000 0.0000 ( 78219 PWs)   bands (ev):

   -19.9019 -19.8099 -19.6657 -19.6184 -19.5229 -19.4805 -19.3561 -19.3272
   -19.2541 -19.2126 -19.1753 -19.0744 -18.9786 -18.9783 -18.9067 -18.7472
   -15.7202 -15.7069 -14.3739 -14.3574 -14.1149 -14.1043 -12.2213 -12.2051
   -10.8729 -10.8217 -10.1179 -10.1042  -9.0360  -8.9940  -7.8427  -7.8267
    -7.6317  -7.5380  -7.4903  -7.4839  -7.4131  -7.4112  -7.3367  -7.3323
    -7.2806  -7.1926  -7.1859  -7.1253  -6.9242  -6.8356  -6.8157  -6.7542
    -6.7200  -6.7037  -6.4138  -6.3384  -6.1435  -6.1030  -5.4575  -5.4239
    -5.0612  -5.0452  -4.8903  -4.5927  -4.5718  -4.5712  -4.3848  -4.3262
    -4.2818  -4.2606  -4.1034  -4.0994  -4.0744  -3.9203  -3.8420  -3.5642
    -3.5393  -3.4556  -3.3363  -3.3021  -3.2989  -3.1260  -3.0954  -2.9743
    -2.9598  -2.9000  -1.9750  -1.9060  -1.8315  -1.8164  -1.8099  -1.8063
    -1.7741  -1.7666  -1.6871  -1.6300  -1.5931  -1.5882  -1.3415  -1.2720
    -1.2714  -1.2525  -0.6177  -0.5774  -0.5550  -0.5331   4.5363   5.0028
     5.5861   5.9806   6.2799   6.3721   6.5172   6.6025   6.6087   6.7301
     6.8747   6.9518   7.1284   7.1291   7.2871   7.4769   7.4806   7.7235
     7.7259   7.7647

          k = 0.0000 0.0000 0.3277 ( 78312 PWs)   bands (ev):

   -19.8559 -19.8020 -19.6601 -19.6160 -19.5835 -19.4644 -19.4461 -19.3971
   -19.1992 -19.1911 -19.0819 -19.0711 -19.0399 -18.9503 -18.8713 -18.7801
   -15.7134 -15.7056 -14.3687 -14.3594 -14.1220 -14.1164 -12.2087 -12.1939
   -10.8590 -10.8329 -10.1463 -10.1117  -9.0420  -8.9999  -7.8249  -7.8088
    -7.6455  -7.6043  -7.4775  -7.4537  -7.4212  -7.3755  -7.3613  -7.3344
    -7.2321  -7.1920  -7.1636  -7.1383  -6.9331  -6.8739  -6.7959  -6.7527
    -6.7164  -6.6895  -6.4091  -6.3603  -6.1419  -6.1035  -5.4879  -5.4565
    -4.9813  -4.9689  -4.8413  -4.7580  -4.5435  -4.4995  -4.4339  -4.3669
    -4.2855  -4.2387  -4.2010  -4.1351  -3.9137  -3.8969  -3.7960  -3.5839
    -3.5526  -3.4687  -3.3951  -3.3286  -3.2284  -3.1616  -3.1086  -2.9911
    -2.9736  -2.8999  -1.9456  -1.8822  -1.8770  -1.8364  -1.8188  -1.8069
    -1.7356  -1.7227  -1.6766  -1.6459  -1.6125  -1.5369  -1.3624  -1.3350
    -1.2434  -1.2365  -0.6204  -0.5925  -0.5626  -0.5381   4.6776   5.2348
     5.3435   5.6481   6.0122   6.0644   6.5738   6.6560   6.7306   6.8658
     6.8886   7.0167   7.1445   7.2136   7.3477   7.4121   7.6449   7.7010
     7.8144   7.9368

          k = 0.0000-0.2874 0.0000 ( 78316 PWs)   bands (ev):

   -19.8634 -19.8634 -19.6439 -19.6439 -19.4587 -19.4587 -19.3972 -19.3972
   -19.2076 -19.2076 -19.1231 -19.1231 -19.0101 -19.0101 -18.8009 -18.8009
   -15.7135 -15.7135 -14.3652 -14.3652 -14.1101 -14.1101 -12.2129 -12.2129
   -10.8480 -10.8480 -10.1110 -10.1110  -9.0145  -9.0145  -7.8295  -7.8295
    -7.6172  -7.6172  -7.4439  -7.4439  -7.4080  -7.4080  -7.3380  -7.3380
    -7.2368  -7.2368  -7.2029  -7.2029  -6.8246  -6.8246  -6.7934  -6.7934
    -6.7262  -6.7262  -6.3747  -6.3747  -6.1247  -6.1247  -5.4517  -5.4517
    -5.0536  -5.0536  -4.7784  -4.7784  -4.4980  -4.4980  -4.3603  -4.3603
    -4.2537  -4.2537  -4.2149  -4.2149  -3.9296  -3.9296  -3.7328  -3.7328
    -3.4755  -3.4755  -3.3252  -3.3252  -3.1771  -3.1771  -3.0321  -3.0321
    -2.9497  -2.9497  -1.9523  -1.9523  -1.8229  -1.8229  -1.7961  -1.7961
    -1.7720  -1.7720  -1.6549  -1.6549  -1.5941  -1.5941  -1.3031  -1.3031
    -1.2619  -1.2619  -0.6116  -0.6116  -0.5326  -0.5326   4.7059   4.7059
     6.0418   6.0418   6.1513   6.1513   6.5008   6.5008   6.6863   6.6863
     6.8904   6.8904   7.1282   7.1282   7.3756   7.3756   7.6289   7.6289
     7.7417   7.7417

          k = 0.0000-0.2874 0.3277 ( 78316 PWs)   bands (ev):

   -19.8312 -19.8312 -19.6352 -19.6352 -19.5561 -19.5561 -19.3772 -19.3772
   -19.1837 -19.1837 -19.1315 -19.1315 -18.9706 -18.9706 -18.8194 -18.8194
   -15.7095 -15.7095 -14.3644 -14.3644 -14.1189 -14.1189 -12.2012 -12.2012
   -10.8469 -10.8469 -10.1282 -10.1282  -9.0211  -9.0211  -7.8107  -7.8107
    -7.6294  -7.6294  -7.4710  -7.4710  -7.3822  -7.3822  -7.3317  -7.3317
    -7.2290  -7.2290  -7.1974  -7.1974  -6.8540  -6.8540  -6.7741  -6.7741
    -6.7185  -6.7185  -6.3842  -6.3842  -6.1231  -6.1231  -5.4723  -5.4723
    -4.9757  -4.9757  -4.7547  -4.7547  -4.5899  -4.5899  -4.3764  -4.3764
    -4.2767  -4.2767  -4.1654  -4.1654  -3.9150  -3.9150  -3.6971  -3.6971
    -3.5055  -3.5055  -3.3159  -3.3159  -3.1835  -3.1835  -3.0867  -3.0867
    -2.9364  -2.9364  -1.9244  -1.9244  -1.8345  -1.8345  -1.8173  -1.8173
    -1.7294  -1.7294  -1.6741  -1.6741  -1.5629  -1.5629  -1.3449  -1.3449
    -1.2453  -1.2453  -0.6109  -0.6109  -0.5472  -0.5472   4.8737   4.8737
     5.5606   5.5606   6.1417   6.1417   6.5133   6.5133   6.7251   6.7251
     6.9507   6.9507   7.1553   7.1553   7.4948   7.4948   7.7194   7.7194
     7.8839   7.8839

          k = 0.3333 0.0000 0.1241 ( 78321 PWs)   bands (ev):

   -19.8586 -19.8061 -19.6391 -19.6145 -19.6128 -19.4762 -19.3920 -19.3382
   -19.2526 -19.2348 -19.1026 -19.0681 -19.0233 -18.9496 -18.8670 -18.7772
   -15.7182 -15.7102 -14.3698 -14.3599 -14.1123 -14.1067 -12.2109 -12.1952
   -10.8625 -10.8369 -10.1451 -10.1101  -9.0104  -8.9704  -7.8370  -7.8176
    -7.6324  -7.5475  -7.4656  -7.4420  -7.4113  -7.3832  -7.3503  -7.2879
    -7.2404  -7.1956  -7.1163  -7.0723  -7.0223  -6.9509  -6.8787  -6.8413
    -6.7718  -6.7123  -6.3786  -6.3463  -6.1159  -6.0944  -5.4686  -5.4300
    -5.0813  -5.0238  -4.8292  -4.6927  -4.6000  -4.5048  -4.3836  -4.3405
    -4.2690  -4.2237  -4.2221  -4.0714  -3.9240  -3.9001  -3.7520  -3.5744
    -3.5072  -3.4812  -3.4603  -3.4099  -3.2811  -3.1737  -3.1197  -3.0761
    -2.9293  -2.8822  -1.9137  -1.8705  -1.8496  -1.8243  -1.7989  -1.7914
    -1.7856  -1.7613  -1.6663  -1.6281  -1.6248  -1.5771  -1.3244  -1.2708
    -1.2553  -1.2511  -0.5756  -0.5340  -0.5280  -0.5170   4.7526   5.3567
     5.4865   5.8085   6.0928   6.2241   6.3752   6.5981   6.6616   6.7084
     6.7708   6.9067   6.9741   7.0108   7.2731   7.3881   7.4952   7.6481
     7.7509   7.8173

          k = 0.3333 0.0000 0.4518 ( 78309 PWs)   bands (ev):

   -19.8125 -19.7875 -19.7297 -19.5888 -19.5761 -19.5024 -19.3974 -19.3816
   -19.2575 -19.2327 -19.1001 -19.0626 -19.0255 -18.9269 -18.8458 -18.7852
   -15.7143 -15.7049 -14.3700 -14.3588 -14.1234 -14.1143 -12.2069 -12.1916
   -10.8666 -10.8272 -10.1427 -10.1093  -9.0182  -8.9746  -7.8383  -7.7788
    -7.6540  -7.5577  -7.5161  -7.4730  -7.4053  -7.3472  -7.3425  -7.2471
    -7.1993  -7.1648  -7.1431  -7.0953  -7.0403  -6.9778  -6.8589  -6.8265
    -6.7688  -6.7293  -6.3756  -6.3525  -6.1329  -6.0963  -5.5089  -5.4451
    -4.9810  -4.9530  -4.8431  -4.7144  -4.6314  -4.4901  -4.4489  -4.3836
    -4.2622  -4.2309  -4.1715  -4.0805  -3.9320  -3.8864  -3.7780  -3.5870
    -3.5669  -3.5038  -3.4521  -3.3326  -3.2495  -3.1931  -3.0822  -3.0276
    -2.9716  -2.9003  -1.9106  -1.8834  -1.8483  -1.8247  -1.8157  -1.8041
    -1.7330  -1.7186  -1.6700  -1.6483  -1.5893  -1.5686  -1.3475  -1.3233
    -1.2425  -1.2128  -0.5951  -0.5564  -0.5309  -0.5215   5.0288   5.1250
     5.5215   5.7456   6.0784   6.1217   6.1943   6.3349   6.5229   6.7913
     6.8178   6.9528   7.0685   7.1437   7.2685   7.4175   7.5836   7.6461
     7.8447   7.8930

          k = 0.3333 0.0000-0.2036 ( 78319 PWs)   bands (ev):

   -19.8405 -19.7947 -19.7117 -19.6334 -19.5112 -19.4680 -19.3463 -19.3377
   -19.2891 -19.2770 -19.2279 -19.0486 -18.9742 -18.9212 -18.8835 -18.7471
   -15.7164 -15.7015 -14.3747 -14.3563 -14.1257 -14.1114 -12.2153 -12.1992
   -10.8782 -10.8130 -10.1124 -10.1003  -9.0203  -8.9723  -7.8387  -7.7881
    -7.6577  -7.5810  -7.4678  -7.4597  -7.4279  -7.3448  -7.3096  -7.2916
    -7.2297  -7.1971  -7.1240  -7.0699  -7.0232  -6.9599  -6.8965  -6.8341
    -6.7901  -6.7158  -6.3642  -6.3480  -6.1557  -6.0905  -5.4938  -5.4448
    -4.9756  -4.9553  -4.8992  -4.6807  -4.5845  -4.5548  -4.3818  -4.3190
    -4.2985  -4.2886  -4.1140  -4.1062  -4.0624  -3.8897  -3.8831  -3.5689
    -3.4897  -3.4504  -3.3863  -3.3378  -3.3076  -3.1712  -3.0789  -2.9690
    -2.9411  -2.9278  -1.9366  -1.9015  -1.8230  -1.8146  -1.8117  -1.7822
    -1.7640  -1.7488  -1.6953  -1.6135  -1.5966  -1.5225  -1.3299  -1.3183
    -1.2620  -1.2246  -0.5812  -0.5591  -0.5523  -0.5231   4.7340   5.4693
     5.6494   5.7964   5.8882   6.0679   6.3245   6.3934   6.6006   6.7208
     6.8267   6.9063   6.9981   7.1174   7.2516   7.4066   7.4453   7.6137
     7.7663   7.8515

          k = 0.3333-0.2874 0.1241 ( 78350 PWs)   bands (ev):

   -19.8316 -19.8316 -19.6555 -19.6555 -19.5253 -19.5253 -19.3360 -19.3360
   -19.2491 -19.2491 -19.1354 -19.1354 -18.9489 -18.9489 -18.8245 -18.8245
   -15.7141 -15.7141 -14.3653 -14.3653 -14.1091 -14.1091 -12.2030 -12.2030
   -10.8505 -10.8505 -10.1270 -10.1270  -8.9905  -8.9905  -7.8244  -7.8244
    -7.5883  -7.5883  -7.4857  -7.4857  -7.3706  -7.3706  -7.3160  -7.3160
    -7.1989  -7.1989  -7.1433  -7.1433  -6.9433  -6.9433  -6.8792  -6.8792
    -6.7400  -6.7400  -6.3593  -6.3593  -6.1090  -6.1090  -5.4457  -5.4457
    -5.0629  -5.0629  -4.7585  -4.7585  -4.5627  -4.5627  -4.3075  -4.3075
    -4.2544  -4.2544  -4.1783  -4.1783  -3.9038  -3.9038  -3.7063  -3.7063
    -3.5403  -3.5403  -3.3412  -3.3412  -3.2052  -3.2052  -3.1289  -3.1289
    -2.9076  -2.9076  -1.8981  -1.8981  -1.8353  -1.8353  -1.7938  -1.7938
    -1.7772  -1.7772  -1.6431  -1.6431  -1.6010  -1.6010  -1.2901  -1.2901
    -1.2578  -1.2578  -0.5592  -0.5592  -0.5188  -0.5188   4.9386   4.9386
     5.8202   5.8202   6.1780   6.1780   6.4054   6.4054   6.6726   6.6726
     6.8123   6.8123   7.0310   7.0310   7.3143   7.3143   7.5653   7.5653
     7.8366   7.8366

          k = 0.3333-0.2874 0.4518 ( 78338 PWs)   bands (ev):

   -19.8018 -19.8018 -19.6788 -19.6788 -19.5316 -19.5316 -19.3606 -19.3606
   -19.2402 -19.2402 -19.1339 -19.1339 -18.9421 -18.9421 -18.8171 -18.8171
   -15.7096 -15.7096 -14.3647 -14.3647 -14.1185 -14.1185 -12.1991 -12.1991
   -10.8479 -10.8479 -10.1253 -10.1253  -8.9963  -8.9963  -7.8092  -7.8092
    -7.6133  -7.6133  -7.4643  -7.4643  -7.3963  -7.3963  -7.2937  -7.2937
    -7.2054  -7.2054  -7.1402  -7.1402  -6.9520  -6.9520  -6.8589  -6.8589
    -6.7508  -6.7508  -6.3653  -6.3653  -6.1132  -6.1132  -5.4723  -5.4723
    -4.9697  -4.9697  -4.7805  -4.7805  -4.5641  -4.5641  -4.3991  -4.3991
    -4.2824  -4.2824  -4.1184  -4.1184  -3.8942  -3.8942  -3.7100  -3.7100
    -3.5374  -3.5374  -3.3711  -3.3711  -3.1718  -3.1718  -3.1029  -3.1029
    -2.9283  -2.9283  -1.8948  -1.8948  -1.8456  -1.8456  -1.8022  -1.8022
    -1.7242  -1.7242  -1.6633  -1.6633  -1.5761  -1.5761  -1.3362  -1.3362
    -1.2274  -1.2274  -0.5804  -0.5804  -0.5224  -0.5224   5.1906   5.1906
     5.4462   5.4462   6.0087   6.0087   6.4197   6.4197   6.6674   6.6674
     6.8962   6.8962   7.1065   7.1065   7.4119   7.4119   7.6003   7.6004
     7.8451   7.8451

          k = 0.3333-0.2874-0.2036 ( 78370 PWs)   bands (ev):

   -19.8174 -19.8174 -19.6867 -19.6867 -19.4433 -19.4433 -19.3924 -19.3924
   -19.2809 -19.2809 -19.1263 -19.1263 -18.9668 -18.9668 -18.7920 -18.7920
   -15.7090 -15.7090 -14.3651 -14.3651 -14.1191 -14.1191 -12.2069 -12.2069
   -10.8465 -10.8465 -10.1063 -10.1063  -8.9955  -8.9955  -7.8124  -7.8124
    -7.6106  -7.6106  -7.4897  -7.4897  -7.3803  -7.3803  -7.2802  -7.2802
    -7.2115  -7.2115  -7.1420  -7.1420  -6.9567  -6.9567  -6.8689  -6.8689
    -6.7514  -6.7514  -6.3575  -6.3575  -6.1227  -6.1227  -5.4710  -5.4710
    -4.9684  -4.9684  -4.8079  -4.8079  -4.4954  -4.4954  -4.4111  -4.4111
    -4.2555  -4.2555  -4.2178  -4.2178  -3.9090  -3.9090  -3.7224  -3.7224
    -3.4950  -3.4950  -3.3595  -3.3595  -3.1715  -3.1715  -3.0756  -3.0756
    -2.9196  -2.9196  -1.9212  -1.9212  -1.8231  -1.8231  -1.7825  -1.7825
    -1.7625  -1.7625  -1.6693  -1.6693  -1.5453  -1.5453  -1.3262  -1.3262
    -1.2430  -1.2430  -0.5669  -0.5669  -0.5411  -0.5411   4.9937   4.9937
     5.8282   5.8282   6.0159   6.0159   6.3002   6.3002   6.5933   6.5933
     6.9402   6.9402   7.2017   7.2017   7.3400   7.3400   7.4431   7.4431
     7.7324   7.7325

     highest occupied, lowest unoccupied level (ev):    -0.5170    4.5363

!    total energy              =    -972.47990809 Ry
     Harris-Foulkes estimate   =    -972.47990809 Ry
     estimated scf accuracy    <          9.0E-10 Ry

     total all-electron energy =     -3506.673815 Ry

     The total energy is the sum of the following terms:

     one-electron contribution =    -567.96063595 Ry
     hartree contribution      =     357.92141592 Ry
     xc contribution           =    -211.81399044 Ry
     ewald contribution        =    -303.56615469 Ry
     Dispersion Correction     =      -0.30837761 Ry
     one-center paw contrib.   =    -246.75216531 Ry

     convergence has been achieved in  16 iterations

     Forces acting on atoms (cartesian axes, Ry/au):

     atom    1 type  1   force =     0.00072101   -0.00162345   -0.00010034
     atom    2 type  1   force =    -0.00072101   -0.00162345    0.00010034
     atom    3 type  3   force =     0.00024487    0.00094357    0.00048659
     atom    4 type  3   force =    -0.00024487    0.00094357   -0.00048659
     atom    5 type  3   force =     0.00037914    0.00019346    0.00006255
     atom    6 type  3   force =    -0.00037914    0.00019346   -0.00006255
     atom    7 type  1   force =    -0.00161846   -0.00099954    0.00178612
     atom    8 type  1   force =     0.00161846   -0.00099954   -0.00178612
     atom    9 type  3   force =     0.00168516    0.00072565    0.00074983
     atom   10 type  3   force =    -0.00168516    0.00072565   -0.00074983
     atom   11 type  3   force =    -0.00031191    0.00109119   -0.00034049
     atom   12 type  3   force =     0.00031191    0.00109119    0.00034049
     atom   13 type  1   force =    -0.00036713   -0.00024260   -0.00072032
     atom   14 type  1   force =     0.00036713   -0.00024260    0.00072032
     atom   15 type  3   force =     0.00081945   -0.00138871    0.00022886
     atom   16 type  3   force =    -0.00081945   -0.00138871   -0.00022886
     atom   17 type  3   force =    -0.00002809   -0.00011471   -0.00035419
     atom   18 type  3   force =     0.00002809   -0.00011471    0.00035419
     atom   19 type  1   force =     0.00231651    0.00087422   -0.00116370
     atom   20 type  1   force =    -0.00231651    0.00087422    0.00116370
     atom   21 type  3   force =    -0.00301792   -0.00077957   -0.00067322
     atom   22 type  3   force =     0.00301792   -0.00077957    0.00067322
     atom   23 type  1   force =     0.00055188   -0.00049153   -0.00229868
     atom   24 type  1   force =    -0.00055188   -0.00049153    0.00229868
     atom   25 type  3   force =     0.00035785   -0.00042541    0.00027321
     atom   26 type  3   force =    -0.00035785   -0.00042541   -0.00027321
     atom   27 type  3   force =    -0.00050975    0.00023791    0.00045786
     atom   28 type  3   force =     0.00050975    0.00023791   -0.00045786
     atom   29 type  3   force =     0.00066863   -0.00014250   -0.00018868
     atom   30 type  3   force =    -0.00066863   -0.00014250    0.00018868
     atom   31 type  2   force =    -0.00023857    0.00045322   -0.00085303
     atom   32 type  2   force =     0.00023857    0.00045322    0.00085303
     atom   33 type  3   force =    -0.00031881    0.00073754    0.00065002
     atom   34 type  3   force =     0.00031881    0.00073754   -0.00065002
     atom   35 type  3   force =     0.00053456   -0.00051550    0.00013070
     atom   36 type  3   force =    -0.00053456   -0.00051550   -0.00013070
     atom   37 type  2   force =    -0.00249231    0.00331263   -0.00031908
     atom   38 type  2   force =     0.00249231    0.00331263    0.00031908
     atom   39 type  2   force =     0.00072485   -0.00227073    0.00108552
     atom   40 type  2   force =    -0.00072485   -0.00227073   -0.00108552
     atom   41 type  2   force =     0.00039743   -0.00051378    0.00185508
     atom   42 type  2   force =    -0.00039743   -0.00051378   -0.00185508
     atom   43 type  3   force =     0.00064397    0.00043943   -0.00015761
     atom   44 type  3   force =    -0.00064397    0.00043943    0.00015761
     atom   45 type  3   force =    -0.00075693    0.00045097   -0.00015802
     atom   46 type  3   force =     0.00075693    0.00045097    0.00015802
     atom   47 type  4   force =    -0.00007248   -0.00063430   -0.00051494
     atom   48 type  4   force =     0.00007248   -0.00063430    0.00051494
     atom   49 type  3   force =     0.00057135    0.00048858    0.00040865
     atom   50 type  3   force =    -0.00057135    0.00048858   -0.00040865
     atom   51 type  3   force =    -0.00020192    0.00018196   -0.00025376
     atom   52 type  3   force =     0.00020192    0.00018196    0.00025376
     atom   53 type  4   force =     0.00041724    0.00148807    0.00098389
     atom   54 type  4   force =    -0.00041724    0.00148807   -0.00098389
     atom   55 type  3   force =    -0.00013249    0.00002995   -0.00056481
     atom   56 type  3   force =     0.00013249    0.00002995    0.00056481
     atom   57 type  3   force =    -0.00046806   -0.00025548    0.00026135
     atom   58 type  3   force =     0.00046806   -0.00025548   -0.00026135
     atom   59 type  4   force =     0.00044697    0.00059377   -0.00084082
     atom   60 type  4   force =    -0.00044697    0.00059377    0.00084082
     atom   61 type  3   force =    -0.00004099   -0.00032881    0.00028238
     atom   62 type  3   force =     0.00004099   -0.00032881   -0.00028238
     atom   63 type  3   force =    -0.00059607   -0.00030014    0.00045500
     atom   64 type  3   force =     0.00059607   -0.00030014   -0.00045500
     atom   65 type  4   force =    -0.00028799   -0.00078327    0.00012891
     atom   66 type  4   force =     0.00028799   -0.00078327   -0.00012891
     atom   67 type  3   force =     0.00059066   -0.00016101    0.00031556
     atom   68 type  3   force =    -0.00059066   -0.00016101   -0.00031556
     atom   69 type  3   force =    -0.00010840    0.00067692   -0.00033500
     atom   70 type  3   force =     0.00010840    0.00067692    0.00033500
     atom   71 type  4   force =     0.00248654   -0.00195330    0.00102900
     atom   72 type  4   force =    -0.00248654   -0.00195330   -0.00102900
     atom   73 type  3   force =    -0.00139826   -0.00087953    0.00033546
     atom   74 type  3   force =     0.00139826   -0.00087953   -0.00033546
     atom   75 type  3   force =     0.00078339    0.00074618    0.00092773
     atom   76 type  3   force =    -0.00078339    0.00074618   -0.00092773
     atom   77 type  4   force =    -0.00249616    0.00172037   -0.00038838
     atom   78 type  4   force =     0.00249616    0.00172037    0.00038838
     atom   79 type  3   force =     0.00205672    0.00061647   -0.00069737
     atom   80 type  3   force =    -0.00205672    0.00061647    0.00069737
     atom   81 type  3   force =    -0.00034428   -0.00119817   -0.00084574
     atom   82 type  3   force =     0.00034428   -0.00119817    0.00084574

     Total force =     0.015443     Total SCF correction =     0.000051


     Computing stress (Cartesian axis) and pressure

          total   stress  (Ry/bohr**3)                   (kbar)     P=  -13.71
  -0.00009922   0.00000000   0.00000172        -14.60      0.00      0.25
   0.00000000  -0.00008095   0.00000000          0.00    -11.91      0.00
   0.00000172   0.00000000  -0.00009948          0.25      0.00    -14.63


     Writing output data file scf.save
 
     init_run     :     24.62s CPU     25.80s WALL (       1 calls)
     electrons    :    762.71s CPU    800.14s WALL (       1 calls)
     forces       :     12.91s CPU     13.02s WALL (       1 calls)
     stress       :     41.37s CPU     41.58s WALL (       1 calls)

     Called by init_run:
     wfcinit      :     17.38s CPU     18.30s WALL (       1 calls)
     potinit      :      2.55s CPU      2.60s WALL (       1 calls)

     Called by electrons:
     c_bands      :    680.25s CPU    711.61s WALL (      16 calls)
     sum_band     :     74.08s CPU     79.12s WALL (      16 calls)
     v_of_rho     :      1.44s CPU      1.60s WALL (      17 calls)
     newd         :      3.17s CPU      3.90s WALL (      17 calls)
     PAW_pot      :      3.09s CPU      3.10s WALL (      17 calls)
     mix_rho      :      0.31s CPU      0.34s WALL (      16 calls)

     Called by c_bands:
     init_us_2    :      5.06s CPU      5.07s WALL (     350 calls)
     cegterg      :    664.64s CPU    695.96s WALL (     160 calls)

     Called by sum_band:
     sum_band:bec :      0.04s CPU      0.04s WALL (     160 calls)
     addusdens    :      3.11s CPU      3.79s WALL (      16 calls)

     Called by *egterg:
     h_psi        :    391.42s CPU    415.67s WALL (     819 calls)
     s_psi        :     70.02s CPU     70.05s WALL (     819 calls)
     g_psi        :      2.28s CPU      2.28s WALL (     649 calls)
     cdiaghg      :     36.51s CPU     36.55s WALL (     809 calls)

     Called by h_psi:
     h_psi:pot    :    388.79s CPU    412.99s WALL (     819 calls)
     h_psi:calbec :     68.94s CPU     69.17s WALL (     819 calls)
     vloc_psi     :    249.68s CPU    273.62s WALL (     819 calls)
     add_vuspsi   :     70.17s CPU     70.19s WALL (     819 calls)

     General routines
     calbec       :     99.18s CPU     99.50s WALL (    1029 calls)
     fft          :      0.91s CPU      1.30s WALL (     245 calls)
     fftw         :    267.97s CPU    294.30s WALL (  133028 calls)
 
     Parallel routines
     fft_scatter  :     62.81s CPU     81.06s WALL (  133273 calls)
 
     PWSCF        : 14m 8.68s CPU    15m24.11s WALL

 
   This run was terminated on:   2:30:53   4Nov2017            

=------------------------------------------------------------------------------=
   JOB DONE.
=------------------------------------------------------------------------------=
