
     Program PWSCF v.6.1 (svn rev. 13369) starts on  7Dec2017 at 18:44:48 

     This program is part of the open-source Quantum ESPRESSO suite
     for quantum simulation of materials; please cite
         "P. Giannozzi et al., J. Phys.:Condens. Matter 21 395502 (2009);
          URL http://www.quantum-espresso.org", 
     in publications or presentations arising from this work. More details at
     http://www.quantum-espresso.org/quote

     Parallel version (MPI), running on     8 processors
     R & G space division:  proc/nbgrp/npool/nimage =       8
     Waiting for input...
     Reading input from standard input

     Current dimensions of program PWSCF are:
     Max number of different atomic species (ntypx) = 10
     Max number of k-points (npk) =  40000
     Max angular momentum in pseudopotentials (lmaxx) =  3
               file C.pbe-n-kjpaw_psl.0.1.UPF: wavefunction(s)  2P renormalized
               file N.pbe-n-kjpaw_psl.0.1.UPF: wavefunction(s)  2P renormalized
               file H.pbe-kjpaw_psl.0.1.UPF: wavefunction(s)  1S renormalized
               file O.pbe-n-kjpaw_psl.0.1.UPF: wavefunction(s)  2P renormalized

     -------------------------------------
     Parameters for Dispersion Correction:
     -------------------------------------
       atom      VdW radius       C_6     

        C          2.744         60.710
        N          2.640         42.670
        H          1.892          4.857
        O          2.536         24.284

     Subspace diagonalization in iterative solution of the eigenvalue problem:
     a serial algorithm will be used

 
     Parallelization info
     --------------------
     sticks:   dense  smooth     PW     G-vecs:    dense   smooth      PW
     Min        3083    3083    801               159538   159538   21163
     Max        3084    3084    802               159539   159539   21164
     Sum       24669   24669   6415              1276309  1276309  169311
 


     bravais-lattice index     =            0
     lattice parameter (alat)  =      22.7750  a.u.
     unit-cell volume          =    9446.0903 (a.u.)^3
     number of atoms/cell      =          136
     number of atomic types    =            4
     number of electrons       =       480.00
     number of Kohn-Sham states=          288
     kinetic-energy cutoff     =     100.0000  Ry
     charge density cutoff     =     400.0000  Ry
     convergence threshold     =      1.0E-08
     mixing beta               =       0.5000
     number of iterations used =            8  plain     mixing
     Exchange-correlation      =  SLA  PW   PBX  PBC ( 1  4  3  4 0 0)

     celldm(1)=  22.774979  celldm(2)=   0.000000  celldm(3)=   0.000000
     celldm(4)=   0.000000  celldm(5)=   0.000000  celldm(6)=   0.000000

     crystal axes: (cart. coord. in units of alat)
               a(1) = (   1.000000   0.000000   0.000000 )  
               a(2) = (   0.000000   1.494159   0.000000 )  
               a(3) = (  -0.091495   0.000000   0.535157 )  

     reciprocal axes: (cart. coord. in units 2 pi/alat)
               b(1) = (  1.000000  0.000000  0.170969 )  
               b(2) = (  0.000000  0.669273  0.000000 )  
               b(3) = (  0.000000  0.000000  1.868610 )  


     PseudoPot. # 1 for  C read from file:
     /scratch/ahofstet/pseudo/C.pbe-n-kjpaw_psl.0.1.UPF
     MD5 check sum: 430fe95172b1e11ef3f8ed03bac87931
     Pseudo is Projector augmented-wave + core cor, Zval =  4.0
     Generated using "atomic" code by A. Dal Corso  v.5.0.99 svn rev. 10869
     Shape of augmentation charge: BESSEL
     Using radial grid of 1073 points,  4 beta functions with: 
                l(1) =   0
                l(2) =   0
                l(3) =   1
                l(4) =   1
     Q(r) pseudized with 0 coefficients 


     PseudoPot. # 2 for  N read from file:
     /scratch/ahofstet/pseudo/N.pbe-n-kjpaw_psl.0.1.UPF
     MD5 check sum: f73187c8b701007e77325f868c9291d7
     Pseudo is Projector augmented-wave + core cor, Zval =  5.0
     Generated using "atomic" code by A. Dal Corso  v.5.0.99 svn rev. 10869
     Shape of augmentation charge: PSQ
     Using radial grid of 1085 points,  4 beta functions with: 
                l(1) =   0
                l(2) =   0
                l(3) =   1
                l(4) =   1
     Q(r) pseudized with 0 coefficients 


     PseudoPot. # 3 for  H read from file:
     /scratch/ahofstet/pseudo/H.pbe-kjpaw_psl.0.1.UPF
     MD5 check sum: 94e484f906d9e9773b2f6e52662335b2
     Pseudo is Projector augmented-wave, Zval =  1.0
     Generated using "atomic" code by A. Dal Corso  v.5.0.99 svn rev. 10869
     Shape of augmentation charge: PSQ
     Using radial grid of  929 points,  2 beta functions with: 
                l(1) =   0
                l(2) =   0
     Q(r) pseudized with 0 coefficients 


     PseudoPot. # 4 for  O read from file:
     /scratch/ahofstet/pseudo/O.pbe-n-kjpaw_psl.0.1.UPF
     MD5 check sum: 3f94a2996a3169367d6eb21d9b593f20
     Pseudo is Projector augmented-wave + core cor, Zval =  6.0
     Generated using "atomic" code by A. Dal Corso  v.5.0.99 svn rev. 10869
     Shape of augmentation charge: BESSEL
     Using radial grid of 1095 points,  4 beta functions with: 
                l(1) =   0
                l(2) =   0
                l(3) =   1
                l(4) =   1
     Q(r) pseudized with 0 coefficients 


     atomic species   valence    mass     pseudopotential
        C              4.00    12.01070      C( 1.00)
        N              5.00    14.00670      N( 1.00)
        H              1.00     1.00794      H( 1.00)
        O              6.00    15.99940      O( 1.00)

     No symmetry found



   Cartesian axes

     site n.     atom                  positions (alat units)
         1           N   tau(   1) = (   0.0743636   0.1030923   0.4105430  )
         2           N   tau(   2) = (   0.1201103   1.3910643   0.1429631  )
         3           N   tau(   3) = (   0.5743658   0.8501852   0.4105374  )
         4           N   tau(   4) = (   0.6201102   0.6439737   0.1429587  )
         5           O   tau(   5) = (   0.1735918   0.1855874   0.3888509  )
         6           O   tau(   6) = (   0.2193397   1.3085708   0.1212726  )
         7           O   tau(   7) = (   0.6735948   0.9326658   0.3888511  )
         8           O   tau(   8) = (   0.7193417   0.5614923   0.1212723  )
         9           N   tau(   9) = (   0.1365819   0.2645767   0.3202672  )
        10           N   tau(  10) = (   0.1823184   1.2295842   0.0526843  )
        11           N   tau(  11) = (   0.6365637   1.0116547   0.3202648  )
        12           N   tau(  12) = (   0.6823236   0.4825031   0.0526874  )
        13           C   tau(  13) = (   0.9616961   0.3088884   0.2174164  )
        14           C   tau(  14) = (   0.9159479   1.1852705   0.4849949  )
        15           C   tau(  15) = (   0.4616930   1.0559682   0.2174139  )
        16           C   tau(  16) = (   0.4159485   0.4381903   0.4849955  )
        17           C   tau(  17) = (   0.8383610   0.3056341   0.2521862  )
        18           C   tau(  18) = (   0.7926125   1.1885251   0.5197635  )
        19           C   tau(  19) = (   0.3383595   1.0527126   0.2521872  )
        20           C   tau(  20) = (   0.2926144   0.4414466   0.5197655  )
        21           H   tau(  21) = (   0.7880733   0.3324970   0.1811225  )
        22           H   tau(  22) = (   0.7423248   1.1616614   0.4487004  )
        23           H   tau(  23) = (   0.2880734   1.0795763   0.1811225  )
        24           H   tau(  24) = (   0.2423239   0.4145825   0.4487000  )
        25           C   tau(  25) = (   0.8065056   0.1907303   0.2877100  )
        26           C   tau(  26) = (   0.8522587   1.3034219   0.0201286  )
        27           C   tau(  27) = (   0.3065125   0.9378171   0.2877093  )
        28           C   tau(  28) = (   0.3522610   0.5563388   0.0201258  )
        29           C   tau(  29) = (   0.8794171   0.1150876   0.3416567  )
        30           C   tau(  30) = (   0.9251634   1.3790780   0.0740795  )
        31           C   tau(  31) = (   0.3794226   0.8621624   0.3416567  )
        32           C   tau(  32) = (   0.4251682   0.6320029   0.0740832  )
        33           C   tau(  33) = (  -0.0069717   0.1478513   0.3516448  )
        34           C   tau(  34) = (   0.0387732   1.3463069   0.0840634  )
        35           C   tau(  35) = (   0.4930281   0.8949306   0.3516463  )
        36           C   tau(  36) = (   0.5387754   0.5992292   0.0840646  )
        37           C   tau(  37) = (   0.0319574   0.2449319   0.2971004  )
        38           C   tau(  38) = (   0.0777191   1.2492226   0.0295225  )
        39           C   tau(  39) = (   0.5319758   0.9920092   0.2971075  )
        40           C   tau(  40) = (   0.5777114   0.5021486   0.0295208  )
        41           C   tau(  41) = (   0.0035326   0.4271719   0.1948772  )
        42           C   tau(  42) = (  -0.0422148   1.0669843   0.4624563  )
        43           C   tau(  43) = (   0.5035325   1.1742536   0.1948786  )
        44           C   tau(  44) = (   0.4577843   0.3199039   0.4624574  )
        45           H   tau(  45) = (   0.0946147   0.4266604   0.2027221  )
        46           H   tau(  46) = (   0.0488662   1.0674973   0.4703009  )
        47           H   tau(  47) = (   0.5946136   1.1737403   0.2027219  )
        48           H   tau(  48) = (   0.5488667   0.3204184   0.4703013  )
        49           H   tau(  49) = (   0.9869688   0.4493272   0.1076901  )
        50           H   tau(  50) = (   0.9412209   1.0448301   0.3752689  )
        51           H   tau(  51) = (   0.4869681   1.1964060   0.1076893  )
        52           H   tau(  52) = (   0.4412211   0.2977512   0.3752689  )
        53           C   tau(  53) = (   0.9546154   0.5164708   0.2676353  )
        54           C   tau(  54) = (   0.9088730   0.9776853   0.5352127  )
        55           C   tau(  55) = (   0.4546265   1.2635527   0.2676271  )
        56           C   tau(  56) = (   0.4088778   0.2306028   0.5352078  )
        57           C   tau(  57) = (   0.8707589   0.4979372   0.3387372  )
        58           C   tau(  58) = (   0.9164987   0.9962219   0.0711628  )
        59           C   tau(  59) = (   0.3707465   1.2450157   0.3387457  )
        60           C   tau(  60) = (   0.4164937   0.2491433   0.0711687  )
        61           C   tau(  61) = (   0.8190693   0.3847378   0.3509433  )
        62           C   tau(  62) = (   0.8648195   1.1094225   0.0833651  )
        63           C   tau(  63) = (   0.3190724   1.1318179   0.3509427  )
        64           C   tau(  64) = (   0.3648196   0.3623420   0.0833647  )
        65           H   tau(  65) = (   0.7288454   0.3934217   0.3626781  )
        66           H   tau(  66) = (   0.7745919   1.1007375   0.0950999  )
        67           H   tau(  67) = (   0.2288448   1.1405020   0.3626782  )
        68           H   tau(  68) = (   0.2745925   0.3536583   0.0951002  )
        69           H   tau(  69) = (   0.8497564   0.3444743   0.4272056  )
        70           H   tau(  70) = (   0.8955051   1.1496859   0.1596274  )
        71           H   tau(  71) = (   0.3497566   1.0915540   0.4272071  )
        72           H   tau(  72) = (   0.3955057   0.4026061   0.1596283  )
        73           N   tau(  73) = (   0.7054743   0.1495758   0.2887909  )
        74           N   tau(  74) = (   0.7512253   1.3445837   0.0212132  )
        75           N   tau(  75) = (   0.2054558   0.8966570   0.2887916  )
        76           N   tau(  76) = (   0.2512112   0.5975029   0.0212142  )
        77           O   tau(  77) = (   0.7225096   0.0319642   0.3502954  )
        78           O   tau(  78) = (   0.7682583   1.4621954   0.0827166  )
        79           O   tau(  79) = (   0.2225122   0.7790428   0.3502926  )
        80           O   tau(  80) = (   0.2682581   0.7151181   0.0827148  )
        81           N   tau(  81) = (   0.8294186   0.0244623   0.3764159  )
        82           N   tau(  82) = (   0.8751661   1.4696949   0.1088363  )
        83           N   tau(  83) = (   0.3294171   0.7715423   0.3764167  )
        84           N   tau(  84) = (   0.3751677   0.7226132   0.1088346  )
        85           O   tau(  85) = (   0.0880591   0.0238725   0.4703818  )
        86           O   tau(  86) = (   0.1338068   1.4702875   0.2028045  )
        87           O   tau(  87) = (   0.5880580   0.7709424   0.4703863  )
        88           O   tau(  88) = (   0.6338067   0.7232168   0.2028085  )
        89           N   tau(  89) = (   0.9738665   0.2497886   0.0997321  )
        90           N   tau(  90) = (   0.9281093   1.2443778   0.3673123  )
        91           N   tau(  91) = (   0.4738532   0.9968615   0.0997137  )
        92           N   tau(  92) = (   0.4281127   0.4973004   0.3673174  )
        93           O   tau(  93) = (   0.0685207   0.2283858   0.0692510  )
        94           O   tau(  94) = (   0.0227805   1.2657652   0.3368236  )
        95           O   tau(  95) = (   0.5685151   0.9754636   0.0692562  )
        96           O   tau(  96) = (   0.5227820   0.5186887   0.3368246  )
        97           O   tau(  97) = (   0.8893125   0.2364816   0.0445193  )
        98           O   tau(  98) = (   0.8435662   1.2576752   0.3120983  )
        99           O   tau(  99) = (   0.3893303   0.9835660   0.0445333  )
       100           O   tau( 100) = (   0.3435620   0.5105954   0.3120957  )
       101           C   tau( 101) = (   0.0091608   0.6269365   0.2489905  )
       102           C   tau( 102) = (  -0.0365874   0.8672206   0.5165697  )
       103           C   tau( 103) = (   0.5091597   1.3740153   0.2489906  )
       104           C   tau( 104) = (   0.4634120   0.1201424   0.5165702  )
       105           H   tau( 105) = (  -0.0313798   0.6942623   0.2945624  )
       106           H   tau( 106) = (   0.0143661   0.7998961   0.0269846  )
       107           H   tau( 107) = (   0.4686202   1.4413417   0.2945616  )
       108           H   tau( 108) = (   0.5143671   0.0528175   0.0269839  )
       109           H   tau( 109) = (   0.0088158   0.6481749   0.1601153  )
       110           H   tau( 110) = (  -0.0369330   0.8459835   0.4276928  )
       111           H   tau( 111) = (   0.5088159   1.3952545   0.1601147  )
       112           H   tau( 112) = (   0.4630673   0.0989046   0.4276934  )
       113           H   tau( 113) = (   0.0968291   0.6241599   0.2747451  )
       114           H   tau( 114) = (   0.0510811   0.8699988   0.5423245  )
       115           H   tau( 115) = (   0.5968284   1.3712391   0.2747446  )
       116           H   tau( 116) = (   0.5510810   0.1229198   0.5423241  )
       117           C   tau( 117) = (   0.8175642   0.5860388   0.4095546  )
       118           C   tau( 118) = (   0.8633123   0.9081207   0.1419756  )
       119           C   tau( 119) = (   0.3175668   1.3331180   0.4095528  )
       120           C   tau( 120) = (   0.3633134   0.1610415   0.1419743  )
       121           H   tau( 121) = (   0.8754201   0.6524766   0.4319664  )
       122           H   tau( 122) = (   0.9211671   0.8416826   0.1643886  )
       123           H   tau( 123) = (   0.3754206   1.3995563   0.4319667  )
       124           H   tau( 124) = (   0.4211670   0.0946036   0.1643881  )
       125           H   tau( 125) = (   0.7849074   0.5496424   0.4865015  )
       126           H   tau( 126) = (   0.8306542   0.9445166   0.2189230  )
       127           H   tau( 127) = (   0.2849078   1.2967227   0.4865014  )
       128           H   tau( 128) = (   0.3306549   0.1974366   0.2189223  )
       129           H   tau( 129) = (   0.7461450   0.6235917   0.3663686  )
       130           H   tau( 130) = (   0.7918932   0.8705676   0.0987905  )
       131           H   tau( 131) = (   0.2461463   1.3706719   0.3663692  )
       132           H   tau( 132) = (   0.2918936   0.1234879   0.0987909  )
       133           O   tau( 133) = (   0.6130391   0.1767131   0.2596085  )
       134           O   tau( 134) = (   0.6587815   1.3174450  -0.0079701  )
       135           O   tau( 135) = (   0.1130458   0.9237900   0.2596102  )
       136           O   tau( 136) = (   0.1587893   0.5703687  -0.0079694  )

     number of k points=     4
                       cart. coord. in units 2pi/alat
        k(    1) = (   0.0000000   0.0000000   0.0000000), wk =   0.3333333
        k(    2) = (   0.0000000   0.0000000   0.6228699), wk =   0.6666667
        k(    3) = (  -0.5000000   0.0000000  -0.0854845), wk =   0.3333333
        k(    4) = (  -0.5000000   0.0000000   0.5373854), wk =   0.6666667

     Dense  grid:  1276309 G-vectors     FFT dimensions: ( 150, 225,  80)

     Estimated max dynamical RAM per process >    1528.29MB

     Estimated total allocated dynamical RAM >   12226.34MB

     Check: negative/imaginary core charge=   -0.000002    0.000000

     Initial potential from superposition of free atoms

     starting charge  479.99740, renormalised to  480.00000
     Starting wfc are  412 randomized atomic wfcs
     Checking if some PAW data can be deallocated... 

     total cpu time spent up to now is       82.1 secs

     per-process dynamical memory:   838.6 Mb

     Self-consistent Calculation

     iteration #  1     ecut=   100.00 Ry     beta=0.50
     Davidson diagonalization with overlap
     ethr =  1.00E-02,  avg # of iterations =  3.2

     total cpu time spent up to now is      310.9 secs

     total energy              =   -2495.66178027 Ry
     Harris-Foulkes estimate   =   -2503.16433505 Ry
     estimated scf accuracy    <      13.82536733 Ry

     iteration #  2     ecut=   100.00 Ry     beta=0.50
     Davidson diagonalization with overlap
     ethr =  2.88E-03,  avg # of iterations =  4.0

     total cpu time spent up to now is      442.9 secs

     total energy              =   -2496.91641134 Ry
     Harris-Foulkes estimate   =   -2498.30873293 Ry
     estimated scf accuracy    <       2.79966333 Ry

     iteration #  3     ecut=   100.00 Ry     beta=0.50
     Davidson diagonalization with overlap
     ethr =  5.83E-04,  avg # of iterations =  6.8

     total cpu time spent up to now is      677.8 secs

     total energy              =   -2498.28214626 Ry
     Harris-Foulkes estimate   =   -2498.88501665 Ry
     estimated scf accuracy    <       1.51941784 Ry

     iteration #  4     ecut=   100.00 Ry     beta=0.50
     Davidson diagonalization with overlap
     ethr =  3.17E-04,  avg # of iterations =  1.5

     total cpu time spent up to now is      790.7 secs

     total energy              =   -2498.28349634 Ry
     Harris-Foulkes estimate   =   -2498.47087570 Ry
     estimated scf accuracy    <       0.45096680 Ry

     iteration #  5     ecut=   100.00 Ry     beta=0.50
     Davidson diagonalization with overlap
     ethr =  9.40E-05,  avg # of iterations =  8.0

     total cpu time spent up to now is      988.6 secs

     total energy              =   -2498.46323348 Ry
     Harris-Foulkes estimate   =   -2498.54307247 Ry
     estimated scf accuracy    <       0.33508010 Ry

     iteration #  6     ecut=   100.00 Ry     beta=0.50
     Davidson diagonalization with overlap
     ethr =  6.98E-05,  avg # of iterations =  1.2

     total cpu time spent up to now is     1099.3 secs

     total energy              =   -2498.48418337 Ry
     Harris-Foulkes estimate   =   -2498.51271945 Ry
     estimated scf accuracy    <       0.07312340 Ry

     iteration #  7     ecut=   100.00 Ry     beta=0.50
     Davidson diagonalization with overlap
     ethr =  1.52E-05,  avg # of iterations =  7.0

     total cpu time spent up to now is     1235.8 secs

     total energy              =   -2498.48119524 Ry
     Harris-Foulkes estimate   =   -2498.49238180 Ry
     estimated scf accuracy    <       0.02371180 Ry

     iteration #  8     ecut=   100.00 Ry     beta=0.50
     Davidson diagonalization with overlap
     ethr =  4.94E-06,  avg # of iterations = 12.5

     total cpu time spent up to now is     1463.2 secs

     total energy              =   -2498.48991289 Ry
     Harris-Foulkes estimate   =   -2498.49155511 Ry
     estimated scf accuracy    <       0.00556459 Ry

     iteration #  9     ecut=   100.00 Ry     beta=0.50
     Davidson diagonalization with overlap
     ethr =  1.16E-06,  avg # of iterations =  2.0

     total cpu time spent up to now is     1577.4 secs

     total energy              =   -2498.49022343 Ry
     Harris-Foulkes estimate   =   -2498.49073385 Ry
     estimated scf accuracy    <       0.00108869 Ry

     iteration # 10     ecut=   100.00 Ry     beta=0.50
     Davidson diagonalization with overlap
     ethr =  2.27E-07,  avg # of iterations =  4.0

     total cpu time spent up to now is     1756.8 secs

     total energy              =   -2498.49059543 Ry
     Harris-Foulkes estimate   =   -2498.49072568 Ry
     estimated scf accuracy    <       0.00042071 Ry

     iteration # 11     ecut=   100.00 Ry     beta=0.50
     Davidson diagonalization with overlap
     ethr =  8.76E-08,  avg # of iterations =  1.8

     total cpu time spent up to now is     1869.4 secs

     total energy              =   -2498.49064094 Ry
     Harris-Foulkes estimate   =   -2498.49065881 Ry
     estimated scf accuracy    <       0.00005790 Ry

     iteration # 12     ecut=   100.00 Ry     beta=0.50
     Davidson diagonalization with overlap
     ethr =  1.21E-08,  avg # of iterations =  4.0

     total cpu time spent up to now is     2085.2 secs

     total energy              =   -2498.49067077 Ry
     Harris-Foulkes estimate   =   -2498.49068026 Ry
     estimated scf accuracy    <       0.00003059 Ry

     iteration # 13     ecut=   100.00 Ry     beta=0.50
     Davidson diagonalization with overlap
     ethr =  6.37E-09,  avg # of iterations =  2.2

     total cpu time spent up to now is     2205.2 secs

     total energy              =   -2498.49067248 Ry
     Harris-Foulkes estimate   =   -2498.49067685 Ry
     estimated scf accuracy    <       0.00001327 Ry

     iteration # 14     ecut=   100.00 Ry     beta=0.50
     Davidson diagonalization with overlap
     ethr =  2.77E-09,  avg # of iterations =  3.0

     total cpu time spent up to now is     2340.0 secs

     total energy              =   -2498.49067514 Ry
     Harris-Foulkes estimate   =   -2498.49067552 Ry
     estimated scf accuracy    <       0.00000119 Ry

     iteration # 15     ecut=   100.00 Ry     beta=0.50
     Davidson diagonalization with overlap
     ethr =  2.48E-10,  avg # of iterations =  4.0

     total cpu time spent up to now is     2555.3 secs

     total energy              =   -2498.49067568 Ry
     Harris-Foulkes estimate   =   -2498.49067600 Ry
     estimated scf accuracy    <       0.00000104 Ry

     iteration # 16     ecut=   100.00 Ry     beta=0.50
     Davidson diagonalization with overlap
     ethr =  2.18E-10,  avg # of iterations =  1.2

     total cpu time spent up to now is     2667.2 secs

     total energy              =   -2498.49067574 Ry
     Harris-Foulkes estimate   =   -2498.49067583 Ry
     estimated scf accuracy    <       0.00000025 Ry

     iteration # 17     ecut=   100.00 Ry     beta=0.50
     Davidson diagonalization with overlap
     ethr =  5.11E-11,  avg # of iterations =  3.2

     total cpu time spent up to now is     2832.0 secs

     total energy              =   -2498.49067581 Ry
     Harris-Foulkes estimate   =   -2498.49067583 Ry
     estimated scf accuracy    <       0.00000007 Ry

     iteration # 18     ecut=   100.00 Ry     beta=0.50
     Davidson diagonalization with overlap
     ethr =  1.54E-11,  avg # of iterations =  2.0

     total cpu time spent up to now is     2945.1 secs

     total energy              =   -2498.49067581 Ry
     Harris-Foulkes estimate   =   -2498.49067582 Ry
     estimated scf accuracy    <       0.00000002 Ry

     iteration # 19     ecut=   100.00 Ry     beta=0.50
     Davidson diagonalization with overlap
     ethr =  3.64E-12,  avg # of iterations =  3.2

     total cpu time spent up to now is     3113.1 secs

     End of self-consistent calculation

          k = 0.0000 0.0000 0.0000 (159501 PWs)   bands (ev):

   -24.5694 -24.5640 -24.5634 -24.5617 -23.7800 -23.7761 -23.7421 -23.7382
   -23.4391 -23.4357 -23.4143 -23.4108 -21.9233 -21.9210 -21.9194 -21.9170
   -21.7501 -21.7481 -21.7123 -21.7104 -20.2315 -20.2266 -20.2262 -20.2248
   -16.8009 -16.7921 -16.7917 -16.7822 -15.8449 -15.8389 -15.8178 -15.8119
   -15.5676 -15.5667 -15.5567 -15.5535 -14.5707 -14.5652 -14.5352 -14.5224
   -14.4916 -14.4899 -14.4545 -14.4502 -13.2957 -13.2816 -13.2602 -13.2532
   -12.7460 -12.7412 -12.7284 -12.7209 -11.3075 -11.2929 -11.2846 -11.2630
   -11.1778 -11.1731 -11.1661 -11.1645 -10.4482 -10.4122 -10.3940 -10.3684
   -10.0907 -10.0735 -10.0678 -10.0656  -9.5161  -9.4964  -9.4934  -9.4853
    -8.8981  -8.8427  -8.8358  -8.8179  -8.6713  -8.6553  -8.6427  -8.6296
    -8.5156  -8.4862  -8.4833  -8.4715  -7.8260  -7.8172  -7.7770  -7.7557
    -7.3594  -7.3405  -7.3134  -7.3078  -7.1290  -7.1280  -7.1125  -7.1040
    -6.8814  -6.8810  -6.8536  -6.8475  -6.5974  -6.5895  -6.4862  -6.4834
    -6.4506  -6.4247  -6.2833  -6.2809  -6.2287  -6.2060  -6.1832  -6.1617
    -6.0629  -6.0575  -6.0449  -6.0270  -5.9138  -5.9133  -5.8841  -5.8751
    -5.7272  -5.7040  -5.6678  -5.6337  -5.0100  -5.0037  -4.9999  -4.9698
    -4.9521  -4.9153  -4.8162  -4.7973  -4.5558  -4.5352  -4.5222  -4.5171
    -4.1992  -4.1912  -4.1690  -4.1414  -4.1381  -4.1185  -4.0582  -3.9856
    -3.9836  -3.9613  -3.8889  -3.8847  -3.8770  -3.8628  -3.7564  -3.7457
    -3.7020  -3.6919  -3.6714  -3.6211  -3.5024  -3.4144  -3.3302  -3.3165
    -3.1759  -3.1631  -3.0440  -3.0438  -2.9932  -2.9676  -2.9394  -2.8767
    -2.7561  -2.7317  -2.7306  -2.7238  -2.7194  -2.6951  -2.6426  -2.6139
    -2.5173  -2.4943  -2.4872  -2.4372  -2.3526  -2.3439  -2.3015  -2.2678
    -2.1707  -2.1357  -2.1070  -2.0382  -2.0103  -1.9703  -1.9403  -1.9333
    -1.9230  -1.8972  -1.8958  -1.8514  -1.7060  -1.6123  -1.5944  -1.5278
    -1.5137  -1.4751  -1.4746  -1.4613  -1.1686  -1.1359  -1.1177  -1.1026
    -1.0028  -0.9900  -0.9547  -0.9107  -0.5696  -0.5650  -0.5608  -0.5576
    -0.5181  -0.4860  -0.4564  -0.4439  -0.3038  -0.2756  -0.2377  -0.2321
    -0.1204  -0.1069  -0.0873  -0.0570   0.3993   0.4338   0.4455   0.4546
     0.7238   0.7440   0.9609   0.9692   1.3957   1.4289   1.4403   1.4602
     3.3563   3.3633   3.3688   3.3756   3.6379   3.6526   3.6856   3.6981
     4.4077   4.4213   4.4386   4.4408   4.7192   4.7216   4.7835   4.7885
     4.9179   4.9334   4.9419   4.9683   5.2145   5.2274   5.2306   5.2429
     6.3038   6.3053   6.3794   6.4084   6.6335   6.7022   6.9090   7.1782
     7.2693   7.3566   7.3815   7.4966   7.5786   7.7218   7.8541   7.9899
     8.0033   8.1270   8.2951   8.3138   8.3394   8.4414   8.4445   8.5158

          k = 0.0000 0.0000 0.6229 (159520 PWs)   bands (ev):

   -24.5688 -24.5633 -24.5627 -24.5611 -23.7711 -23.7672 -23.7521 -23.7483
   -23.4329 -23.4295 -23.4204 -23.4170 -21.9224 -21.9204 -21.9200 -21.9180
   -21.7409 -21.7389 -21.7219 -21.7201 -20.2314 -20.2265 -20.2261 -20.2246
   -16.8060 -16.8020 -16.8017 -16.7968 -15.8366 -15.8335 -15.8232 -15.8201
   -15.5568 -15.5561 -15.5511 -15.5488 -14.5587 -14.5556 -14.5403 -14.5341
   -14.4854 -14.4843 -14.4665 -14.4648 -13.2723 -13.2630 -13.2520 -13.2501
   -12.7381 -12.7330 -12.7301 -12.7234 -11.3022 -11.2947 -11.2772 -11.2664
   -11.1866 -11.1833 -11.1804 -11.1791 -10.4141 -10.3846 -10.3807 -10.3562
   -10.0938 -10.0839 -10.0816 -10.0787  -9.5411  -9.5264  -9.5253  -9.5229
    -8.8660  -8.8436  -8.8370  -8.8316  -8.6730  -8.6451  -8.6450  -8.6383
    -8.4937  -8.4631  -8.4602  -8.4517  -7.8072  -7.7816  -7.7762  -7.7646
    -7.3693  -7.3357  -7.3280  -7.3156  -7.1421  -7.1390  -7.1220  -7.1218
    -6.8887  -6.8875  -6.8855  -6.8763  -6.5954  -6.5924  -6.4337  -6.4114
    -6.3745  -6.3724  -6.3681  -6.3393  -6.2211  -6.2085  -6.1348  -6.1290
    -6.0973  -6.0910  -6.0609  -6.0450  -5.9462  -5.9329  -5.9320  -5.9081
    -5.6722  -5.6623  -5.6235  -5.6051  -4.9976  -4.9955  -4.9863  -4.9510
    -4.9469  -4.8895  -4.8518  -4.8279  -4.5367  -4.5298  -4.5245  -4.5150
    -4.1900  -4.1777  -4.1690  -4.1528  -4.1255  -4.1029  -4.0532  -4.0323
    -4.0203  -3.9791  -3.9531  -3.9057  -3.8653  -3.8593  -3.8185  -3.7991
    -3.7161  -3.7053  -3.6519  -3.6284  -3.4744  -3.4401  -3.3919  -3.3611
    -3.1778  -3.1678  -3.1288  -3.1122  -2.8804  -2.8786  -2.8624  -2.8616
    -2.7955  -2.7637  -2.7355  -2.7174  -2.6935  -2.6520  -2.6324  -2.6113
    -2.5428  -2.5065  -2.4233  -2.3932  -2.3843  -2.3531  -2.3354  -2.3321
    -2.1250  -2.1140  -2.0321  -2.0300  -2.0119  -1.9882  -1.9775  -1.9715
    -1.9443  -1.9417  -1.9337  -1.9163  -1.6556  -1.6192  -1.6098  -1.5542
    -1.4235  -1.4119  -1.4030  -1.3967  -1.1552  -1.1540  -1.1315  -1.1034
    -0.8578  -0.8460  -0.8433  -0.8308  -0.5970  -0.5917  -0.5856  -0.5834
    -0.5139  -0.5052  -0.4898  -0.4820  -0.3003  -0.2938  -0.2925  -0.2621
    -0.1462  -0.1302  -0.1204  -0.1132   0.4404   0.4602   0.4656   0.4775
     0.7791   0.7807   0.8917   0.8995   1.3861   1.4108   1.4208   1.4265
     3.3498   3.3517   3.3528   3.3548   3.6637   3.6669   3.6861   3.6881
     4.3921   4.4124   4.4173   4.4247   4.7162   4.7226   4.7522   4.7603
     4.9263   4.9365   4.9375   4.9541   5.2344   5.2377   5.2452   5.2456
     6.3924   6.4270   6.4424   6.4569   6.7765   6.8970   7.1514   7.2916
     7.3493   7.4699   7.5930   7.6122   7.6240   7.8457   7.8500   7.9448
     8.0310   8.0359   8.0970   8.1496   8.1821   8.2102   8.2786   8.4060

          k =-0.5000 0.0000-0.0855 (159620 PWs)   bands (ev):

   -24.5694 -24.5640 -24.5634 -24.5617 -23.7800 -23.7761 -23.7421 -23.7382
   -23.4391 -23.4357 -23.4143 -23.4108 -21.9233 -21.9210 -21.9194 -21.9170
   -21.7501 -21.7481 -21.7123 -21.7104 -20.2315 -20.2266 -20.2262 -20.2248
   -16.7967 -16.7962 -16.7872 -16.7867 -15.8426 -15.8417 -15.8158 -15.8148
   -15.5674 -15.5668 -15.5553 -15.5548 -14.5675 -14.5675 -14.5286 -14.5286
   -14.4725 -14.4725 -14.4708 -14.4706 -13.2782 -13.2776 -13.2680 -13.2674
   -12.7349 -12.7346 -12.7337 -12.7333 -11.2882 -11.2879 -11.2868 -11.2866
   -11.1761 -11.1761 -11.1644 -11.1643 -10.4304 -10.4303 -10.3810 -10.3808
   -10.0795 -10.0789 -10.0703 -10.0696  -9.5052  -9.5052  -9.4907  -9.4907
    -8.8729  -8.8723  -8.8277  -8.8274  -8.6592  -8.6584  -8.6409  -8.6398
    -8.4875  -8.4868  -8.4844  -8.4837  -7.7953  -7.7948  -7.7933  -7.7927
    -7.3391  -7.3390  -7.3292  -7.3291  -7.1255  -7.1254  -7.1066  -7.1065
    -6.8830  -6.8826  -6.8502  -6.8500  -6.5930  -6.5921  -6.4855  -6.4849
    -6.4338  -6.4337  -6.2832  -6.2829  -6.2212  -6.2210  -6.1851  -6.1844
    -6.0486  -6.0480  -6.0414  -6.0413  -5.9145  -5.9142  -5.8803  -5.8792
    -5.6967  -5.6966  -5.6744  -5.6740  -4.9979  -4.9977  -4.9689  -4.9687
    -4.8774  -4.8773  -4.8707  -4.8706  -4.5447  -4.5446  -4.5281  -4.5281
    -4.2090  -4.2080  -4.1350  -4.1339  -4.0933  -4.0933  -4.0088  -4.0080
    -4.0000  -3.9998  -3.9123  -3.9120  -3.8694  -3.8691  -3.7555  -3.7550
    -3.6856  -3.6854  -3.6741  -3.6739  -3.4088  -3.4086  -3.3583  -3.3579
    -3.1412  -3.1409  -3.1190  -3.1188  -2.9415  -2.9411  -2.8994  -2.8991
    -2.7510  -2.7503  -2.7380  -2.7371  -2.6951  -2.6951  -2.6352  -2.6347
    -2.4960  -2.4959  -2.4479  -2.4477  -2.3443  -2.3441  -2.3207  -2.3204
    -2.1190  -2.1188  -2.0734  -2.0734  -2.0175  -2.0171  -1.9435  -1.9434
    -1.9133  -1.9132  -1.8539  -1.8537  -1.6574  -1.6567  -1.5584  -1.5578
    -1.4914  -1.4913  -1.4675  -1.4674  -1.1520  -1.1519  -1.1117  -1.1117
    -0.9930  -0.9927  -0.9357  -0.9353  -0.5671  -0.5667  -0.5561  -0.5557
    -0.4924  -0.4922  -0.4689  -0.4684  -0.2697  -0.2696  -0.2557  -0.2557
    -0.1053  -0.1052  -0.0762  -0.0761   0.4307   0.4310   0.4361   0.4365
     0.7366   0.7368   0.9677   0.9680   1.4108   1.4123   1.4390   1.4405
     3.3609   3.3618   3.3683   3.3698   3.6431   3.6435   3.6933   3.6938
     4.4280   4.4285   4.4330   4.4336   4.7139   4.7143   4.7772   4.7777
     4.9379   4.9383   4.9614   4.9619   5.2213   5.2213   5.2355   5.2356
     6.3064   6.3071   6.3870   6.3877   6.8165   6.8166   6.9071   6.9073
     7.0500   7.0502   7.6173   7.6174   7.7321   7.7323   8.0408   8.0410
     8.0457   8.0459   8.2808   8.2812   8.3304   8.3306   8.4975   8.4977

          k =-0.5000 0.0000 0.5374 (159446 PWs)   bands (ev):

   -24.5688 -24.5633 -24.5627 -24.5611 -23.7711 -23.7672 -23.7521 -23.7483
   -23.4329 -23.4295 -23.4204 -23.4170 -21.9224 -21.9204 -21.9200 -21.9180
   -21.7409 -21.7389 -21.7219 -21.7201 -20.2314 -20.2265 -20.2261 -20.2246
   -16.8072 -16.8026 -16.8006 -16.7960 -15.8381 -15.8321 -15.8247 -15.8188
   -15.5585 -15.5543 -15.5519 -15.5479 -14.5589 -14.5555 -14.5393 -14.5346
   -14.4904 -14.4893 -14.4612 -14.4600 -13.2805 -13.2752 -13.2434 -13.2379
   -12.7372 -12.7363 -12.7259 -12.7254 -11.2887 -11.2877 -11.2834 -11.2832
   -11.1933 -11.1870 -11.1765 -11.1709 -10.4093 -10.3865 -10.3839 -10.3575
   -10.0937 -10.0881 -10.0777 -10.0763  -9.5410  -9.5318  -9.5261  -9.5174
    -8.8621  -8.8504  -8.8342  -8.8278  -8.6692  -8.6527  -8.6516  -8.6242
    -8.4758  -8.4687  -8.4668  -8.4634  -7.7903  -7.7866  -7.7820  -7.7752
    -7.3831  -7.3531  -7.3297  -7.2927  -7.1448  -7.1301  -7.1291  -7.1148
    -6.9020  -6.8962  -6.8768  -6.8681  -6.5999  -6.5837  -6.4298  -6.4179
    -6.3836  -6.3580  -6.3553  -6.3494  -6.2187  -6.1982  -6.1451  -6.1157
    -6.0955  -6.0942  -6.0567  -6.0351  -5.9427  -5.9391  -5.9368  -5.9074
    -5.6600  -5.6478  -5.6324  -5.6208  -5.0171  -5.0059  -5.0056  -4.9774
    -4.9035  -4.8943  -4.8349  -4.8275  -4.5390  -4.5302  -4.5296  -4.5272
    -4.1879  -4.1789  -4.1370  -4.1338  -4.1175  -4.1036  -4.0500  -4.0228
    -4.0110  -3.9931  -3.9622  -3.8971  -3.8907  -3.8827  -3.8446  -3.8190
    -3.7094  -3.7000  -3.6542  -3.6474  -3.4395  -3.4297  -3.3930  -3.3884
    -3.1747  -3.1659  -3.0991  -3.0919  -2.8738  -2.8718  -2.8661  -2.8656
    -2.7686  -2.7658  -2.7396  -2.7161  -2.6954  -2.6597  -2.6494  -2.5942
    -2.4924  -2.4815  -2.4547  -2.4528  -2.3955  -2.3916  -2.3376  -2.3211
    -2.1018  -2.0639  -2.0568  -2.0439  -2.0361  -2.0213  -2.0015  -1.9901
    -1.9403  -1.9186  -1.9111  -1.8740  -1.6752  -1.6142  -1.5944  -1.5523
    -1.4190  -1.4147  -1.4077  -1.4016  -1.1531  -1.1525  -1.1218  -1.1140
    -0.8687  -0.8398  -0.8388  -0.8349  -0.6070  -0.5955  -0.5727  -0.5687
    -0.5095  -0.5050  -0.4969  -0.4878  -0.3057  -0.3022  -0.2711  -0.2691
    -0.1368  -0.1307  -0.1276  -0.1092   0.4203   0.4256   0.4833   0.4856
     0.7847   0.7964   0.9052   0.9102   1.3926   1.3978   1.4097   1.4112
     3.3432   3.3491   3.3571   3.3589   3.6562   3.6747   3.6756   3.7025
     4.4072   4.4091   4.4167   4.4280   4.7149   4.7301   4.7576   4.7656
     4.9173   4.9267   4.9392   4.9556   5.1905   5.1990   5.2838   5.2945
     6.3991   6.4149   6.4253   6.4690   6.9201   6.9852   7.0239   7.1258
     7.2543   7.4126   7.5619   7.5677   7.6245   7.8592   7.9036   7.9536
     8.0163   8.1349   8.1811   8.2414   8.2833   8.3127   8.3671   8.4197

     highest occupied, lowest unoccupied level (ev):     1.4602    3.3432

!    total energy              =   -2498.49067582 Ry
     Harris-Foulkes estimate   =   -2498.49067582 Ry
     estimated scf accuracy    <          7.8E-09 Ry

     total all-electron energy =     -9509.468793 Ry

     The total energy is the sum of the following terms:

     one-electron contribution =   -1592.54267764 Ry
     hartree contribution      =     980.39331097 Ry
     xc contribution           =    -513.89543328 Ry
     ewald contribution        =    -658.19887978 Ry
     Dispersion Correction     =      -0.61148733 Ry
     one-center paw contrib.   =    -713.63550875 Ry

     convergence has been achieved in  19 iterations

     Forces acting on atoms (cartesian axes, Ry/au):

     atom    1 type  2   force =    -0.00107239    0.00129078   -0.00183433
     atom    2 type  2   force =    -0.00108287   -0.00118977   -0.00177046
     atom    3 type  2   force =    -0.00088651    0.00059786   -0.00130434
     atom    4 type  2   force =    -0.00082176   -0.00055298   -0.00126584
     atom    5 type  4   force =    -0.00057492    0.00115478    0.00028226
     atom    6 type  4   force =    -0.00061343   -0.00116633    0.00025797
     atom    7 type  4   force =    -0.00067728    0.00116204    0.00026014
     atom    8 type  4   force =    -0.00066628   -0.00115385    0.00026269
     atom    9 type  2   force =     0.00041518   -0.00076883    0.00141639
     atom   10 type  2   force =     0.00097235    0.00066313    0.00154938
     atom   11 type  2   force =     0.00120130   -0.00063718    0.00158508
     atom   12 type  2   force =     0.00066764    0.00071170    0.00145756
     atom   13 type  1   force =    -0.00190110    0.00271175   -0.00139720
     atom   14 type  1   force =    -0.00185029   -0.00272010   -0.00139456
     atom   15 type  1   force =    -0.00177290    0.00268505   -0.00128840
     atom   16 type  1   force =    -0.00187961   -0.00269107   -0.00138912
     atom   17 type  1   force =     0.00106309    0.00126092   -0.00050812
     atom   18 type  1   force =     0.00113298   -0.00131924   -0.00048921
     atom   19 type  1   force =     0.00114916    0.00133124   -0.00052245
     atom   20 type  1   force =     0.00107471   -0.00138305   -0.00056172
     atom   21 type  3   force =    -0.00001917    0.00001050    0.00114652
     atom   22 type  3   force =    -0.00002091   -0.00001439    0.00114488
     atom   23 type  3   force =    -0.00002790    0.00001907    0.00114888
     atom   24 type  3   force =     0.00001282   -0.00000759    0.00117810
     atom   25 type  1   force =     0.00082673    0.00019894   -0.00103330
     atom   26 type  1   force =     0.00067727    0.00004863   -0.00095471
     atom   27 type  1   force =     0.00038819   -0.00016990   -0.00095307
     atom   28 type  1   force =     0.00046945    0.00029659   -0.00085163
     atom   29 type  1   force =     0.00018707   -0.00025612    0.00033446
     atom   30 type  1   force =     0.00028486   -0.00001607    0.00022033
     atom   31 type  1   force =     0.00001164   -0.00008214    0.00023132
     atom   32 type  1   force =     0.00010806   -0.00020556    0.00007540
     atom   33 type  1   force =     0.00102310   -0.00220441   -0.00085866
     atom   34 type  1   force =     0.00113955    0.00223413   -0.00080041
     atom   35 type  1   force =     0.00109073   -0.00220292   -0.00086035
     atom   36 type  1   force =     0.00103705    0.00218340   -0.00087971
     atom   37 type  1   force =     0.00295210   -0.00081121   -0.00148089
     atom   38 type  1   force =     0.00227831    0.00097913   -0.00161126
     atom   39 type  1   force =     0.00199612   -0.00079010   -0.00186936
     atom   40 type  1   force =     0.00266427    0.00081101   -0.00155079
     atom   41 type  1   force =    -0.00189897    0.00174853    0.00103629
     atom   42 type  1   force =    -0.00191064   -0.00170948    0.00100070
     atom   43 type  1   force =    -0.00189792    0.00164972    0.00094471
     atom   44 type  1   force =    -0.00185232   -0.00168225    0.00096850
     atom   45 type  3   force =    -0.00029697    0.00097419   -0.00050268
     atom   46 type  3   force =    -0.00027975   -0.00096861   -0.00050755
     atom   47 type  3   force =    -0.00027544    0.00096697   -0.00051246
     atom   48 type  3   force =    -0.00029483   -0.00097013   -0.00051284
     atom   49 type  3   force =    -0.00128303    0.00010356   -0.00178324
     atom   50 type  3   force =    -0.00127978   -0.00010478   -0.00178450
     atom   51 type  3   force =    -0.00126711    0.00010842   -0.00177533
     atom   52 type  3   force =    -0.00127529   -0.00009866   -0.00178273
     atom   53 type  1   force =     0.00231595    0.00049803    0.00182184
     atom   54 type  1   force =     0.00201639   -0.00041547    0.00204306
     atom   55 type  1   force =     0.00169254    0.00038007    0.00233665
     atom   56 type  1   force =     0.00169581   -0.00031966    0.00232069
     atom   57 type  1   force =    -0.00281548    0.00071366   -0.00387197
     atom   58 type  1   force =    -0.00247630   -0.00075473   -0.00412577
     atom   59 type  1   force =    -0.00215456    0.00081907   -0.00440986
     atom   60 type  1   force =    -0.00215998   -0.00081635   -0.00441672
     atom   61 type  1   force =     0.00091675    0.00303213    0.00090832
     atom   62 type  1   force =     0.00080918   -0.00304926    0.00091913
     atom   63 type  1   force =     0.00078441    0.00301985    0.00096727
     atom   64 type  1   force =     0.00081567   -0.00302537    0.00096425
     atom   65 type  3   force =    -0.00013023    0.00010587   -0.00024398
     atom   66 type  3   force =    -0.00008388   -0.00008750   -0.00024537
     atom   67 type  3   force =    -0.00009308    0.00008573   -0.00024194
     atom   68 type  3   force =    -0.00009628   -0.00008111   -0.00024431
     atom   69 type  3   force =    -0.00000027    0.00203496    0.00050338
     atom   70 type  3   force =     0.00000603   -0.00202673    0.00050843
     atom   71 type  3   force =    -0.00000015    0.00203169    0.00048778
     atom   72 type  3   force =    -0.00000606   -0.00203072    0.00049627
     atom   73 type  2   force =    -0.00189846    0.00052563    0.00012634
     atom   74 type  2   force =    -0.00207388   -0.00064031    0.00004078
     atom   75 type  2   force =    -0.00064314    0.00055210    0.00032027
     atom   76 type  2   force =    -0.00109100   -0.00062172    0.00019945
     atom   77 type  4   force =    -0.00032826   -0.00072124    0.00020808
     atom   78 type  4   force =    -0.00034955    0.00068280    0.00018746
     atom   79 type  4   force =    -0.00040682   -0.00074898    0.00022316
     atom   80 type  4   force =    -0.00031520    0.00068436    0.00020341
     atom   81 type  2   force =     0.00016251   -0.00098291    0.00068352
     atom   82 type  2   force =     0.00012414    0.00111829    0.00073870
     atom   83 type  2   force =     0.00018524   -0.00100967    0.00068221
     atom   84 type  2   force =     0.00005199    0.00122834    0.00077669
     atom   85 type  4   force =    -0.00053904   -0.00025263    0.00050897
     atom   86 type  4   force =    -0.00056018    0.00013295    0.00041777
     atom   87 type  4   force =    -0.00062007    0.00031108    0.00009434
     atom   88 type  4   force =    -0.00065071   -0.00036620    0.00004930
     atom   89 type  2   force =    -0.00354210   -0.00108009    0.00172539
     atom   90 type  2   force =    -0.00300177    0.00100784    0.00171577
     atom   91 type  2   force =    -0.00269496   -0.00081918    0.00261068
     atom   92 type  2   force =    -0.00320282    0.00102639    0.00151820
     atom   93 type  4   force =     0.00201419   -0.00121117    0.00074928
     atom   94 type  4   force =     0.00166851    0.00117283    0.00085985
     atom   95 type  4   force =     0.00214051   -0.00126930    0.00061739
     atom   96 type  4   force =     0.00163371    0.00116408    0.00088640
     atom   97 type  4   force =     0.00129229   -0.00310154    0.00098508
     atom   98 type  4   force =     0.00113238    0.00316124    0.00089660
     atom   99 type  4   force =     0.00034876   -0.00328688    0.00029082
     atom  100 type  4   force =     0.00135552    0.00313422    0.00104953
     atom  101 type  1   force =    -0.00013286   -0.00216117    0.00295084
     atom  102 type  1   force =    -0.00011070    0.00215297    0.00292912
     atom  103 type  1   force =    -0.00007545   -0.00211325    0.00291090
     atom  104 type  1   force =    -0.00006791    0.00211868    0.00289542
     atom  105 type  3   force =     0.00016114    0.00010198   -0.00019612
     atom  106 type  3   force =     0.00016209   -0.00010476   -0.00019616
     atom  107 type  3   force =     0.00015433    0.00009806   -0.00018768
     atom  108 type  3   force =     0.00015196   -0.00011246   -0.00018306
     atom  109 type  3   force =    -0.00001241   -0.00027030   -0.00164428
     atom  110 type  3   force =    -0.00000885    0.00026660   -0.00162578
     atom  111 type  3   force =    -0.00000416   -0.00026375   -0.00163979
     atom  112 type  3   force =    -0.00000326    0.00026194   -0.00162903
     atom  113 type  3   force =    -0.00034066    0.00045699   -0.00094447
     atom  114 type  3   force =    -0.00034179   -0.00046899   -0.00094952
     atom  115 type  3   force =    -0.00033679    0.00046836   -0.00094820
     atom  116 type  3   force =    -0.00034023   -0.00047061   -0.00094952
     atom  117 type  1   force =     0.00264068   -0.00145711   -0.00091675
     atom  118 type  1   force =     0.00259420    0.00144273   -0.00086664
     atom  119 type  1   force =     0.00254765   -0.00143421   -0.00082034
     atom  120 type  1   force =     0.00255356    0.00143421   -0.00081616
     atom  121 type  3   force =    -0.00016081   -0.00006983    0.00000487
     atom  122 type  3   force =    -0.00015398    0.00007160    0.00000015
     atom  123 type  3   force =    -0.00014518   -0.00007285   -0.00000326
     atom  124 type  3   force =    -0.00014275    0.00006704   -0.00000144
     atom  125 type  3   force =    -0.00004199   -0.00012712    0.00144534
     atom  126 type  3   force =    -0.00004339    0.00011824    0.00144276
     atom  127 type  3   force =    -0.00004034   -0.00010694    0.00143522
     atom  128 type  3   force =    -0.00004616    0.00011087    0.00144569
     atom  129 type  3   force =     0.00009724   -0.00081763    0.00096164
     atom  130 type  3   force =     0.00008728    0.00081024    0.00096076
     atom  131 type  3   force =     0.00009189   -0.00081297    0.00096300
     atom  132 type  3   force =     0.00008471    0.00080946    0.00095856
     atom  133 type  4   force =     0.00091463   -0.00054098   -0.00058123
     atom  134 type  4   force =     0.00115917    0.00060681   -0.00050766
     atom  135 type  4   force =     0.00023384   -0.00037877   -0.00077218
     atom  136 type  4   force =     0.00054268    0.00045711   -0.00067793

     Total force =     0.026505     Total SCF correction =     0.000204


     Computing stress (Cartesian axis) and pressure

          total   stress  (Ry/bohr**3)                   (kbar)     P=   -3.32
  -0.00002991  -0.00000007   0.00000178         -4.40     -0.01      0.26
  -0.00000007  -0.00002272   0.00000001         -0.01     -3.34      0.00
   0.00000178   0.00000001  -0.00001509          0.26      0.00     -2.22


     Writing output data file scf.save
 
     init_run     :     79.32s CPU     81.23s WALL (       1 calls)
     electrons    :   2958.78s CPU   3031.24s WALL (       1 calls)
     forces       :     41.37s CPU     41.72s WALL (       1 calls)
     stress       :    187.17s CPU    187.63s WALL (       1 calls)

     Called by init_run:
     wfcinit      :     63.87s CPU     65.60s WALL (       1 calls)
     potinit      :      5.46s CPU      5.50s WALL (       1 calls)

     Called by electrons:
     c_bands      :   2659.18s CPU   2718.33s WALL (      19 calls)
     sum_band     :    273.47s CPU    284.03s WALL (      19 calls)
     v_of_rho     :      3.90s CPU      4.20s WALL (      20 calls)
     newd         :     10.85s CPU     13.31s WALL (      20 calls)
     PAW_pot      :     10.62s CPU     10.63s WALL (      20 calls)
     mix_rho      :      1.03s CPU      1.07s WALL (      19 calls)

     Called by c_bands:
     init_us_2    :      8.81s CPU      8.86s WALL (     164 calls)
     cegterg      :   2611.42s CPU   2670.51s WALL (      76 calls)

     Called by sum_band:
     sum_band:bec :      0.12s CPU      0.12s WALL (      76 calls)
     addusdens    :     10.95s CPU     13.23s WALL (      19 calls)

     Called by *egterg:
     h_psi        :   1331.78s CPU   1374.49s WALL (     380 calls)
     s_psi        :    327.98s CPU    327.98s WALL (     380 calls)
     g_psi        :      4.51s CPU      4.51s WALL (     300 calls)
     cdiaghg      :    152.84s CPU    152.84s WALL (     376 calls)

     Called by h_psi:
     h_psi:pot    :   1325.39s CPU   1368.01s WALL (     380 calls)
     h_psi:calbec :    338.56s CPU    339.00s WALL (     380 calls)
     vloc_psi     :    658.96s CPU    701.12s WALL (     380 calls)
     add_vuspsi   :    327.88s CPU    327.88s WALL (     380 calls)

     General routines
     calbec       :    509.03s CPU    509.71s WALL (     476 calls)
     fft          :      8.42s CPU      8.93s WALL (     284 calls)
     fftw         :    737.22s CPU    787.38s WALL (  140558 calls)
 
     Parallel routines
     fft_scatter  :    249.10s CPU    299.46s WALL (  140842 calls)
 
     PWSCF        : 54m38.68s CPU    56m47.16s WALL

 
   This run was terminated on:  19:41:35   7Dec2017            

=------------------------------------------------------------------------------=
   JOB DONE.
=------------------------------------------------------------------------------=
