
     Program PWSCF v.6.1 (svn rev. 13369) starts on  4Nov2017 at  1:30:52 

     This program is part of the open-source Quantum ESPRESSO suite
     for quantum simulation of materials; please cite
         "P. Giannozzi et al., J. Phys.:Condens. Matter 21 395502 (2009);
          URL http://www.quantum-espresso.org", 
     in publications or presentations arising from this work. More details at
     http://www.quantum-espresso.org/quote

     Parallel version (MPI), running on     8 processors
     R & G space division:  proc/nbgrp/npool/nimage =       8
     Waiting for input...
     Reading input from standard input

     Current dimensions of program PWSCF are:
     Max number of different atomic species (ntypx) = 10
     Max number of k-points (npk) =  40000
     Max angular momentum in pseudopotentials (lmaxx) =  3
               file C.pbe-n-kjpaw_psl.0.1.UPF: wavefunction(s)  2P renormalized
               file N.pbe-n-kjpaw_psl.0.1.UPF: wavefunction(s)  2P renormalized
               file H.pbe-kjpaw_psl.0.1.UPF: wavefunction(s)  1S renormalized
               file O.pbe-n-kjpaw_psl.0.1.UPF: wavefunction(s)  2P renormalized

     -------------------------------------
     Parameters for Dispersion Correction:
     -------------------------------------
       atom      VdW radius       C_6     

        C          2.744         60.710
        N          2.640         42.670
        H          1.892          4.857
        O          2.536         24.284

     Subspace diagonalization in iterative solution of the eigenvalue problem:
     a serial algorithm will be used

 
     Parallelization info
     --------------------
     sticks:   dense  smooth     PW     G-vecs:    dense   smooth      PW
     Min         963     963    260                50710    50710    7085
     Max         964     964    261                50713    50713    7087
     Sum        7711    7711   2087               405695   405695   56685
 


     bravais-lattice index     =            0
     lattice parameter (alat)  =       9.3507  a.u.
     unit-cell volume          =    3002.7655 (a.u.)^3
     number of atoms/cell      =           48
     number of atomic types    =            4
     number of electrons       =       152.00
     number of Kohn-Sham states=           91
     kinetic-energy cutoff     =     100.0000  Ry
     charge density cutoff     =     400.0000  Ry
     convergence threshold     =      1.0E-08
     mixing beta               =       0.5000
     number of iterations used =            8  plain     mixing
     Exchange-correlation      =  SLA  PW   PBX  PBC ( 1  4  3  4 0 0)

     celldm(1)=   9.350743  celldm(2)=   0.000000  celldm(3)=   0.000000
     celldm(4)=   0.000000  celldm(5)=   0.000000  celldm(6)=   0.000000

     crystal axes: (cart. coord. in units of alat)
               a(1) = (   1.000000   0.000000   0.000000 )  
               a(2) = (   0.000000   2.776161   0.000000 )  
               a(3) = (  -0.448561   0.000000   1.322935 )  

     reciprocal axes: (cart. coord. in units 2 pi/alat)
               b(1) = (  1.000000  0.000000  0.339065 )  
               b(2) = (  0.000000  0.360210  0.000000 )  
               b(3) = (  0.000000  0.000000  0.755895 )  


     PseudoPot. # 1 for  C read from file:
     /scratch/ahofstet/pseudo/C.pbe-n-kjpaw_psl.0.1.UPF
     MD5 check sum: 430fe95172b1e11ef3f8ed03bac87931
     Pseudo is Projector augmented-wave + core cor, Zval =  4.0
     Generated using "atomic" code by A. Dal Corso  v.5.0.99 svn rev. 10869
     Shape of augmentation charge: BESSEL
     Using radial grid of 1073 points,  4 beta functions with: 
                l(1) =   0
                l(2) =   0
                l(3) =   1
                l(4) =   1
     Q(r) pseudized with 0 coefficients 


     PseudoPot. # 2 for  N read from file:
     /scratch/ahofstet/pseudo/N.pbe-n-kjpaw_psl.0.1.UPF
     MD5 check sum: f73187c8b701007e77325f868c9291d7
     Pseudo is Projector augmented-wave + core cor, Zval =  5.0
     Generated using "atomic" code by A. Dal Corso  v.5.0.99 svn rev. 10869
     Shape of augmentation charge: PSQ
     Using radial grid of 1085 points,  4 beta functions with: 
                l(1) =   0
                l(2) =   0
                l(3) =   1
                l(4) =   1
     Q(r) pseudized with 0 coefficients 


     PseudoPot. # 3 for  H read from file:
     /scratch/ahofstet/pseudo/H.pbe-kjpaw_psl.0.1.UPF
     MD5 check sum: 94e484f906d9e9773b2f6e52662335b2
     Pseudo is Projector augmented-wave, Zval =  1.0
     Generated using "atomic" code by A. Dal Corso  v.5.0.99 svn rev. 10869
     Shape of augmentation charge: PSQ
     Using radial grid of  929 points,  2 beta functions with: 
                l(1) =   0
                l(2) =   0
     Q(r) pseudized with 0 coefficients 


     PseudoPot. # 4 for  O read from file:
     /scratch/ahofstet/pseudo/O.pbe-n-kjpaw_psl.0.1.UPF
     MD5 check sum: 3f94a2996a3169367d6eb21d9b593f20
     Pseudo is Projector augmented-wave + core cor, Zval =  6.0
     Generated using "atomic" code by A. Dal Corso  v.5.0.99 svn rev. 10869
     Shape of augmentation charge: BESSEL
     Using radial grid of 1095 points,  4 beta functions with: 
                l(1) =   0
                l(2) =   0
                l(3) =   1
                l(4) =   1
     Q(r) pseudized with 0 coefficients 


     atomic species   valence    mass     pseudopotential
        C              4.00    12.01070      C( 1.00)
        N              5.00    14.00670      N( 1.00)
        H              1.00     1.00794      H( 1.00)
        O              6.00    15.99940      O( 1.00)

      2 Sym. Ops., with inversion, found



   Cartesian axes

     site n.     atom                  positions (alat units)
         1           N   tau(   1) = (   0.1612275   0.8114550   0.1493821  )
         2           N   tau(   2) = (   0.1145055   2.1995762   0.5120941  )
         3           N   tau(   3) = (   0.3902116   1.9647061   1.1735526  )
         4           N   tau(   4) = (   0.4369336   0.5765848   0.8108406  )
         5           H   tau(   5) = (   0.0060355   0.7526146   0.2808568  )
         6           H   tau(   6) = (   0.2697018   2.1407171   0.3806130  )
         7           H   tau(   7) = (   0.5454036   2.0235465   1.0420779  )
         8           H   tau(   8) = (   0.2817374   0.6354440   0.9423217  )
         9           N   tau(   9) = (  -0.1617000   0.6283502   1.3089140  )
        10           N   tau(  10) = (  -0.0111088   2.0164321   0.6754759  )
        11           N   tau(  11) = (   0.7131391   2.1478108   0.0140208  )
        12           N   tau(  12) = (   0.5625479   0.7597289   0.6474588  )
        13           N   tau(  13) = (   0.0331813   0.7584332   1.1917428  )
        14           N   tau(  14) = (  -0.2060336   2.1465535   0.7926758  )
        15           N   tau(  15) = (   0.5182578   2.0177278   0.1311920  )
        16           N   tau(  16) = (   0.7574727   0.6296075   0.5302589  )
        17           N   tau(  17) = (   0.0444897   1.0196927   1.2714298  )
        18           N   tau(  18) = (  -0.2173098   2.4078035   0.7129490  )
        19           N   tau(  19) = (   0.5069494   1.7564683   0.0515049  )
        20           N   tau(  20) = (   0.7687489   0.3683575   0.6099857  )
        21           N   tau(  21) = (   0.2354908   1.2789867   0.2660341  )
        22           N   tau(  22) = (   0.0402521   2.6670963   0.3954289  )
        23           N   tau(  23) = (   0.3159484   1.4971744   1.0569006  )
        24           N   tau(  24) = (   0.5111870   0.1090647   0.9275058  )
        25           H   tau(  25) = (   0.3217980   1.4556398   0.1931493  )
        26           H   tau(  26) = (  -0.0460666   0.0675755   0.4683094  )
        27           H   tau(  27) = (   0.2296411   1.3205213   1.1297855  )
        28           H   tau(  28) = (   0.5975057   2.7085855   0.8546254  )
        29           C   tau(  29) = (   0.2925335   1.0511912   0.1284304  )
        30           C   tau(  30) = (  -0.0168176   2.4392560   0.5330276  )
        31           C   tau(  31) = (   0.2589057   1.7249699   1.1945043  )
        32           C   tau(  32) = (   0.5682568   0.3369050   0.7899071  )
        33           C   tau(  33) = (  -0.0037895   1.2987398   0.4351117  )
        34           C   tau(  34) = (   0.2795277   2.6868377   0.2263447  )
        35           C   tau(  35) = (   0.5552286   1.4774212   0.8878231  )
        36           C   tau(  36) = (   0.2719114   0.0893233   1.0965901  )
        37           H   tau(  37) = (   0.0038863   1.4915954   0.5437109  )
        38           H   tau(  38) = (   0.2718547   0.1035273   0.1177639  )
        39           H   tau(  39) = (   0.5475528   1.2845657   0.7792238  )
        40           H   tau(  40) = (   0.2795845   2.6726337   1.2051708  )
        41           H   tau(  41) = (  -0.0060452   1.1346713   0.5841774  )
        42           H   tau(  42) = (   0.2817804   2.5227721   0.0772668  )
        43           H   tau(  43) = (   0.5574844   1.6414897   0.7387573  )
        44           H   tau(  44) = (   0.2696587   0.2533889   1.2456679  )
        45           H   tau(  45) = (   0.8017023   1.2903547   0.3200609  )
        46           H   tau(  46) = (   0.4740293   2.6784471   0.3414023  )
        47           H   tau(  47) = (  -0.2502631   1.4858063   1.0028738  )
        48           H   tau(  48) = (   0.0774098   0.0977139   0.9815324  )

     number of k points=    14
                       cart. coord. in units 2pi/alat
        k(    1) = (   0.0000000   0.0000000   0.0000000), wk =   0.0833333
        k(    2) = (   0.0000000   0.0000000   0.2519651), wk =   0.1666667
        k(    3) = (   0.0000000  -0.1801048   0.0000000), wk =   0.0833333
        k(    4) = (   0.0000000  -0.1801048   0.2519651), wk =   0.1666667
        k(    5) = (   0.2500000   0.0000000   0.0847663), wk =   0.1666667
        k(    6) = (   0.2500000   0.0000000   0.3367313), wk =   0.1666667
        k(    7) = (   0.2500000   0.0000000  -0.1671988), wk =   0.1666667
        k(    8) = (   0.2500000  -0.1801048   0.0847663), wk =   0.1666667
        k(    9) = (   0.2500000  -0.1801048   0.3367313), wk =   0.1666667
        k(   10) = (   0.2500000  -0.1801048  -0.1671988), wk =   0.1666667
        k(   11) = (  -0.5000000   0.0000000  -0.1695325), wk =   0.0833333
        k(   12) = (  -0.5000000   0.0000000   0.0824326), wk =   0.1666667
        k(   13) = (  -0.5000000  -0.1801048  -0.1695325), wk =   0.0833333
        k(   14) = (  -0.5000000  -0.1801048   0.0824326), wk =   0.1666667

     Dense  grid:   405695 G-vectors     FFT dimensions: (  60, 180,  90)

     Estimated max dynamical RAM per process >     263.89MB

     Estimated total allocated dynamical RAM >    2111.11MB

     Check: negative/imaginary core charge=   -0.000002    0.000000

     Initial potential from superposition of free atoms

     starting charge  151.99933, renormalised to  152.00000
     Starting wfc are  132 randomized atomic wfcs
     Checking if some PAW data can be deallocated... 

     total cpu time spent up to now is       14.6 secs

     per-process dynamical memory:   268.9 Mb

     Self-consistent Calculation

     iteration #  1     ecut=   100.00 Ry     beta=0.50
     Davidson diagonalization with overlap
     ethr =  1.00E-02,  avg # of iterations =  3.9

     total cpu time spent up to now is       45.4 secs

     total energy              =    -734.85452925 Ry
     Harris-Foulkes estimate   =    -736.83083678 Ry
     estimated scf accuracy    <       3.99141998 Ry

     iteration #  2     ecut=   100.00 Ry     beta=0.50
     Davidson diagonalization with overlap
     ethr =  2.63E-03,  avg # of iterations =  3.2

     total cpu time spent up to now is       65.3 secs

     total energy              =    -735.27186459 Ry
     Harris-Foulkes estimate   =    -735.42654461 Ry
     estimated scf accuracy    <       0.38717445 Ry

     iteration #  3     ecut=   100.00 Ry     beta=0.50
     Davidson diagonalization with overlap
     ethr =  2.55E-04,  avg # of iterations =  7.9

     total cpu time spent up to now is      101.5 secs

     total energy              =    -735.47130598 Ry
     Harris-Foulkes estimate   =    -735.55572280 Ry
     estimated scf accuracy    <       0.22084527 Ry

     iteration #  4     ecut=   100.00 Ry     beta=0.50
     Davidson diagonalization with overlap
     ethr =  1.45E-04,  avg # of iterations =  1.9

     total cpu time spent up to now is      119.2 secs

     total energy              =    -735.46301851 Ry
     Harris-Foulkes estimate   =    -735.49128166 Ry
     estimated scf accuracy    <       0.05590678 Ry

     iteration #  5     ecut=   100.00 Ry     beta=0.50
     Davidson diagonalization with overlap
     ethr =  3.68E-05,  avg # of iterations =  5.1

     total cpu time spent up to now is      150.6 secs

     total energy              =    -735.49688403 Ry
     Harris-Foulkes estimate   =    -735.51326643 Ry
     estimated scf accuracy    <       0.05524158 Ry

     iteration #  6     ecut=   100.00 Ry     beta=0.50
     Davidson diagonalization with overlap
     ethr =  3.63E-05,  avg # of iterations =  1.0

     total cpu time spent up to now is      167.5 secs

     total energy              =    -735.48559347 Ry
     Harris-Foulkes estimate   =    -735.49903293 Ry
     estimated scf accuracy    <       0.02363751 Ry

     iteration #  7     ecut=   100.00 Ry     beta=0.50
     Davidson diagonalization with overlap
     ethr =  1.56E-05,  avg # of iterations =  5.4

     total cpu time spent up to now is      195.3 secs

     total energy              =    -735.49726424 Ry
     Harris-Foulkes estimate   =    -735.49837841 Ry
     estimated scf accuracy    <       0.00526196 Ry

     iteration #  8     ecut=   100.00 Ry     beta=0.50
     Davidson diagonalization with overlap
     ethr =  3.46E-06,  avg # of iterations =  1.7

     total cpu time spent up to now is      212.7 secs

     total energy              =    -735.49537963 Ry
     Harris-Foulkes estimate   =    -735.49739314 Ry
     estimated scf accuracy    <       0.00319887 Ry

     iteration #  9     ecut=   100.00 Ry     beta=0.50
     Davidson diagonalization with overlap
     ethr =  2.10E-06,  avg # of iterations =  4.9

     total cpu time spent up to now is      239.7 secs

     total energy              =    -735.49684195 Ry
     Harris-Foulkes estimate   =    -735.49706349 Ry
     estimated scf accuracy    <       0.00087836 Ry

     iteration # 10     ecut=   100.00 Ry     beta=0.50
     Davidson diagonalization with overlap
     ethr =  5.78E-07,  avg # of iterations =  1.0

     total cpu time spent up to now is      256.7 secs

     total energy              =    -735.49660496 Ry
     Harris-Foulkes estimate   =    -735.49686009 Ry
     estimated scf accuracy    <       0.00047925 Ry

     iteration # 11     ecut=   100.00 Ry     beta=0.50
     Davidson diagonalization with overlap
     ethr =  3.15E-07,  avg # of iterations =  4.0

     total cpu time spent up to now is      280.2 secs

     total energy              =    -735.49679242 Ry
     Harris-Foulkes estimate   =    -735.49680084 Ry
     estimated scf accuracy    <       0.00003810 Ry

     iteration # 12     ecut=   100.00 Ry     beta=0.50
     Davidson diagonalization with overlap
     ethr =  2.51E-08,  avg # of iterations =  1.4

     total cpu time spent up to now is      297.4 secs

     total energy              =    -735.49678369 Ry
     Harris-Foulkes estimate   =    -735.49679395 Ry
     estimated scf accuracy    <       0.00002228 Ry

     iteration # 13     ecut=   100.00 Ry     beta=0.50
     Davidson diagonalization with overlap
     ethr =  1.47E-08,  avg # of iterations =  3.9

     total cpu time spent up to now is      319.3 secs

     total energy              =    -735.49679009 Ry
     Harris-Foulkes estimate   =    -735.49679011 Ry
     estimated scf accuracy    <       0.00000007 Ry

     iteration # 14     ecut=   100.00 Ry     beta=0.50
     Davidson diagonalization with overlap
     ethr =  4.57E-11,  avg # of iterations =  4.8

     total cpu time spent up to now is      355.8 secs

     total energy              =    -735.49679032 Ry
     Harris-Foulkes estimate   =    -735.49679032 Ry
     estimated scf accuracy    <       0.00000003 Ry

     iteration # 15     ecut=   100.00 Ry     beta=0.50
     Davidson diagonalization with overlap
     ethr =  2.13E-11,  avg # of iterations =  2.1

     total cpu time spent up to now is      373.5 secs

     total energy              =    -735.49679033 Ry
     Harris-Foulkes estimate   =    -735.49679033 Ry
     estimated scf accuracy    <       0.00000002 Ry

     iteration # 16     ecut=   100.00 Ry     beta=0.50
     Davidson diagonalization with overlap
     ethr =  1.32E-11,  avg # of iterations =  1.9

     total cpu time spent up to now is      391.1 secs

     total energy              =    -735.49679032 Ry
     Harris-Foulkes estimate   =    -735.49679033 Ry
     estimated scf accuracy    <       0.00000001 Ry

     iteration # 17     ecut=   100.00 Ry     beta=0.50
     Davidson diagonalization with overlap
     ethr =  7.52E-12,  avg # of iterations =  3.1

     total cpu time spent up to now is      410.4 secs

     End of self-consistent calculation

          k = 0.0000 0.0000 0.0000 ( 50711 PWs)   bands (ev):

   -21.7086 -21.7018 -21.6075 -21.6008 -17.2777 -17.2241 -17.1755 -17.1107
   -16.5379 -16.4691 -16.4122 -16.3661 -14.6376 -14.5492 -14.5474 -14.4863
   -10.8594 -10.8488 -10.7163 -10.6267  -9.7953  -9.6515  -9.6373  -9.4386
    -9.2870  -9.0239  -8.8535  -8.6993  -7.5143  -7.3292  -7.1858  -6.9217
    -6.2468  -6.2406  -6.2275  -6.2151  -5.6184  -5.5673  -5.0919  -5.0164
    -4.8600  -4.6184  -4.4532  -4.3891  -3.9324  -3.7635  -3.7068  -3.3940
    -3.2766  -3.0958  -2.8363  -2.5836  -2.5777  -2.3842  -2.2011  -2.0426
    -1.8253  -1.7102  -1.5185  -1.5057  -1.4912  -1.2718  -1.0950  -1.0598
    -0.6754  -0.6723  -0.6113  -0.4339  -0.3843  -0.3380  -0.3043  -0.2938
     1.2796   1.3116   1.3153   1.3462   5.1114   5.1268   5.4888   5.5208
     6.5342   6.5660   6.8807   6.8979   7.0793   7.4336   7.7272   8.4708
     8.6739   8.6824   8.9214

          k = 0.0000 0.0000 0.2520 ( 50645 PWs)   bands (ev):

   -21.6837 -21.6770 -21.6332 -21.6265 -17.2522 -17.2234 -17.1704 -17.1401
   -16.5068 -16.4449 -16.4443 -16.3929 -14.6355 -14.5925 -14.5159 -14.4840
   -10.8561 -10.8518 -10.6743 -10.6326  -9.7382  -9.6512  -9.5858  -9.5037
    -9.1854  -8.9945  -8.9283  -8.8658  -7.4724  -7.2945  -7.1802  -7.0020
    -6.2790  -6.2553  -6.2352  -6.2306  -5.4741  -5.4457  -5.2084  -5.1701
    -4.8399  -4.7811  -4.4512  -4.3448  -3.7413  -3.6580  -3.5586  -3.4556
    -3.2104  -2.9332  -2.8745  -2.7090  -2.6863  -2.5218  -2.0748  -2.0257
    -1.7667  -1.6534  -1.5508  -1.5493  -1.4018  -1.3016  -1.2067  -1.1480
    -0.6758  -0.6262  -0.6205  -0.5354  -0.4093  -0.3829  -0.2724  -0.2600
     1.1130   1.1195   1.4512   1.4552   5.1934   5.2241   5.3880   5.4129
     6.5050   6.5243   6.9762   6.9998   7.3437   7.7593   7.9480   8.1561
     8.5394   8.6634   8.8317

          k = 0.0000-0.1801 0.0000 ( 50670 PWs)   bands (ev):

   -21.7053 -21.7053 -21.6041 -21.6040 -17.2587 -17.2568 -17.1375 -17.1357
   -16.5095 -16.5090 -16.3832 -16.3829 -14.6093 -14.6084 -14.5018 -14.5010
   -10.8566 -10.8555 -10.6713 -10.6703  -9.7392  -9.7388  -9.5444  -9.5442
    -9.1489  -9.1487  -8.7595  -8.7593  -7.4547  -7.4547  -7.0199  -7.0198
    -6.2502  -6.2498  -6.2207  -6.2205  -5.5873  -5.5873  -5.0612  -5.0612
    -4.7463  -4.7458  -4.4100  -4.4088  -3.8760  -3.8750  -3.5300  -3.5296
    -3.2570  -3.2568  -2.5808  -2.5803  -2.4704  -2.4702  -2.1803  -2.1798
    -1.7943  -1.7929  -1.5136  -1.5135  -1.3675  -1.3666  -1.0728  -1.0727
    -0.6778  -0.6775  -0.5576  -0.5566  -0.3448  -0.3447  -0.2715  -0.2711
     1.2985   1.2992   1.3267   1.3273   5.1191   5.1192   5.5051   5.5052
     6.5489   6.5501   6.8939   6.8953   7.1740   7.1741   8.1852   8.1854
     8.6036   8.6039   9.0937

          k = 0.0000-0.1801 0.2520 ( 50708 PWs)   bands (ev):

   -21.6806 -21.6805 -21.6297 -21.6296 -17.2410 -17.2390 -17.1540 -17.1521
   -16.4875 -16.4868 -16.4075 -16.4070 -14.6176 -14.6164 -14.4975 -14.4964
   -10.8546 -10.8535 -10.6548 -10.6538  -9.6861  -9.6856  -9.5629  -9.5623
    -9.0938  -9.0937  -8.8838  -8.8837  -7.4030  -7.4029  -7.0726  -7.0725
    -6.2673  -6.2660  -6.2332  -6.2322  -5.4567  -5.4567  -5.1939  -5.1938
    -4.8111  -4.8102  -4.3951  -4.3943  -3.7148  -3.7138  -3.4927  -3.4918
    -3.1470  -3.1470  -2.7670  -2.7665  -2.5060  -2.5058  -2.0982  -2.0974
    -1.7282  -1.7270  -1.5424  -1.5416  -1.3527  -1.3523  -1.1716  -1.1714
    -0.6640  -0.6634  -0.6005  -0.5994  -0.3297  -0.3294  -0.2945  -0.2942
     1.1202   1.1208   1.4476   1.4483   5.2082   5.2085   5.4018   5.4020
     6.5148   6.5160   6.9854   6.9866   7.4683   7.4686   8.1760   8.1765
     8.5754   8.5756   8.8871

          k = 0.2500 0.0000 0.0848 ( 50688 PWs)   bands (ev):

   -21.6889 -21.6826 -21.6172 -21.6111 -17.2491 -17.2090 -17.1740 -17.1288
   -16.5363 -16.4704 -16.4494 -16.3986 -14.6287 -14.5663 -14.5351 -14.4924
   -10.8536 -10.8509 -10.7482 -10.6968  -9.7668  -9.6502  -9.6009  -9.4743
    -9.2295  -9.0012  -8.8752  -8.7941  -7.5002  -7.2332  -7.1823  -6.9209
    -6.2611  -6.2426  -6.2368  -6.2227  -5.6477  -5.5653  -5.2898  -5.1573
    -4.8460  -4.7189  -4.3564  -4.2580  -3.9250  -3.8483  -3.6722  -3.4879
    -3.3331  -3.0082  -2.8487  -2.6955  -2.6449  -2.4829  -2.1135  -2.0410
    -1.6158  -1.5802  -1.3977  -1.3966  -1.2515  -1.0977  -1.0231  -0.9629
    -0.6581  -0.6393  -0.6115  -0.5251  -0.4039  -0.3315  -0.2877  -0.2617
     1.3063   1.3454   1.3584   1.3643   5.1746   5.2008   5.4281   5.4778
     6.5845   6.6138   6.9793   7.0124   7.4108   7.6660   8.0116   8.4806
     8.4987   8.5815   8.8579

          k = 0.2500 0.0000 0.3367 ( 50723 PWs)   bands (ev):

   -21.6641 -21.6579 -21.6421 -21.6362 -17.2312 -17.2022 -17.1883 -17.1439
   -16.5731 -16.5023 -16.4093 -16.3632 -14.6294 -14.5857 -14.5117 -14.4938
   -10.8973 -10.8959 -10.7077 -10.6389  -9.7743  -9.6556  -9.6282  -9.4307
    -9.3120  -9.0167  -8.8705  -8.7048  -7.4362  -7.2723  -7.1859  -6.9539
    -6.2604  -6.2539  -6.2306  -6.2215  -5.5423  -5.4583  -5.4035  -5.2791
    -4.7696  -4.6050  -4.4580  -4.3889  -3.7932  -3.7495  -3.6582  -3.5394
    -3.5038  -3.1708  -2.8968  -2.5953  -2.5724  -2.3822  -2.1415  -2.0138
    -1.5484  -1.4969  -1.4480  -1.4429  -1.1508  -1.1230  -1.0668  -1.0545
    -0.7097  -0.6676  -0.5769  -0.4252  -0.4104  -0.3540  -0.2856  -0.2670
     1.0825   1.2659   1.3794   1.5308   5.2007   5.2418   5.3912   5.4242
     6.5684   6.6412   6.9943   7.0484   7.7655   7.8429   8.0391   8.2914
     8.3050   8.6014   8.7020

          k = 0.2500 0.0000-0.1672 ( 50746 PWs)   bands (ev):

   -21.6780 -21.6719 -21.6282 -21.6221 -17.2292 -17.2160 -17.1590 -17.1569
   -16.5315 -16.4685 -16.4539 -16.4015 -14.6236 -14.6051 -14.5119 -14.4860
   -10.8578 -10.8567 -10.7127 -10.6981  -9.6991  -9.6659  -9.5912  -9.4972
    -9.1302  -8.9807  -8.9591  -8.9075  -7.3728  -7.3663  -7.0483  -7.0331
    -6.2709  -6.2548  -6.2380  -6.2320  -5.7480  -5.6471  -5.2538  -5.0592
    -4.8111  -4.7882  -4.3506  -4.3323  -3.9010  -3.8274  -3.4804  -3.4509
    -3.1924  -2.9086  -2.8722  -2.7768  -2.6698  -2.6054  -2.0605  -2.0477
    -1.6203  -1.5443  -1.4102  -1.3538  -1.2412  -1.1662  -1.0340  -0.9947
    -0.6811  -0.6431  -0.6048  -0.5391  -0.4028  -0.4022  -0.2791  -0.2274
     1.1139   1.2679   1.3841   1.5181   5.2608   5.2819   5.3298   5.3715
     6.6606   6.7038   6.9589   7.0174   7.3246   7.4948   8.1570   8.4782
     8.6809   8.7609   8.7825

          k = 0.2500-0.1801 0.0848 ( 50698 PWs)   bands (ev):

   -21.6859 -21.6858 -21.6141 -21.6140 -17.2350 -17.2331 -17.1474 -17.1456
   -16.5126 -16.5120 -16.4151 -16.4147 -14.6057 -14.6047 -14.5066 -14.5056
   -10.8536 -10.8525 -10.7229 -10.7219  -9.7129  -9.7124  -9.5481  -9.5476
    -9.1118  -9.1117  -8.8238  -8.8237  -7.4116  -7.4115  -7.0064  -7.0064
    -6.2534  -6.2520  -6.2299  -6.2289  -5.6121  -5.6121  -5.2189  -5.2188
    -4.7860  -4.7851  -4.3040  -4.3030  -3.8932  -3.8922  -3.5715  -3.5706
    -3.2531  -3.2530  -2.6997  -2.6992  -2.4923  -2.4922  -2.1492  -2.1484
    -1.6056  -1.6045  -1.3942  -1.3937  -1.1762  -1.1758  -0.9859  -0.9858
    -0.6547  -0.6540  -0.5767  -0.5755  -0.3255  -0.3251  -0.2967  -0.2966
     1.3223   1.3229   1.3633   1.3638   5.1864   5.1867   5.4539   5.4542
     6.6005   6.6014   6.9941   6.9950   7.4897   7.4903   8.2697   8.2701
     8.5792   8.5794   8.8236

          k = 0.2500-0.1801 0.3367 ( 50706 PWs)   bands (ev):

   -21.6615 -21.6613 -21.6389 -21.6386 -17.2227 -17.2210 -17.1621 -17.1604
   -16.5425 -16.5421 -16.3815 -16.3812 -14.6105 -14.6093 -14.5010 -14.4999
   -10.8974 -10.8964 -10.6745 -10.6734  -9.7264  -9.7261  -9.5452  -9.5449
    -9.1569  -9.1568  -8.7673  -8.7672  -7.3881  -7.3881  -7.0340  -7.0340
    -6.2659  -6.2648  -6.2226  -6.2217  -5.5152  -5.5151  -5.3225  -5.3224
    -4.6976  -4.6971  -4.4172  -4.4160  -3.7693  -3.7683  -3.6101  -3.6093
    -3.4011  -3.4009  -2.6073  -2.6068  -2.4852  -2.4851  -2.1513  -2.1508
    -1.5257  -1.5247  -1.4432  -1.4425  -1.1123  -1.1115  -1.0753  -1.0747
    -0.6775  -0.6774  -0.5517  -0.5510  -0.3274  -0.3270  -0.2863  -0.2859
     1.1517   1.1523   1.4759   1.4766   5.2189   5.2193   5.4104   5.4108
     6.6053   6.6063   7.0182   7.0192   7.7911   7.7914   8.1179   8.1183
     8.4978   8.4982   8.6916

          k = 0.2500-0.1801-0.1672 ( 50706 PWs)   bands (ev):

   -21.6752 -21.6751 -21.6250 -21.6249 -17.2238 -17.2217 -17.1588 -17.1568
   -16.5103 -16.5098 -16.4179 -16.4174 -14.6161 -14.6149 -14.4984 -14.4972
   -10.8573 -10.8562 -10.7072 -10.7061  -9.6681  -9.6677  -9.5655  -9.5648
    -9.0631  -9.0628  -8.9193  -8.9191  -7.3624  -7.3622  -7.0494  -7.0493
    -6.2620  -6.2606  -6.2349  -6.2338  -5.7062  -5.7062  -5.1504  -5.1504
    -4.8010  -4.7999  -4.3372  -4.3364  -3.8664  -3.8654  -3.4700  -3.4690
    -3.1069  -3.1068  -2.8115  -2.8111  -2.5447  -2.5446  -2.1066  -2.1058
    -1.5900  -1.5890  -1.3751  -1.3744  -1.2109  -1.2106  -1.0053  -1.0052
    -0.6609  -0.6605  -0.5933  -0.5925  -0.3583  -0.3579  -0.2726  -0.2725
     1.1741   1.1747   1.4658   1.4665   5.2682   5.2689   5.3538   5.3544
     6.6853   6.6863   6.9818   6.9828   7.3861   7.3866   8.3443   8.3447
     8.6532   8.6535   8.8704

          k =-0.5000 0.0000-0.1695 ( 50722 PWs)   bands (ev):

   -21.6485 -21.6474 -21.6430 -21.6419 -17.1966 -17.1944 -17.1723 -17.1703
   -16.5108 -16.5099 -16.4518 -16.4510 -14.6022 -14.6010 -14.5114 -14.5102
   -10.8328 -10.8319 -10.7945 -10.7935  -9.6940  -9.6936  -9.5385  -9.5376
    -9.0321  -9.0321  -8.9309  -8.9307  -7.3749  -7.3749  -6.9852  -6.9852
    -6.2627  -6.2611  -6.2494  -6.2482  -5.5465  -5.5463  -5.4503  -5.4502
    -4.7883  -4.7872  -4.2045  -4.2036  -3.9169  -3.9160  -3.6980  -3.6969
    -3.0518  -3.0517  -2.7786  -2.7785  -2.7451  -2.7446  -2.0507  -2.0499
    -1.4157  -1.4147  -1.2785  -1.2777  -0.9741  -0.9739  -0.9314  -0.9311
    -0.6061  -0.6053  -0.5929  -0.5918  -0.4026  -0.4023  -0.2399  -0.2399
     1.3745   1.3753   1.3904   1.3913   5.2969   5.2986   5.3384   5.3401
     6.7967   6.7971   6.9207   6.9214   8.1516   8.1517   8.3544   8.3545
     8.3749   8.3753   8.5335

          k =-0.5000 0.0000 0.0824 ( 50758 PWs)   bands (ev):

   -21.6575 -21.6522 -21.6379 -21.6324 -17.2021 -17.1923 -17.1816 -17.1652
   -16.5914 -16.5207 -16.4244 -16.3768 -14.6166 -14.5998 -14.5045 -14.4988
   -10.9055 -10.9015 -10.7454 -10.6962  -9.7562  -9.6519  -9.6254  -9.4340
    -9.2966  -9.0023  -8.8723  -8.7298  -7.3992  -7.2069  -7.1553  -6.9482
    -6.2535  -6.2503  -6.2401  -6.2362  -5.8310  -5.7037  -5.3747  -5.1655
    -4.7335  -4.6315  -4.3629  -4.3100  -3.9951  -3.9702  -3.5624  -3.5005
    -3.4891  -3.1601  -2.8749  -2.6407  -2.5680  -2.4527  -2.1157  -2.0246
    -1.4463  -1.3602  -1.3251  -1.2339  -1.0317  -0.9797  -0.9388  -0.9004
    -0.7198  -0.6557  -0.5617  -0.4335  -0.4304  -0.3439  -0.2651  -0.2493
     1.1947   1.3374   1.3949   1.5131   5.2210   5.2774   5.3231   5.3836
     6.8156   6.9455   6.9581   6.9739   7.8305   7.8899   7.9891   8.0201
     8.5332   8.6093   8.7981

          k =-0.5000-0.1801-0.1695 ( 50708 PWs)   bands (ev):

   -21.6485 -21.6474 -21.6430 -21.6419 -17.1965 -17.1944 -17.1724 -17.1704
   -16.5108 -16.5100 -16.4518 -16.4510 -14.6022 -14.6010 -14.5114 -14.5102
   -10.8303 -10.8293 -10.7977 -10.7966  -9.6742  -9.6738  -9.5623  -9.5614
    -9.0214  -9.0211  -8.9377  -8.9375  -7.3662  -7.3661  -6.9962  -6.9961
    -6.2597  -6.2580  -6.2499  -6.2485  -5.5427  -5.5425  -5.4543  -5.4541
    -4.7873  -4.7862  -4.2063  -4.2055  -3.9204  -3.9195  -3.6841  -3.6830
    -3.0401  -3.0401  -2.9339  -2.9335  -2.5645  -2.5644  -2.1053  -2.1044
    -1.3948  -1.3938  -1.3077  -1.3069  -0.9541  -0.9534  -0.9390  -0.9384
    -0.6146  -0.6136  -0.5844  -0.5830  -0.3817  -0.3813  -0.2557  -0.2557
     1.3710   1.3719   1.3923   1.3933   5.2981   5.2998   5.3368   5.3385
     6.8045   6.8051   6.9140   6.9148   8.1538   8.1541   8.2752   8.2756
     8.3301   8.3304   8.6543

          k =-0.5000-0.1801 0.0824 ( 50706 PWs)   bands (ev):

   -21.6554 -21.6551 -21.6349 -21.6347 -17.1983 -17.1974 -17.1734 -17.1725
   -16.5611 -16.5607 -16.3957 -16.3954 -14.6090 -14.6078 -14.5020 -14.5008
   -10.9041 -10.9031 -10.7218 -10.7207  -9.7138  -9.7135  -9.5465  -9.5461
    -9.1415  -9.1414  -8.7827  -8.7825  -7.3377  -7.3376  -7.0157  -7.0157
    -6.2610  -6.2602  -6.2308  -6.2304  -5.7800  -5.7799  -5.2603  -5.2603
    -4.6839  -4.6831  -4.3346  -4.3335  -3.9768  -3.9759  -3.5266  -3.5256
    -3.4062  -3.4060  -2.6279  -2.6273  -2.5041  -2.5040  -2.1548  -2.1542
    -1.4077  -1.4070  -1.2724  -1.2719  -1.0038  -1.0036  -0.9119  -0.9118
    -0.6642  -0.6640  -0.5461  -0.5455  -0.3473  -0.3470  -0.2653  -0.2652
     1.2436   1.2441   1.4745   1.4750   5.2433   5.2440   5.3586   5.3593
     6.8773   6.8775   6.9711   6.9716   7.8218   7.8219   8.0350   8.0357
     8.6209   8.6214   8.7368

     highest occupied, lowest unoccupied level (ev):     1.5308    5.1114

!    total energy              =    -735.49679032 Ry
     Harris-Foulkes estimate   =    -735.49679032 Ry
     estimated scf accuracy    <          1.2E-09 Ry

     total all-electron energy =     -2823.585537 Ry

     The total energy is the sum of the following terms:

     one-electron contribution =    -385.68896950 Ry
     hartree contribution      =     251.00142466 Ry
     xc contribution           =    -155.87656250 Ry
     ewald contribution        =    -225.93643309 Ry
     Dispersion Correction     =      -0.22032381 Ry
     one-center paw contrib.   =    -218.77592608 Ry

     convergence has been achieved in  17 iterations

     Forces acting on atoms (cartesian axes, Ry/au):

     atom    1 type  2   force =     0.00536432   -0.00464242   -0.00221458
     atom    2 type  2   force =    -0.00521458   -0.00505257    0.00214881
     atom    3 type  2   force =    -0.00536432    0.00464242    0.00221458
     atom    4 type  2   force =     0.00521458    0.00505257   -0.00214881
     atom    5 type  3   force =    -0.00203455   -0.00036575    0.00070004
     atom    6 type  3   force =     0.00199403   -0.00030799   -0.00068155
     atom    7 type  3   force =     0.00203455    0.00036575   -0.00070004
     atom    8 type  3   force =    -0.00199403    0.00030799    0.00068155
     atom    9 type  2   force =    -0.00117669    0.00331335    0.00596871
     atom   10 type  2   force =     0.00081045    0.00364260   -0.00573080
     atom   11 type  2   force =     0.00117669   -0.00331335   -0.00596871
     atom   12 type  2   force =    -0.00081045   -0.00364260    0.00573080
     atom   13 type  2   force =    -0.00266129   -0.00090040   -0.00192609
     atom   14 type  2   force =     0.00303740   -0.00110801    0.00165020
     atom   15 type  2   force =     0.00266129    0.00090040    0.00192609
     atom   16 type  2   force =    -0.00303740    0.00110801   -0.00165020
     atom   17 type  2   force =     0.00840508    0.00180343   -0.00582725
     atom   18 type  2   force =    -0.00860491    0.00163692    0.00602089
     atom   19 type  2   force =    -0.00840508   -0.00180343    0.00582725
     atom   20 type  2   force =     0.00860491   -0.00163692   -0.00602089
     atom   21 type  2   force =    -0.00359504   -0.00884696   -0.01148395
     atom   22 type  2   force =     0.00352887   -0.00915421    0.01155788
     atom   23 type  2   force =     0.00359504    0.00884696    0.01148395
     atom   24 type  2   force =    -0.00352887    0.00915421   -0.01155788
     atom   25 type  3   force =     0.00032672   -0.00110113    0.00235308
     atom   26 type  3   force =    -0.00033371   -0.00108982   -0.00232869
     atom   27 type  3   force =    -0.00032672    0.00110113   -0.00235308
     atom   28 type  3   force =     0.00033371    0.00108982    0.00232869
     atom   29 type  1   force =    -0.01167470    0.01118842    0.01009905
     atom   30 type  1   force =     0.01185484    0.01184484   -0.01036002
     atom   31 type  1   force =     0.01167470   -0.01118842   -0.01009905
     atom   32 type  1   force =    -0.01185484   -0.01184484    0.01036002
     atom   33 type  1   force =    -0.01348955    0.00291567   -0.00502768
     atom   34 type  1   force =     0.01346543    0.00283761    0.00507975
     atom   35 type  1   force =     0.01348955   -0.00291567    0.00502768
     atom   36 type  1   force =    -0.01346543   -0.00283761   -0.00507975
     atom   37 type  3   force =     0.00120188    0.00045764    0.00069509
     atom   38 type  3   force =    -0.00119907    0.00052523   -0.00074301
     atom   39 type  3   force =    -0.00120188   -0.00045764   -0.00069509
     atom   40 type  3   force =     0.00119907   -0.00052523    0.00074301
     atom   41 type  3   force =    -0.00007789   -0.00190506    0.00255745
     atom   42 type  3   force =     0.00007476   -0.00187828   -0.00252947
     atom   43 type  3   force =     0.00007789    0.00190506   -0.00255745
     atom   44 type  3   force =    -0.00007476    0.00187828    0.00252947
     atom   45 type  3   force =     0.01843440   -0.00149549    0.00486818
     atom   46 type  3   force =    -0.01841282   -0.00150024   -0.00487755
     atom   47 type  3   force =    -0.01843440    0.00149549   -0.00486818
     atom   48 type  3   force =     0.01841282    0.00150024    0.00487755

     Total force =     0.075718     Total SCF correction =     0.000051


     Computing stress (Cartesian axis) and pressure

          total   stress  (Ry/bohr**3)                   (kbar)     P=  -11.88
  -0.00010399   0.00000008  -0.00000484        -15.30      0.01     -0.71
   0.00000008  -0.00008081  -0.00000005          0.01    -11.89     -0.01
  -0.00000484  -0.00000005  -0.00005743         -0.71     -0.01     -8.45


     Writing output data file scf.save
 
     init_run     :     13.47s CPU     13.98s WALL (       1 calls)
     electrons    :    379.70s CPU    395.92s WALL (       1 calls)
     forces       :      5.97s CPU      6.02s WALL (       1 calls)
     stress       :     23.25s CPU     23.28s WALL (       1 calls)

     Called by init_run:
     wfcinit      :      8.99s CPU      9.37s WALL (       1 calls)
     potinit      :      1.59s CPU      1.61s WALL (       1 calls)

     Called by electrons:
     c_bands      :    327.33s CPU    342.05s WALL (      17 calls)
     sum_band     :     46.43s CPU     47.69s WALL (      17 calls)
     v_of_rho     :      0.96s CPU      1.07s WALL (      18 calls)
     newd         :      1.76s CPU      1.87s WALL (      18 calls)
     PAW_pot      :      2.88s CPU      2.89s WALL (      18 calls)
     mix_rho      :      0.23s CPU      0.25s WALL (      17 calls)

     Called by c_bands:
     init_us_2    :      4.21s CPU      4.22s WALL (     518 calls)
     cegterg      :    315.01s CPU    329.64s WALL (     238 calls)

     Called by sum_band:
     sum_band:bec :      0.04s CPU      0.04s WALL (     238 calls)
     addusdens    :      1.90s CPU      1.92s WALL (      17 calls)

     Called by *egterg:
     h_psi        :    218.66s CPU    229.67s WALL (    1053 calls)
     s_psi        :     23.56s CPU     23.56s WALL (    1053 calls)
     g_psi        :      1.56s CPU      1.55s WALL (     801 calls)
     cdiaghg      :     17.41s CPU     17.39s WALL (    1039 calls)

     Called by h_psi:
     h_psi:pot    :    216.62s CPU    227.60s WALL (    1053 calls)
     h_psi:calbec :     21.20s CPU     21.30s WALL (    1053 calls)
     vloc_psi     :    171.99s CPU    182.87s WALL (    1053 calls)
     add_vuspsi   :     23.43s CPU     23.43s WALL (    1053 calls)

     General routines
     calbec       :     31.24s CPU     31.38s WALL (    1361 calls)
     fft          :      0.61s CPU      0.79s WALL (     258 calls)
     fftw         :    185.85s CPU    197.59s WALL (  139632 calls)
 
     Parallel routines
     fft_scatter  :     42.79s CPU     49.23s WALL (  139890 calls)
 
     PWSCF        :  7m 6.87s CPU     7m25.07s WALL

 
   This run was terminated on:   1:38:17   4Nov2017            

=------------------------------------------------------------------------------=
   JOB DONE.
=------------------------------------------------------------------------------=
