
     Program PWSCF v.6.1 (svn rev. 13369) starts on  4Nov2017 at  8:56:22 

     This program is part of the open-source Quantum ESPRESSO suite
     for quantum simulation of materials; please cite
         "P. Giannozzi et al., J. Phys.:Condens. Matter 21 395502 (2009);
          URL http://www.quantum-espresso.org", 
     in publications or presentations arising from this work. More details at
     http://www.quantum-espresso.org/quote

     Parallel version (MPI), running on     8 processors
     R & G space division:  proc/nbgrp/npool/nimage =       8
     Waiting for input...
     Reading input from standard input

     Current dimensions of program PWSCF are:
     Max number of different atomic species (ntypx) = 10
     Max number of k-points (npk) =  40000
     Max angular momentum in pseudopotentials (lmaxx) =  3
               file C.pbe-n-kjpaw_psl.0.1.UPF: wavefunction(s)  2P renormalized
               file N.pbe-n-kjpaw_psl.0.1.UPF: wavefunction(s)  2P renormalized
               file H.pbe-kjpaw_psl.0.1.UPF: wavefunction(s)  1S renormalized
               file O.pbe-n-kjpaw_psl.0.1.UPF: wavefunction(s)  2P renormalized

     -------------------------------------
     Parameters for Dispersion Correction:
     -------------------------------------
       atom      VdW radius       C_6     

        C          2.744         60.710
        N          2.640         42.670
        H          1.892          4.857
        O          2.536         24.284

     Subspace diagonalization in iterative solution of the eigenvalue problem:
     a serial algorithm will be used

 
     Parallelization info
     --------------------
     sticks:   dense  smooth     PW     G-vecs:    dense   smooth      PW
     Min        1333    1333    351               111954   111954   15094
     Max        1334    1334    353               111955   111955   15095
     Sum       10667   10667   2811               895637   895637  120759
 


     bravais-lattice index     =            0
     lattice parameter (alat)  =      12.9597  a.u.
     unit-cell volume          =    6629.5255 (a.u.)^3
     number of atoms/cell      =           88
     number of atomic types    =            4
     number of electrons       =       352.00
     number of Kohn-Sham states=          211
     kinetic-energy cutoff     =     100.0000  Ry
     charge density cutoff     =     400.0000  Ry
     convergence threshold     =      1.0E-08
     mixing beta               =       0.5000
     number of iterations used =            8  plain     mixing
     Exchange-correlation      =  SLA  PW   PBX  PBC ( 1  4  3  4 0 0)

     celldm(1)=  12.959742  celldm(2)=   0.000000  celldm(3)=   0.000000
     celldm(4)=   0.000000  celldm(5)=   0.000000  celldm(6)=   0.000000

     crystal axes: (cart. coord. in units of alat)
               a(1) = (   1.000000   0.000000   0.000000 )  
               a(2) = (   0.000000   1.993293   0.000000 )  
               a(3) = (   0.000000   0.000000   1.527997 )  

     reciprocal axes: (cart. coord. in units 2 pi/alat)
               b(1) = (  1.000000  0.000000  0.000000 )  
               b(2) = (  0.000000  0.501683  0.000000 )  
               b(3) = (  0.000000  0.000000  0.654452 )  


     PseudoPot. # 1 for  C read from file:
     /scratch/ahofstet/pseudo/C.pbe-n-kjpaw_psl.0.1.UPF
     MD5 check sum: 430fe95172b1e11ef3f8ed03bac87931
     Pseudo is Projector augmented-wave + core cor, Zval =  4.0
     Generated using "atomic" code by A. Dal Corso  v.5.0.99 svn rev. 10869
     Shape of augmentation charge: BESSEL
     Using radial grid of 1073 points,  4 beta functions with: 
                l(1) =   0
                l(2) =   0
                l(3) =   1
                l(4) =   1
     Q(r) pseudized with 0 coefficients 


     PseudoPot. # 2 for  N read from file:
     /scratch/ahofstet/pseudo/N.pbe-n-kjpaw_psl.0.1.UPF
     MD5 check sum: f73187c8b701007e77325f868c9291d7
     Pseudo is Projector augmented-wave + core cor, Zval =  5.0
     Generated using "atomic" code by A. Dal Corso  v.5.0.99 svn rev. 10869
     Shape of augmentation charge: PSQ
     Using radial grid of 1085 points,  4 beta functions with: 
                l(1) =   0
                l(2) =   0
                l(3) =   1
                l(4) =   1
     Q(r) pseudized with 0 coefficients 


     PseudoPot. # 3 for  H read from file:
     /scratch/ahofstet/pseudo/H.pbe-kjpaw_psl.0.1.UPF
     MD5 check sum: 94e484f906d9e9773b2f6e52662335b2
     Pseudo is Projector augmented-wave, Zval =  1.0
     Generated using "atomic" code by A. Dal Corso  v.5.0.99 svn rev. 10869
     Shape of augmentation charge: PSQ
     Using radial grid of  929 points,  2 beta functions with: 
                l(1) =   0
                l(2) =   0
     Q(r) pseudized with 0 coefficients 


     PseudoPot. # 4 for  O read from file:
     /scratch/ahofstet/pseudo/O.pbe-n-kjpaw_psl.0.1.UPF
     MD5 check sum: 3f94a2996a3169367d6eb21d9b593f20
     Pseudo is Projector augmented-wave + core cor, Zval =  6.0
     Generated using "atomic" code by A. Dal Corso  v.5.0.99 svn rev. 10869
     Shape of augmentation charge: BESSEL
     Using radial grid of 1095 points,  4 beta functions with: 
                l(1) =   0
                l(2) =   0
                l(3) =   1
                l(4) =   1
     Q(r) pseudized with 0 coefficients 


     atomic species   valence    mass     pseudopotential
        C              4.00    12.01070      C( 1.00)
        N              5.00    14.00670      N( 1.00)
        H              1.00     1.00794      H( 1.00)
        O              6.00    15.99940      O( 1.00)

      8 Sym. Ops., with inversion, found ( 6 have fractional translation)



   Cartesian axes

     site n.     atom                  positions (alat units)
         1           N   tau(   1) = (   0.0801652   0.5791685   0.4856861  )
         2           N   tau(   2) = (   0.5801652   0.4174778   1.0423104  )
         3           N   tau(   3) = (   0.9198348   1.5758147   0.2783122  )
         4           N   tau(   4) = (   0.4198348   1.4141240   1.2496843  )
         5           N   tau(   5) = (   0.9198348   1.4141240   1.0423104  )
         6           N   tau(   6) = (   0.4198348   1.5758147   0.4856861  )
         7           N   tau(   7) = (   0.0801652   0.4174778   1.2496843  )
         8           N   tau(   8) = (   0.5801652   0.5791685   0.2783122  )
         9           C   tau(   9) = (   0.1807708   0.5991571   0.6590796  )
        10           C   tau(  10) = (   0.6807708   0.3974892   0.8689169  )
        11           C   tau(  11) = (   0.8192292   1.5958033   0.1049186  )
        12           C   tau(  12) = (   0.3192292   1.3941354   1.4230779  )
        13           C   tau(  13) = (   0.8192292   1.3941354   0.8689169  )
        14           C   tau(  14) = (   0.3192292   1.5958033   0.6590796  )
        15           C   tau(  15) = (   0.1807708   0.3974892   1.4230779  )
        16           C   tau(  16) = (   0.6807708   0.5991571   0.1049186  )
        17           N   tau(  17) = (   0.0413273   0.7567487   0.4129844  )
        18           N   tau(  18) = (   0.5413273   0.2398976   1.1150121  )
        19           N   tau(  19) = (   0.9586727   1.7533949   0.3510139  )
        20           N   tau(  20) = (   0.4586727   1.2365438   1.1769826  )
        21           N   tau(  21) = (   0.9586727   1.2365438   1.1150121  )
        22           N   tau(  22) = (   0.4586727   1.7533949   0.4129844  )
        23           N   tau(  23) = (   0.0413273   0.2398976   1.1769826  )
        24           N   tau(  24) = (   0.5413273   0.7567487   0.3510139  )
        25           N   tau(  25) = (   0.1175208   0.8792206   0.5395517  )
        26           N   tau(  26) = (   0.6175208   0.1174256   0.9884448  )
        27           N   tau(  27) = (   0.8824792   1.8758669   0.2244465  )
        28           N   tau(  28) = (   0.3824792   1.1140719   1.3035500  )
        29           N   tau(  29) = (   0.8824792   1.1140719   0.9884448  )
        30           N   tau(  30) = (   0.3824792   1.8758669   0.5395517  )
        31           N   tau(  31) = (   0.1175208   0.1174256   1.3035500  )
        32           N   tau(  32) = (   0.6175208   0.8792206   0.2244465  )
        33           N   tau(  33) = (   0.2040032   0.7896878   0.6915686  )
        34           N   tau(  34) = (   0.7040032   0.2069584   0.8364279  )
        35           N   tau(  35) = (   0.7959968   1.7863341   0.0724296  )
        36           N   tau(  36) = (   0.2959968   1.2036047   1.4555669  )
        37           N   tau(  37) = (   0.7959968   1.2036047   0.8364279  )
        38           N   tau(  38) = (   0.2959968   1.7863341   0.6915686  )
        39           N   tau(  39) = (   0.2040032   0.2069584   1.4555669  )
        40           N   tau(  40) = (   0.7040032   0.7896878   0.0724296  )
        41           N   tau(  41) = (   0.2336423   0.4429220   0.7649847  )
        42           N   tau(  42) = (   0.7336423   0.5537243   0.7630118  )
        43           N   tau(  43) = (   0.7663577   1.4395682  -0.0009864  )
        44           N   tau(  44) = (   0.2663577   1.5503705   1.5289829  )
        45           N   tau(  45) = (   0.7663577   1.5503705   0.7630118  )
        46           N   tau(  46) = (   0.2663577   1.4395682   0.7649847  )
        47           N   tau(  47) = (   0.2336423   0.5537243   1.5289829  )
        48           N   tau(  48) = (   0.7336423   0.4429220  -0.0009864  )
        49           N   tau(  49) = (   0.0223618   0.4116516   0.4058098  )
        50           N   tau(  50) = (   0.5223618   0.5849947   1.1221867  )
        51           N   tau(  51) = (   0.9776382   1.4082978   0.3581884  )
        52           N   tau(  52) = (   0.4776382   1.5816409   1.1698081  )
        53           N   tau(  53) = (   0.9776382   1.5816409   1.1221867  )
        54           N   tau(  54) = (   0.4776382   1.4082978   0.4058098  )
        55           N   tau(  55) = (   0.0223618   0.5849947   1.1698081  )
        56           N   tau(  56) = (   0.5223618   0.4116516   0.3581884  )
        57           C   tau(  57) = (   0.1798859   0.2744034   0.6898717  )
        58           C   tau(  58) = (   0.6798859   0.7222428   0.8381248  )
        59           C   tau(  59) = (   0.8201141   1.2710497   0.0741265  )
        60           C   tau(  60) = (   0.3201141   1.7188891   1.4538700  )
        61           C   tau(  61) = (   0.8201141   1.7188891   0.8381248  )
        62           C   tau(  62) = (   0.3201141   1.2710497   0.6898717  )
        63           C   tau(  63) = (   0.1798859   0.7222428   1.4538700  )
        64           C   tau(  64) = (   0.6798859   0.2744034   0.0741265  )
        65           H   tau(  65) = (   0.2170634   0.1415080   0.7689604  )
        66           H   tau(  66) = (   0.7170634   0.8551382   0.7590361  )
        67           H   tau(  67) = (   0.7829366   1.1381543  -0.0049622  )
        68           H   tau(  68) = (   0.2829366   1.8517845   1.5329587  )
        69           H   tau(  69) = (   0.7829366   1.8517845   0.7590361  )
        70           H   tau(  70) = (   0.2829366   1.1381543   0.7689604  )
        71           H   tau(  71) = (   0.2170634   0.8551382   1.5329587  )
        72           H   tau(  72) = (   0.7170634   0.1415080  -0.0049622  )
        73           C   tau(  73) = (   0.0741889   0.2591469   0.5103557  )
        74           C   tau(  74) = (   0.5741889   0.7374993   1.0176408  )
        75           C   tau(  75) = (   0.9258111   1.2557932   0.2536425  )
        76           C   tau(  76) = (   0.4258111   1.7341456   1.2743540  )
        77           C   tau(  77) = (   0.9258111   1.7341456   1.0176408  )
        78           C   tau(  78) = (   0.4258111   1.2557932   0.5103557  )
        79           C   tau(  79) = (   0.0741889   0.7374993   1.2743540  )
        80           C   tau(  80) = (   0.5741889   0.2591469   0.2536425  )
        81           H   tau(  81) = (   0.0316819   0.1181390   0.4512058  )
        82           H   tau(  82) = (   0.5316819   0.8785073   1.0767907  )
        83           H   tau(  83) = (   0.9683181   1.1147852   0.3127924  )
        84           H   tau(  84) = (   0.4683181   1.8751535   1.2152041  )
        85           H   tau(  85) = (   0.9683181   1.8751535   1.0767907  )
        86           H   tau(  86) = (   0.4683181   1.1147852   0.4512058  )
        87           H   tau(  87) = (   0.0316819   0.8785073   1.2152041  )
        88           H   tau(  88) = (   0.5316819   0.1181390   0.3127924  )

     number of k points=     8
                       cart. coord. in units 2pi/alat
        k(    1) = (   0.0000000   0.0000000   0.0000000), wk =   0.1666667
        k(    2) = (   0.0000000   0.0000000  -0.3272259), wk =   0.1666667
        k(    3) = (   0.0000000  -0.2508413   0.0000000), wk =   0.1666667
        k(    4) = (   0.0000000  -0.2508413  -0.3272259), wk =   0.1666667
        k(    5) = (   0.3333333   0.0000000   0.0000000), wk =   0.3333333
        k(    6) = (   0.3333333   0.0000000  -0.3272259), wk =   0.3333333
        k(    7) = (   0.3333333  -0.2508413   0.0000000), wk =   0.3333333
        k(    8) = (   0.3333333  -0.2508413  -0.3272259), wk =   0.3333333

     Dense  grid:   895637 G-vectors     FFT dimensions: (  90, 180, 128)

     Estimated max dynamical RAM per process >     987.23MB

     Estimated total allocated dynamical RAM >    7897.81MB

     Check: negative/imaginary core charge=   -0.000002    0.000000

     Initial potential from superposition of free atoms

     starting charge  351.99850, renormalised to  352.00000
     Starting wfc are  304 randomized atomic wfcs
     Checking if some PAW data can be deallocated... 

     total cpu time spent up to now is       58.0 secs

     per-process dynamical memory:   657.8 Mb

     Self-consistent Calculation

     iteration #  1     ecut=   100.00 Ry     beta=0.50
     Davidson diagonalization with overlap
     ethr =  1.00E-02,  avg # of iterations =  3.2

     total cpu time spent up to now is      233.9 secs

     total energy              =   -1813.13066660 Ry
     Harris-Foulkes estimate   =   -1816.58170518 Ry
     estimated scf accuracy    <       7.10405659 Ry

     iteration #  2     ecut=   100.00 Ry     beta=0.50
     Davidson diagonalization with overlap
     ethr =  2.02E-03,  avg # of iterations =  2.0

     total cpu time spent up to now is      334.3 secs

     total energy              =   -1813.66894939 Ry
     Harris-Foulkes estimate   =   -1814.26524723 Ry
     estimated scf accuracy    <       1.30432352 Ry

     iteration #  3     ecut=   100.00 Ry     beta=0.50
     Davidson diagonalization with overlap
     ethr =  3.71E-04,  avg # of iterations =  5.6

     total cpu time spent up to now is      490.8 secs

     total energy              =   -1814.08138606 Ry
     Harris-Foulkes estimate   =   -1814.25992596 Ry
     estimated scf accuracy    <       0.42874939 Ry

     iteration #  4     ecut=   100.00 Ry     beta=0.50
     Davidson diagonalization with overlap
     ethr =  1.22E-04,  avg # of iterations =  4.0

     total cpu time spent up to now is      594.7 secs

     total energy              =   -1814.15043379 Ry
     Harris-Foulkes estimate   =   -1814.16575194 Ry
     estimated scf accuracy    <       0.04430759 Ry

     iteration #  5     ecut=   100.00 Ry     beta=0.50
     Davidson diagonalization with overlap
     ethr =  1.26E-05,  avg # of iterations =  9.4

     total cpu time spent up to now is      800.9 secs

     total energy              =   -1814.16959097 Ry
     Harris-Foulkes estimate   =   -1814.17385283 Ry
     estimated scf accuracy    <       0.01207065 Ry

     iteration #  6     ecut=   100.00 Ry     beta=0.50
     Davidson diagonalization with overlap
     ethr =  3.43E-06,  avg # of iterations =  1.2

     total cpu time spent up to now is      891.4 secs

     total energy              =   -1814.17040106 Ry
     Harris-Foulkes estimate   =   -1814.17106423 Ry
     estimated scf accuracy    <       0.00197259 Ry

     iteration #  7     ecut=   100.00 Ry     beta=0.50
     Davidson diagonalization with overlap
     ethr =  5.60E-07,  avg # of iterations =  4.8

     total cpu time spent up to now is     1063.6 secs

     total energy              =   -1814.17145274 Ry
     Harris-Foulkes estimate   =   -1814.17170242 Ry
     estimated scf accuracy    <       0.00071125 Ry

     iteration #  8     ecut=   100.00 Ry     beta=0.50
     Davidson diagonalization with overlap
     ethr =  2.02E-07,  avg # of iterations =  1.0

     total cpu time spent up to now is     1153.7 secs

     total energy              =   -1814.17147087 Ry
     Harris-Foulkes estimate   =   -1814.17152893 Ry
     estimated scf accuracy    <       0.00014815 Ry

     iteration #  9     ecut=   100.00 Ry     beta=0.50
     Davidson diagonalization with overlap
     ethr =  4.21E-08,  avg # of iterations =  4.0

     total cpu time spent up to now is     1315.2 secs

     total energy              =   -1814.17154886 Ry
     Harris-Foulkes estimate   =   -1814.17156249 Ry
     estimated scf accuracy    <       0.00003362 Ry

     iteration # 10     ecut=   100.00 Ry     beta=0.50
     Davidson diagonalization with overlap
     ethr =  9.55E-09,  avg # of iterations =  3.8

     total cpu time spent up to now is     1418.6 secs

     total energy              =   -1814.17155271 Ry
     Harris-Foulkes estimate   =   -1814.17155382 Ry
     estimated scf accuracy    <       0.00000352 Ry

     iteration # 11     ecut=   100.00 Ry     beta=0.50
     Davidson diagonalization with overlap
     ethr =  1.00E-09,  avg # of iterations =  4.0

     total cpu time spent up to now is     1587.1 secs

     total energy              =   -1814.17155508 Ry
     Harris-Foulkes estimate   =   -1814.17155558 Ry
     estimated scf accuracy    <       0.00000111 Ry

     iteration # 12     ecut=   100.00 Ry     beta=0.50
     Davidson diagonalization with overlap
     ethr =  3.15E-10,  avg # of iterations =  2.1

     total cpu time spent up to now is     1681.7 secs

     total energy              =   -1814.17155518 Ry
     Harris-Foulkes estimate   =   -1814.17155523 Ry
     estimated scf accuracy    <       0.00000012 Ry

     iteration # 13     ecut=   100.00 Ry     beta=0.50
     Davidson diagonalization with overlap
     ethr =  3.39E-11,  avg # of iterations =  4.0

     total cpu time spent up to now is     1870.2 secs

     total energy              =   -1814.17155529 Ry
     Harris-Foulkes estimate   =   -1814.17155532 Ry
     estimated scf accuracy    <       0.00000008 Ry

     iteration # 14     ecut=   100.00 Ry     beta=0.50
     Davidson diagonalization with overlap
     ethr =  2.22E-11,  avg # of iterations =  2.0

     total cpu time spent up to now is     1963.7 secs

     End of self-consistent calculation

          k = 0.0000 0.0000 0.0000 (111917 PWs)   bands (ev):

   -22.1104 -22.1060 -22.0922 -22.0910 -22.0541 -22.0525 -22.0471 -22.0458
   -19.1473 -19.1469 -19.1336 -19.1260 -19.0924 -19.0878 -19.0872 -19.0862
   -17.3480 -17.3401 -17.2915 -17.2840 -17.2650 -17.2587 -17.2529 -17.2460
   -15.3366 -15.3366 -15.3360 -15.3310 -15.3281 -15.3202 -15.3200 -15.3093
   -14.3069 -14.2691 -14.2441 -14.2340 -14.2295 -14.2027 -14.1950 -14.1892
   -10.9310 -10.9076 -10.8575 -10.8098 -10.7900 -10.7683 -10.7366 -10.7338
   -10.2170 -10.2151 -10.2133 -10.2101 -10.1352 -10.1297 -10.0915 -10.0856
    -9.5918  -9.5710  -9.5668  -9.5445  -9.5392  -9.5379  -9.5190  -9.5109
    -7.3266  -7.3213  -7.3209  -7.3095  -7.2905  -7.2639  -7.2468  -7.2452
    -6.8297  -6.8289  -6.8098  -6.8092  -6.8089  -6.8078  -6.7567  -6.7551
    -6.2193  -6.1838  -6.0971  -6.0853  -5.9525  -5.9280  -5.6724  -5.6650
    -5.0236  -4.9647  -4.9050  -4.9018  -4.8640  -4.8312  -4.8111  -4.8052
    -3.6343  -3.6041  -3.6024  -3.5815  -3.5600  -3.5453  -3.4350  -3.3792
    -3.3632  -3.2729  -3.2643  -3.1979  -3.0651  -3.0594  -3.0483  -3.0466
    -2.9435  -2.9151  -2.7353  -2.6562  -2.6466  -2.4750  -2.4033  -2.3918
    -2.3861  -2.3752  -2.3670  -2.3527  -2.3499  -2.3042  -2.2545  -2.2467
    -1.6063  -1.5820  -1.4826  -1.4692  -1.2214  -1.1953  -1.1566  -1.1355
    -0.7672  -0.7219  -0.6163  -0.6086  -0.5624  -0.5091  -0.5037  -0.4144
    -0.3826  -0.2963  -0.2764  -0.2751  -0.2611  -0.2609  -0.2551  -0.2142
    -0.0851  -0.0722  -0.0334  -0.0052   0.0598   0.1121   0.1380   0.1494
     0.1811   0.2532   0.2658   0.2860   0.3032   0.3374   0.3542   0.3835
     0.5714   0.6424   0.6724   0.7487   0.8023   0.8503   0.8797   0.9326
     3.6281   3.6430   3.7202   3.7306   3.7663   3.8093   3.8397   3.9212
     5.0070   5.1391   5.1532   5.1596   5.2293   5.2354   5.3261   5.4724
     6.0159   6.1792   6.1872   6.2055   6.2307   6.2515   6.2753   6.5152
     8.1722   8.1728   8.2145   8.3919   8.4239   8.5108   8.5859   8.6238
     8.7557   8.8181   8.8429

          k = 0.0000 0.0000-0.3272 (111968 PWs)   bands (ev):

   -22.1022 -22.1022 -22.0990 -22.0990 -22.0493 -22.0493 -22.0491 -22.0491
   -19.1473 -19.1473 -19.1300 -19.1300 -19.0897 -19.0897 -19.0869 -19.0869
   -17.3215 -17.3215 -17.3137 -17.3137 -17.2572 -17.2572 -17.2507 -17.2507
   -15.3333 -15.3333 -15.3283 -15.3283 -15.3281 -15.3281 -15.3191 -15.3191
   -14.2923 -14.2923 -14.2394 -14.2394 -14.2050 -14.2050 -14.1985 -14.1985
   -10.9229 -10.9229 -10.8298 -10.8298 -10.7789 -10.7789 -10.7353 -10.7353
   -10.2163 -10.2163 -10.2116 -10.2116 -10.1328 -10.1328 -10.0884 -10.0884
    -9.5642  -9.5642  -9.5594  -9.5594  -9.5416  -9.5416  -9.5259  -9.5259
    -7.3246  -7.3246  -7.3139  -7.3139  -7.2779  -7.2779  -7.2449  -7.2449
    -6.8324  -6.8324  -6.8134  -6.8134  -6.7956  -6.7956  -6.7617  -6.7617
    -6.1792  -6.1792  -6.1490  -6.1490  -5.7956  -5.7956  -5.7860  -5.7860
    -4.9583  -4.9583  -4.9335  -4.9335  -4.8391  -4.8391  -4.8193  -4.8193
    -3.6047  -3.6047  -3.6006  -3.6006  -3.5530  -3.5530  -3.4254  -3.4254
    -3.3019  -3.3019  -3.2493  -3.2493  -3.0516  -3.0516  -3.0407  -3.0407
    -2.8318  -2.8318  -2.8124  -2.8124  -2.5780  -2.5780  -2.3839  -2.3839
    -2.3553  -2.3553  -2.3492  -2.3492  -2.3133  -2.3133  -2.2990  -2.2990
    -1.4642  -1.4642  -1.4519  -1.4519  -1.2667  -1.2667  -1.2648  -1.2648
    -0.6850  -0.6850  -0.6088  -0.6088  -0.5066  -0.5066  -0.4972  -0.4972
    -0.4509  -0.4509  -0.3096  -0.3096  -0.2277  -0.2277  -0.1538  -0.1538
    -0.0498  -0.0498   0.0226   0.0226   0.1172   0.1172   0.1262   0.1262
     0.1501   0.1501   0.2179   0.2179   0.3587   0.3587   0.3925   0.3925
     0.6624   0.6624   0.7605   0.7605   0.7852   0.7852   0.8388   0.8388
     3.7013   3.7013   3.7201   3.7201   3.7593   3.7593   3.8474   3.8474
     5.0747   5.0747   5.1645   5.1645   5.2431   5.2431   5.3676   5.3676
     6.1249   6.1249   6.2084   6.2084   6.2283   6.2283   6.3946   6.3946
     8.2833   8.2833   8.4043   8.4043   8.4658   8.4658   8.5041   8.5041
     8.8411   8.8411   8.8657

          k = 0.0000-0.2508 0.0000 (112038 PWs)   bands (ev):

   -22.1082 -22.1082 -22.0916 -22.0916 -22.0534 -22.0534 -22.0464 -22.0464
   -19.1412 -19.1412 -19.1358 -19.1358 -19.0902 -19.0902 -19.0866 -19.0866
   -17.3440 -17.3440 -17.2878 -17.2878 -17.2619 -17.2619 -17.2494 -17.2494
   -15.3364 -15.3364 -15.3354 -15.3354 -15.3231 -15.3231 -15.3141 -15.3141
   -14.2714 -14.2714 -14.2364 -14.2364 -14.2332 -14.2332 -14.1954 -14.1954
   -10.8346 -10.8346 -10.8310 -10.8310 -10.8214 -10.8214 -10.7941 -10.7941
   -10.1665 -10.1665 -10.1662 -10.1662 -10.1534 -10.1534 -10.1499 -10.1499
    -9.5793  -9.5793  -9.5541  -9.5541  -9.5291  -9.5291  -9.5275  -9.5275
    -7.3178  -7.3178  -7.2903  -7.2903  -7.2816  -7.2816  -7.2678  -7.2678
    -6.8109  -6.8109  -6.8088  -6.8088  -6.8014  -6.8014  -6.7879  -6.7879
    -6.2033  -6.2033  -6.0890  -6.0890  -5.9417  -5.9417  -5.6683  -5.6683
    -4.9935  -4.9935  -4.8829  -4.8829  -4.8713  -4.8713  -4.8074  -4.8074
    -3.5907  -3.5907  -3.5658  -3.5658  -3.5335  -3.5335  -3.4570  -3.4570
    -3.3234  -3.3234  -3.2369  -3.2369  -3.0551  -3.0551  -3.0533  -3.0533
    -2.9296  -2.9296  -2.6841  -2.6841  -2.5400  -2.5400  -2.4295  -2.4295
    -2.3846  -2.3846  -2.3834  -2.3834  -2.3333  -2.3333  -2.2513  -2.2513
    -1.5939  -1.5939  -1.4746  -1.4746  -1.2072  -1.2072  -1.1438  -1.1438
    -0.7334  -0.7334  -0.6106  -0.6106  -0.5229  -0.5229  -0.4149  -0.4149
    -0.3956  -0.3956  -0.2738  -0.2738  -0.2603  -0.2603  -0.2028  -0.2028
    -0.1167  -0.1167   0.0052   0.0052   0.0639   0.0639   0.1649   0.1649
     0.2185   0.2185   0.2650   0.2650   0.3108   0.3108   0.3645   0.3645
     0.5996   0.5996   0.7439   0.7439   0.8539   0.8539   0.8649   0.8649
     3.6698   3.6698   3.6765   3.6765   3.8259   3.8259   3.8532   3.8532
     5.0592   5.0592   5.1908   5.1908   5.1989   5.1989   5.4035   5.4035
     6.0926   6.0926   6.1883   6.1883   6.2723   6.2723   6.3854   6.3854
     8.1862   8.1862   8.2871   8.2871   8.4732   8.4732   8.6227   8.6227
     8.6732   8.6732   8.8999

          k = 0.0000-0.2508-0.3272 (112012 PWs)   bands (ev):

   -22.1006 -22.1006 -22.1006 -22.1006 -22.0492 -22.0492 -22.0492 -22.0492
   -19.1387 -19.1387 -19.1387 -19.1387 -19.0883 -19.0883 -19.0883 -19.0883
   -17.3176 -17.3176 -17.3176 -17.3176 -17.2540 -17.2540 -17.2540 -17.2540
   -15.3320 -15.3320 -15.3320 -15.3320 -15.3224 -15.3224 -15.3224 -15.3224
   -14.2607 -14.2607 -14.2607 -14.2607 -14.2074 -14.2074 -14.2074 -14.2074
   -10.8348 -10.8348 -10.8348 -10.8348 -10.8055 -10.8055 -10.8055 -10.8055
   -10.1664 -10.1664 -10.1664 -10.1664 -10.1518 -10.1518 -10.1518 -10.1518
    -9.5545  -9.5545  -9.5545  -9.5545  -9.5408  -9.5408  -9.5408  -9.5408
    -7.3058  -7.3058  -7.3058  -7.3058  -7.2724  -7.2724  -7.2724  -7.2724
    -6.8120  -6.8120  -6.8120  -6.8120  -6.7923  -6.7923  -6.7923  -6.7923
    -6.1650  -6.1650  -6.1650  -6.1650  -5.7906  -5.7906  -5.7906  -5.7906
    -4.9428  -4.9428  -4.9428  -4.9428  -4.8329  -4.8329  -4.8329  -4.8329
    -3.5822  -3.5822  -3.5822  -3.5822  -3.4933  -3.4933  -3.4933  -3.4933
    -3.2834  -3.2834  -3.2834  -3.2834  -3.0495  -3.0495  -3.0495  -3.0495
    -2.8160  -2.8160  -2.8160  -2.8160  -2.4960  -2.4960  -2.4960  -2.4960
    -2.3596  -2.3596  -2.3596  -2.3596  -2.3052  -2.3052  -2.3052  -2.3052
    -1.4563  -1.4563  -1.4563  -1.4563  -1.2655  -1.2655  -1.2655  -1.2655
    -0.6472  -0.6472  -0.6472  -0.6472  -0.4864  -0.4864  -0.4864  -0.4864
    -0.3874  -0.3874  -0.3874  -0.3874  -0.1818  -0.1818  -0.1818  -0.1818
    -0.0167  -0.0167  -0.0167  -0.0167   0.1198   0.1198   0.1198   0.1198
     0.1822   0.1822   0.1822   0.1822   0.3681   0.3681   0.3681   0.3681
     0.7383   0.7383   0.7383   0.7383   0.7939   0.7939   0.7939   0.7939
     3.7167   3.7167   3.7167   3.7167   3.7954   3.7954   3.7954   3.7954
     5.1117   5.1117   5.1117   5.1117   5.3085   5.3085   5.3085   5.3085
     6.1779   6.1779   6.1779   6.1779   6.3049   6.3049   6.3049   6.3049
     8.3596   8.3596   8.3596   8.3596   8.4703   8.4703   8.4703   8.4703
     8.8190   8.8190   8.8190

          k = 0.3333 0.0000 0.0000 (111973 PWs)   bands (ev):

   -22.0948 -22.0909 -22.0827 -22.0814 -22.0636 -22.0632 -22.0621 -22.0608
   -19.1340 -19.1333 -19.1218 -19.1152 -19.1066 -19.1049 -19.0980 -19.0945
   -17.3282 -17.3206 -17.2867 -17.2816 -17.2799 -17.2742 -17.2622 -17.2551
   -15.3365 -15.3363 -15.3348 -15.3320 -15.3256 -15.3216 -15.3181 -15.3126
   -14.2838 -14.2665 -14.2564 -14.2341 -14.2198 -14.2160 -14.2012 -14.1950
   -10.9067 -10.8967 -10.8728 -10.8512 -10.7730 -10.7477 -10.7473 -10.7355
   -10.2171 -10.2156 -10.2151 -10.2135 -10.1218 -10.1185 -10.0996 -10.0974
    -9.5941  -9.5808  -9.5651  -9.5498  -9.5363  -9.5326  -9.5129  -9.5085
    -7.3244  -7.3235  -7.3219  -7.3132  -7.2785  -7.2567  -7.2564  -7.2483
    -6.8276  -6.8264  -6.8216  -6.8152  -6.7988  -6.7792  -6.7719  -6.7598
    -6.0868  -6.0625  -6.0541  -6.0519  -5.9851  -5.9760  -5.8172  -5.7976
    -4.9500  -4.9407  -4.9156  -4.8998  -4.8938  -4.8619  -4.8185  -4.8033
    -3.6505  -3.6437  -3.5851  -3.5554  -3.5519  -3.4840  -3.4770  -3.4047
    -3.2526  -3.1951  -3.1946  -3.1472  -3.0867  -3.0715  -3.0457  -3.0025
    -2.9161  -2.8984  -2.6581  -2.6260  -2.5945  -2.5716  -2.5203  -2.4880
    -2.4825  -2.4370  -2.3946  -2.3767  -2.3724  -2.3492  -2.3123  -2.2798
    -1.5024  -1.4785  -1.4363  -1.4211  -1.2887  -1.2684  -1.2433  -1.2250
    -0.6567  -0.6464  -0.6104  -0.5686  -0.5631  -0.5522  -0.4784  -0.4611
    -0.4557  -0.3147  -0.3134  -0.3027  -0.2749  -0.2210  -0.2149  -0.1323
    -0.0825  -0.0097  -0.0095   0.0095   0.1111   0.1223   0.1547   0.1581
     0.1935   0.2036   0.2149   0.2412   0.2702   0.2768   0.2853   0.3132
     0.6459   0.6891   0.7221   0.7252   0.7712   0.8001   0.8758   0.8947
     3.6491   3.6590   3.7400   3.7487   3.7843   3.8045   3.8835   3.9208
     5.0409   5.1171   5.1588   5.1711   5.2081   5.2591   5.2884   5.4104
     6.0591   6.1438   6.1755   6.1835   6.2034   6.2317   6.3303   6.4362
     8.2960   8.4562   8.4752   8.5237   8.5381   8.6165   8.6175   8.6808
     8.7384   8.8068   8.8822

          k = 0.3333 0.0000-0.3272 (111936 PWs)   bands (ev):

   -22.0892 -22.0892 -22.0864 -22.0864 -22.0629 -22.0629 -22.0613 -22.0613
   -19.1337 -19.1337 -19.1189 -19.1189 -19.1052 -19.1052 -19.0964 -19.0964
   -17.3058 -17.3058 -17.2982 -17.2982 -17.2736 -17.2736 -17.2667 -17.2667
   -15.3315 -15.3315 -15.3291 -15.3291 -15.3264 -15.3264 -15.3217 -15.3217
   -14.2767 -14.2767 -14.2466 -14.2466 -14.2117 -14.2117 -14.2013 -14.2013
   -10.9036 -10.9036 -10.8599 -10.8599 -10.7603 -10.7603 -10.7413 -10.7413
   -10.2166 -10.2166 -10.2145 -10.2145 -10.1205 -10.1205 -10.0986 -10.0986
    -9.5664  -9.5664  -9.5561  -9.5561  -9.5390  -9.5390  -9.5291  -9.5291
    -7.3231  -7.3231  -7.3178  -7.3178  -7.2680  -7.2680  -7.2513  -7.2513
    -6.8288  -6.8288  -6.8193  -6.8193  -6.7849  -6.7849  -6.7680  -6.7680
    -6.0862  -6.0862  -6.0602  -6.0602  -5.8916  -5.8916  -5.8815  -5.8815
    -4.9381  -4.9381  -4.9083  -4.9083  -4.8452  -4.8452  -4.8374  -4.8374
    -3.6265  -3.6265  -3.6203  -3.6203  -3.5031  -3.5031  -3.4372  -3.4372
    -3.2197  -3.2197  -3.1755  -3.1755  -3.0759  -3.0759  -3.0504  -3.0504
    -2.7641  -2.7641  -2.7612  -2.7612  -2.5772  -2.5772  -2.5012  -2.5012
    -2.4761  -2.4761  -2.4391  -2.4391  -2.3513  -2.3513  -2.3153  -2.3153
    -1.4029  -1.4029  -1.3864  -1.3864  -1.2797  -1.2797  -1.2627  -1.2627
    -0.6328  -0.6328  -0.5857  -0.5857  -0.5512  -0.5512  -0.5086  -0.5086
    -0.3937  -0.3937  -0.3233  -0.3233  -0.2506  -0.2506  -0.1774  -0.1774
    -0.0254  -0.0254   0.0103   0.0103   0.1561   0.1561   0.1639   0.1639
     0.1727   0.1727   0.2096   0.2096   0.2703   0.2703   0.3108   0.3108
     0.6672   0.6672   0.7163   0.7163   0.8132   0.8132   0.8284   0.8284
     3.7186   3.7186   3.7283   3.7283   3.8020   3.8020   3.8453   3.8453
     5.1056   5.1056   5.1780   5.1780   5.2222   5.2222   5.3140   5.3140
     6.1259   6.1259   6.1567   6.1567   6.2683   6.2683   6.3434   6.3434
     8.4274   8.4274   8.5338   8.5338   8.6207   8.6207   8.6863   8.6863
     8.7377   8.7377   8.7969

          k = 0.3333-0.2508 0.0000 (111950 PWs)   bands (ev):

   -22.0929 -22.0929 -22.0820 -22.0820 -22.0633 -22.0633 -22.0616 -22.0616
   -19.1285 -19.1285 -19.1236 -19.1236 -19.1030 -19.1030 -19.0990 -19.0990
   -17.3244 -17.3244 -17.2833 -17.2833 -17.2778 -17.2778 -17.2587 -17.2587
   -15.3357 -15.3357 -15.3351 -15.3351 -15.3213 -15.3213 -15.3167 -15.3167
   -14.2524 -14.2524 -14.2362 -14.2362 -14.2346 -14.2346 -14.2144 -14.2144
   -10.8286 -10.8286 -10.8269 -10.8269 -10.8204 -10.8204 -10.8032 -10.8032
   -10.1637 -10.1637 -10.1618 -10.1618 -10.1564 -10.1564 -10.1546 -10.1546
    -9.5787  -9.5787  -9.5660  -9.5660  -9.5230  -9.5230  -9.5223  -9.5223
    -7.3079  -7.3079  -7.2860  -7.2860  -7.2860  -7.2860  -7.2784  -7.2784
    -6.8117  -6.8117  -6.8111  -6.8111  -6.7933  -6.7933  -6.7879  -6.7879
    -6.0717  -6.0717  -6.0562  -6.0562  -5.9815  -5.9815  -5.8070  -5.8070
    -4.9524  -4.9524  -4.8970  -4.8970  -4.8622  -4.8622  -4.8327  -4.8327
    -3.6045  -3.6045  -3.5633  -3.5633  -3.5097  -3.5097  -3.4688  -3.4688
    -3.2277  -3.2277  -3.1780  -3.1780  -3.0853  -3.0853  -3.0215  -3.0215
    -2.9067  -2.9067  -2.6231  -2.6231  -2.5864  -2.5864  -2.4882  -2.4882
    -2.4367  -2.4367  -2.3964  -2.3964  -2.3942  -2.3942  -2.3422  -2.3422
    -1.4900  -1.4900  -1.4271  -1.4271  -1.2778  -1.2778  -1.2329  -1.2329
    -0.6444  -0.6444  -0.5989  -0.5989  -0.5656  -0.5656  -0.4740  -0.4740
    -0.3550  -0.3550  -0.2653  -0.2653  -0.2232  -0.2232  -0.2162  -0.2162
    -0.0429  -0.0429   0.0526   0.0526   0.0588   0.0588   0.1474   0.1474
     0.1953   0.1953   0.2162   0.2162   0.2712   0.2712   0.2997   0.2997
     0.6753   0.6753   0.7409   0.7409   0.8264   0.8264   0.8304   0.8304
     3.6905   3.6905   3.6970   3.6970   3.8449   3.8449   3.8572   3.8572
     5.0901   5.0901   5.1563   5.1563   5.2342   5.2342   5.3372   5.3372
     6.1209   6.1209   6.1687   6.1687   6.2723   6.2723   6.3301   6.3301
     8.4037   8.4037   8.4718   8.4718   8.5519   8.5519   8.6422   8.6422
     8.7967   8.7967   8.9116

          k = 0.3333-0.2508-0.3272 (111880 PWs)   bands (ev):

   -22.0878 -22.0878 -22.0878 -22.0878 -22.0621 -22.0621 -22.0621 -22.0621
   -19.1262 -19.1262 -19.1262 -19.1262 -19.1009 -19.1009 -19.1009 -19.1009
   -17.3020 -17.3020 -17.3020 -17.3020 -17.2702 -17.2702 -17.2702 -17.2702
   -15.3303 -15.3303 -15.3303 -15.3303 -15.3241 -15.3241 -15.3241 -15.3241
   -14.2477 -14.2477 -14.2477 -14.2477 -14.2210 -14.2210 -14.2210 -14.2210
   -10.8275 -10.8275 -10.8275 -10.8275 -10.8119 -10.8119 -10.8119 -10.8119
   -10.1629 -10.1629 -10.1629 -10.1629 -10.1556 -10.1556 -10.1556 -10.1556
    -9.5526  -9.5526  -9.5526  -9.5526  -9.5427  -9.5427  -9.5427  -9.5427
    -7.2980  -7.2980  -7.2980  -7.2980  -7.2805  -7.2805  -7.2805  -7.2805
    -6.8112  -6.8112  -6.8112  -6.8112  -6.7911  -6.7911  -6.7911  -6.7911
    -6.0737  -6.0737  -6.0737  -6.0737  -5.8865  -5.8865  -5.8865  -5.8865
    -4.9196  -4.9196  -4.9196  -4.9196  -4.8459  -4.8459  -4.8459  -4.8459
    -3.5935  -3.5935  -3.5935  -3.5935  -3.4844  -3.4844  -3.4844  -3.4844
    -3.2031  -3.2031  -3.2031  -3.2031  -3.0669  -3.0669  -3.0669  -3.0669
    -2.7613  -2.7613  -2.7613  -2.7613  -2.5238  -2.5238  -2.5238  -2.5238
    -2.4415  -2.4415  -2.4415  -2.4415  -2.3829  -2.3829  -2.3829  -2.3829
    -1.3934  -1.3934  -1.3934  -1.3934  -1.2700  -1.2700  -1.2700  -1.2700
    -0.6152  -0.6152  -0.6152  -0.6152  -0.5315  -0.5315  -0.5315  -0.5315
    -0.3222  -0.3222  -0.3222  -0.3222  -0.2199  -0.2199  -0.2199  -0.2199
     0.0174   0.0174   0.0174   0.0174   0.1086   0.1086   0.1086   0.1086
     0.1956   0.1956   0.1956   0.1956   0.2935   0.2935   0.2935   0.2935
     0.7258   0.7258   0.7258   0.7258   0.7943   0.7943   0.7943   0.7943
     3.7451   3.7451   3.7451   3.7451   3.7993   3.7993   3.7993   3.7993
     5.1479   5.1479   5.1479   5.1479   5.2575   5.2575   5.2575   5.2575
     6.1729   6.1729   6.1729   6.1729   6.2796   6.2796   6.2796   6.2796
     8.4830   8.4830   8.4830   8.4830   8.6565   8.6565   8.6565   8.6565
     8.7488   8.7488   8.7488

     highest occupied, lowest unoccupied level (ev):     0.9326    3.6281

!    total energy              =   -1814.17155529 Ry
     Harris-Foulkes estimate   =   -1814.17155530 Ry
     estimated scf accuracy    <          7.2E-09 Ry

     total all-electron energy =     -7102.852373 Ry

     The total energy is the sum of the following terms:

     one-electron contribution =    -991.84144882 Ry
     hartree contribution      =     633.39659671 Ry
     xc contribution           =    -368.80339225 Ry
     ewald contribution        =    -529.22003991 Ry
     Dispersion Correction     =      -0.43702772 Ry
     one-center paw contrib.   =    -557.26624330 Ry

     convergence has been achieved in  14 iterations

     Forces acting on atoms (cartesian axes, Ry/au):

     atom    1 type  2   force =     0.00052756    0.00043845    0.00026385
     atom    2 type  2   force =     0.00052756   -0.00043845   -0.00026385
     atom    3 type  2   force =    -0.00052756    0.00043845   -0.00026385
     atom    4 type  2   force =    -0.00052756   -0.00043845    0.00026385
     atom    5 type  2   force =    -0.00052756   -0.00043845   -0.00026385
     atom    6 type  2   force =    -0.00052756    0.00043845    0.00026385
     atom    7 type  2   force =     0.00052756   -0.00043845    0.00026385
     atom    8 type  2   force =     0.00052756    0.00043845   -0.00026385
     atom    9 type  1   force =    -0.00086134   -0.00003766   -0.00014595
     atom   10 type  1   force =    -0.00086134    0.00003766    0.00014595
     atom   11 type  1   force =     0.00086134   -0.00003766    0.00014595
     atom   12 type  1   force =     0.00086134    0.00003766   -0.00014595
     atom   13 type  1   force =     0.00086134    0.00003766    0.00014595
     atom   14 type  1   force =     0.00086134   -0.00003766   -0.00014595
     atom   15 type  1   force =    -0.00086134    0.00003766   -0.00014595
     atom   16 type  1   force =    -0.00086134   -0.00003766    0.00014595
     atom   17 type  2   force =    -0.00018223   -0.00031942   -0.00065769
     atom   18 type  2   force =    -0.00018223    0.00031942    0.00065769
     atom   19 type  2   force =     0.00018223   -0.00031942    0.00065769
     atom   20 type  2   force =     0.00018223    0.00031942   -0.00065769
     atom   21 type  2   force =     0.00018223    0.00031942    0.00065769
     atom   22 type  2   force =     0.00018223   -0.00031942   -0.00065769
     atom   23 type  2   force =    -0.00018223    0.00031942   -0.00065769
     atom   24 type  2   force =    -0.00018223   -0.00031942    0.00065769
     atom   25 type  2   force =     0.00088069   -0.00006329    0.00054399
     atom   26 type  2   force =     0.00088069    0.00006329   -0.00054399
     atom   27 type  2   force =    -0.00088069   -0.00006329   -0.00054399
     atom   28 type  2   force =    -0.00088069    0.00006329    0.00054399
     atom   29 type  2   force =    -0.00088069    0.00006329   -0.00054399
     atom   30 type  2   force =    -0.00088069   -0.00006329    0.00054399
     atom   31 type  2   force =     0.00088069    0.00006329    0.00054399
     atom   32 type  2   force =     0.00088069   -0.00006329   -0.00054399
     atom   33 type  2   force =     0.00066456    0.00061511    0.00036693
     atom   34 type  2   force =     0.00066456   -0.00061511   -0.00036693
     atom   35 type  2   force =    -0.00066456    0.00061511   -0.00036693
     atom   36 type  2   force =    -0.00066456   -0.00061511    0.00036693
     atom   37 type  2   force =    -0.00066456   -0.00061511   -0.00036693
     atom   38 type  2   force =    -0.00066456    0.00061511    0.00036693
     atom   39 type  2   force =     0.00066456   -0.00061511    0.00036693
     atom   40 type  2   force =     0.00066456    0.00061511   -0.00036693
     atom   41 type  2   force =     0.00160123   -0.00021847    0.00184736
     atom   42 type  2   force =     0.00160123    0.00021847   -0.00184736
     atom   43 type  2   force =    -0.00160123   -0.00021847   -0.00184736
     atom   44 type  2   force =    -0.00160123    0.00021847    0.00184736
     atom   45 type  2   force =    -0.00160123    0.00021847   -0.00184736
     atom   46 type  2   force =    -0.00160123   -0.00021847    0.00184736
     atom   47 type  2   force =     0.00160123    0.00021847    0.00184736
     atom   48 type  2   force =     0.00160123   -0.00021847   -0.00184736
     atom   49 type  2   force =    -0.00064453    0.00023573   -0.00171797
     atom   50 type  2   force =    -0.00064453   -0.00023573    0.00171797
     atom   51 type  2   force =     0.00064453    0.00023573    0.00171797
     atom   52 type  2   force =     0.00064453   -0.00023573   -0.00171797
     atom   53 type  2   force =     0.00064453   -0.00023573    0.00171797
     atom   54 type  2   force =     0.00064453    0.00023573   -0.00171797
     atom   55 type  2   force =    -0.00064453   -0.00023573   -0.00171797
     atom   56 type  2   force =    -0.00064453    0.00023573    0.00171797
     atom   57 type  1   force =    -0.00091961   -0.00110734   -0.00005871
     atom   58 type  1   force =    -0.00091961    0.00110734    0.00005871
     atom   59 type  1   force =     0.00091961   -0.00110734    0.00005871
     atom   60 type  1   force =     0.00091961    0.00110734   -0.00005871
     atom   61 type  1   force =     0.00091961    0.00110734    0.00005871
     atom   62 type  1   force =     0.00091961   -0.00110734   -0.00005871
     atom   63 type  1   force =    -0.00091961    0.00110734   -0.00005871
     atom   64 type  1   force =    -0.00091961   -0.00110734    0.00005871
     atom   65 type  3   force =     0.00045312    0.00029711    0.00017402
     atom   66 type  3   force =     0.00045312   -0.00029711   -0.00017402
     atom   67 type  3   force =    -0.00045312    0.00029711   -0.00017402
     atom   68 type  3   force =    -0.00045312   -0.00029711    0.00017402
     atom   69 type  3   force =    -0.00045312   -0.00029711   -0.00017402
     atom   70 type  3   force =    -0.00045312    0.00029711    0.00017402
     atom   71 type  3   force =     0.00045312   -0.00029711    0.00017402
     atom   72 type  3   force =     0.00045312    0.00029711   -0.00017402
     atom   73 type  1   force =     0.00044342    0.00013181   -0.00013284
     atom   74 type  1   force =     0.00044342   -0.00013181    0.00013284
     atom   75 type  1   force =    -0.00044342    0.00013181    0.00013284
     atom   76 type  1   force =    -0.00044342   -0.00013181   -0.00013284
     atom   77 type  1   force =    -0.00044342   -0.00013181    0.00013284
     atom   78 type  1   force =    -0.00044342    0.00013181   -0.00013284
     atom   79 type  1   force =     0.00044342   -0.00013181   -0.00013284
     atom   80 type  1   force =     0.00044342    0.00013181    0.00013284
     atom   81 type  3   force =    -0.00023478   -0.00058775    0.00030580
     atom   82 type  3   force =    -0.00023478    0.00058775   -0.00030580
     atom   83 type  3   force =     0.00023478   -0.00058775   -0.00030580
     atom   84 type  3   force =     0.00023478    0.00058775    0.00030580
     atom   85 type  3   force =     0.00023478    0.00058775   -0.00030580
     atom   86 type  3   force =     0.00023478   -0.00058775    0.00030580
     atom   87 type  3   force =    -0.00023478    0.00058775    0.00030580
     atom   88 type  3   force =    -0.00023478   -0.00058775   -0.00030580

     Total force =     0.011480     Total SCF correction =     0.000209


     Computing stress (Cartesian axis) and pressure

          total   stress  (Ry/bohr**3)                   (kbar)     P=   -3.60
  -0.00003719   0.00000000   0.00000000         -5.47      0.00      0.00
   0.00000000  -0.00002159   0.00000000          0.00     -3.18      0.00
   0.00000000   0.00000000  -0.00001454          0.00      0.00     -2.14


     Writing output data file scf.save
 
     init_run     :     55.08s CPU     57.31s WALL (       1 calls)
     electrons    :   1838.67s CPU   1905.90s WALL (       1 calls)
     forces       :     25.74s CPU     25.97s WALL (       1 calls)
     stress       :    123.89s CPU    124.32s WALL (       1 calls)

     Called by init_run:
     wfcinit      :     49.33s CPU     51.35s WALL (       1 calls)
     potinit      :      2.09s CPU      2.15s WALL (       1 calls)

     Called by electrons:
     c_bands      :   1668.62s CPU   1726.11s WALL (      14 calls)
     sum_band     :    159.01s CPU    167.51s WALL (      14 calls)
     v_of_rho     :      1.93s CPU      2.14s WALL (      15 calls)
     newd         :      3.75s CPU      4.73s WALL (      15 calls)
     PAW_pot      :      5.06s CPU      5.07s WALL (      15 calls)
     mix_rho      :      0.38s CPU      0.41s WALL (      14 calls)

     Called by c_bands:
     init_us_2    :      7.40s CPU      7.44s WALL (     248 calls)
     cegterg      :   1636.03s CPU   1693.44s WALL (     112 calls)

     Called by sum_band:
     sum_band:bec :      0.10s CPU      0.10s WALL (     112 calls)
     addusdens    :      3.92s CPU      4.85s WALL (      14 calls)

     Called by *egterg:
     h_psi        :    870.31s CPU    916.11s WALL (     529 calls)
     s_psi        :    206.34s CPU    206.39s WALL (     529 calls)
     g_psi        :      3.85s CPU      3.86s WALL (     409 calls)
     cdiaghg      :    101.70s CPU    101.84s WALL (     521 calls)

     Called by h_psi:
     h_psi:pot    :    864.94s CPU    910.62s WALL (     529 calls)
     h_psi:calbec :    198.74s CPU    199.08s WALL (     529 calls)
     vloc_psi     :    459.67s CPU    504.96s WALL (     529 calls)
     add_vuspsi   :    206.53s CPU    206.58s WALL (     529 calls)

     General routines
     calbec       :    292.23s CPU    292.76s WALL (     681 calls)
     fft          :      1.38s CPU      1.77s WALL (     219 calls)
     fftw         :    491.21s CPU    542.37s WALL (  159896 calls)
 
     Parallel routines
     fft_scatter  :     91.48s CPU    136.97s WALL (  160115 calls)
 
     PWSCF        : 34m16.41s CPU    36m14.45s WALL

 
   This run was terminated on:   9:32:36   4Nov2017            

=------------------------------------------------------------------------------=
   JOB DONE.
=------------------------------------------------------------------------------=
