
     Program PWSCF v.6.1 (svn rev. 13369) starts on  7Dec2017 at 17:21:28 

     This program is part of the open-source Quantum ESPRESSO suite
     for quantum simulation of materials; please cite
         "P. Giannozzi et al., J. Phys.:Condens. Matter 21 395502 (2009);
          URL http://www.quantum-espresso.org", 
     in publications or presentations arising from this work. More details at
     http://www.quantum-espresso.org/quote

     Parallel version (MPI), running on     8 processors
     R & G space division:  proc/nbgrp/npool/nimage =       8
     Waiting for input...
     Reading input from standard input

     Current dimensions of program PWSCF are:
     Max number of different atomic species (ntypx) = 10
     Max number of k-points (npk) =  40000
     Max angular momentum in pseudopotentials (lmaxx) =  3
               file C.pbe-n-kjpaw_psl.0.1.UPF: wavefunction(s)  2P renormalized
               file N.pbe-n-kjpaw_psl.0.1.UPF: wavefunction(s)  2P renormalized
               file H.pbe-kjpaw_psl.0.1.UPF: wavefunction(s)  1S renormalized
               file O.pbe-n-kjpaw_psl.0.1.UPF: wavefunction(s)  2P renormalized

     -------------------------------------
     Parameters for Dispersion Correction:
     -------------------------------------
       atom      VdW radius       C_6     

        C          2.744         60.710
        N          2.640         42.670
        H          1.892          4.857
        O          2.536         24.284

     Subspace diagonalization in iterative solution of the eigenvalue problem:
     a serial algorithm will be used

 
     Parallelization info
     --------------------
     sticks:   dense  smooth     PW     G-vecs:    dense   smooth      PW
     Min        1573    1573    425               129877   129877   18267
     Max        1574    1574    426               129879   129879   18268
     Sum       12589   12589   3403              1039021  1039021  146139
 


     bravais-lattice index     =            0
     lattice parameter (alat)  =      17.8560  a.u.
     unit-cell volume          =    7692.0338 (a.u.)^3
     number of atoms/cell      =          112
     number of atomic types    =            4
     number of electrons       =       348.00
     number of Kohn-Sham states=          208
     kinetic-energy cutoff     =     100.0000  Ry
     charge density cutoff     =     400.0000  Ry
     convergence threshold     =      1.0E-08
     mixing beta               =       0.5000
     number of iterations used =            8  plain     mixing
     Exchange-correlation      =  SLA  PW   PBX  PBC ( 1  4  3  4 0 0)

     celldm(1)=  17.856022  celldm(2)=   0.000000  celldm(3)=   0.000000
     celldm(4)=   0.000000  celldm(5)=   0.000000  celldm(6)=   0.000000

     crystal axes: (cart. coord. in units of alat)
               a(1) = (   1.000000   0.000000   0.000000 )  
               a(2) = (  -0.171747   1.240896   0.000000 )  
               a(3) = (  -0.421735  -0.579015   1.088809 )  

     reciprocal axes: (cart. coord. in units 2 pi/alat)
               b(1) = (  1.000000  0.138406  0.460939 )  
               b(2) = (  0.000000  0.805869  0.428551 )  
               b(3) = (  0.000000  0.000000  0.918435 )  


     PseudoPot. # 1 for  C read from file:
     /scratch/ahofstet/pseudo/C.pbe-n-kjpaw_psl.0.1.UPF
     MD5 check sum: 430fe95172b1e11ef3f8ed03bac87931
     Pseudo is Projector augmented-wave + core cor, Zval =  4.0
     Generated using "atomic" code by A. Dal Corso  v.5.0.99 svn rev. 10869
     Shape of augmentation charge: BESSEL
     Using radial grid of 1073 points,  4 beta functions with: 
                l(1) =   0
                l(2) =   0
                l(3) =   1
                l(4) =   1
     Q(r) pseudized with 0 coefficients 


     PseudoPot. # 2 for  N read from file:
     /scratch/ahofstet/pseudo/N.pbe-n-kjpaw_psl.0.1.UPF
     MD5 check sum: f73187c8b701007e77325f868c9291d7
     Pseudo is Projector augmented-wave + core cor, Zval =  5.0
     Generated using "atomic" code by A. Dal Corso  v.5.0.99 svn rev. 10869
     Shape of augmentation charge: PSQ
     Using radial grid of 1085 points,  4 beta functions with: 
                l(1) =   0
                l(2) =   0
                l(3) =   1
                l(4) =   1
     Q(r) pseudized with 0 coefficients 


     PseudoPot. # 3 for  H read from file:
     /scratch/ahofstet/pseudo/H.pbe-kjpaw_psl.0.1.UPF
     MD5 check sum: 94e484f906d9e9773b2f6e52662335b2
     Pseudo is Projector augmented-wave, Zval =  1.0
     Generated using "atomic" code by A. Dal Corso  v.5.0.99 svn rev. 10869
     Shape of augmentation charge: PSQ
     Using radial grid of  929 points,  2 beta functions with: 
                l(1) =   0
                l(2) =   0
     Q(r) pseudized with 0 coefficients 


     PseudoPot. # 4 for  O read from file:
     /scratch/ahofstet/pseudo/O.pbe-n-kjpaw_psl.0.1.UPF
     MD5 check sum: 3f94a2996a3169367d6eb21d9b593f20
     Pseudo is Projector augmented-wave + core cor, Zval =  6.0
     Generated using "atomic" code by A. Dal Corso  v.5.0.99 svn rev. 10869
     Shape of augmentation charge: BESSEL
     Using radial grid of 1095 points,  4 beta functions with: 
                l(1) =   0
                l(2) =   0
                l(3) =   1
                l(4) =   1
     Q(r) pseudized with 0 coefficients 


     atomic species   valence    mass     pseudopotential
        C              4.00    12.01070      C( 1.00)
        N              5.00    14.00670      N( 1.00)
        H              1.00     1.00794      H( 1.00)
        O              6.00    15.99940      O( 1.00)

      2 Sym. Ops., with inversion, found



   Cartesian axes

     site n.     atom                  positions (alat units)
         1           C   tau(   1) = (   0.1088265   0.6874745   0.0192494  )
         2           C   tau(   2) = (   0.2976912  -0.0255935   1.0695594  )
         3           C   tau(   3) = (   0.0236226   0.7257170   0.1331354  )
         4           C   tau(   4) = (   0.3828951  -0.0638360   0.9556733  )
         5           C   tau(   5) = (   0.0457001   0.8541953   0.2027219  )
         6           C   tau(   6) = (   0.3608177  -0.1923143   0.8860868  )
         7           C   tau(   7) = (   0.1532078   0.9445029   0.1566505  )
         8           C   tau(   8) = (   0.2533099  -0.2826219   0.9321582  )
         9           C   tau(   9) = (   0.2402283   0.9069913   0.0434258  )
        10           C   tau(  10) = (   0.1662894  -0.2451103   1.0453829  )
        11           C   tau(  11) = (  -0.0614522   0.4222217   1.0894914  )
        12           C   tau(  12) = (   0.4679699   0.2396594  -0.0006827  )
        13           C   tau(  13) = (  -0.0316779   0.4160947   0.9294681  )
        14           C   tau(  14) = (   0.4381956   0.2457863   0.1593406  )
        15           C   tau(  15) = (  -0.0238100   0.2628454   0.8814269  )
        16           C   tau(  16) = (   0.4303277   0.3990356   0.2073818  )
        17           C   tau(  17) = (   0.0697383   0.2305499   0.7607711  )
        18           C   tau(  18) = (   0.3367794   0.4313312   0.3280376  )
        19           C   tau(  19) = (   0.0729699   0.0843635   0.7032883  )
        20           C   tau(  20) = (   0.3335478   0.5775175   0.3855204  )
        21           C   tau(  21) = (   0.1596425   0.0563042   0.5866896  )
        22           C   tau(  22) = (   0.2468752   0.6055768   0.5021192  )
        23           C   tau(  23) = (   0.1639479  -0.0798369   0.5299807  )
        24           C   tau(  24) = (   0.2425698   0.7417179   0.5588281  )
        25           C   tau(  25) = (   0.0801561  -0.1865261   0.5880193  )
        26           C   tau(  26) = (   0.3263616   0.8484072   0.5007895  )
        27           C   tau(  27) = (  -0.0062974  -0.1580107   0.7040500  )
        28           C   tau(  28) = (   0.4128152   0.8198917   0.3847587  )
        29           C   tau(  29) = (  -0.0108183  -0.0222632   0.7658287  )
        30           C   tau(  30) = (   0.4173361   0.6841442   0.3229800  )
        31           C   tau(  31) = (  -0.0922267   0.0095870   0.8968025  )
        32           C   tau(  32) = (   0.4987444   0.6522940   0.1920063  )
        33           C   tau(  33) = (  -0.1056370   0.1609926   0.9446861  )
        34           C   tau(  34) = (   0.5121547   0.5008885   0.1441226  )
        35           C   tau(  35) = (  -0.2017206   0.1970060   1.0620205  )
        36           C   tau(  36) = (   0.6082383   0.4648751   0.0267882  )
        37           C   tau(  37) = (  -0.1471944   0.4978468   0.8467664  )
        38           C   tau(  38) = (   0.5537122   0.1640342   0.2420424  )
        39           O   tau(  39) = (  -0.2252194   0.5847601   0.9008492  )
        40           O   tau(  40) = (   0.6317371   0.0771210   0.1879595  )
        41           O   tau(  41) = (  -0.1471323   0.4634733   0.7091908  )
        42           O   tau(  42) = (   0.5536500   0.1984077   0.3796180  )
        43           C   tau(  43) = (  -0.2371354   0.5490892   0.6168888  )
        44           C   tau(  44) = (   0.6436531   0.1127919   0.4719200  )
        45           C   tau(  45) = (  -0.2009173   0.5117617   0.4656067  )
        46           C   tau(  46) = (   0.6074350   0.1501193   0.6232020  )
        47           C   tau(  47) = (   0.1061545   0.5000928   0.9032590  )
        48           C   tau(  48) = (   0.3003632   0.1617882   0.1855497  )
        49           O   tau(  49) = (   0.1090291   0.6153841   0.8454732  )
        50           O   tau(  50) = (   0.2974886   0.0464970   0.2433356  )
        51           O   tau(  51) = (   0.2170018   0.4367429   0.9653139  )
        52           O   tau(  52) = (   0.1895160   0.2251381   0.1234948  )
        53           C   tau(  53) = (   0.3557759   0.4986044   0.9391127  )
        54           C   tau(  54) = (   0.0507418   0.1632766   0.1496961  )
        55           C   tau(  55) = (   0.4622772   0.3796863   0.9309780  )
        56           C   tau(  56) = (  -0.0557595   0.2821947   0.1578308  )
        57           O   tau(  57) = (   0.1422793   0.3246406   0.7064489  )
        58           O   tau(  58) = (   0.2642384   0.3372404   0.3823598  )
        59           O   tau(  59) = (  -0.0818613  -0.2724590   0.7571155  )
        60           O   tau(  60) = (   0.4883790   0.9343400   0.3316932  )
        61           C   tau(  61) = (  -0.2274070  -0.2702872   0.7489373  )
        62           C   tau(  62) = (   0.6339247   0.9321682   0.3398714  )
        63           O   tau(  63) = (  -0.2927641  -0.1789873   0.6864947  )
        64           O   tau(  64) = (   0.6992818   0.8408683   0.4023141  )
        65           C   tau(  65) = (  -0.2906681  -0.3948033   0.8238773  )
        66           C   tau(  66) = (   0.6971858   1.0566843   0.2649314  )
        67           O   tau(  67) = (  -0.1443967  -0.0863860   0.9679230  )
        68           O   tau(  68) = (   0.5509144   0.7482670   0.1208857  )
        69           H   tau(  69) = (  -0.3317617   0.0084346   1.0550967  )
        70           H   tau(  70) = (   0.7382794   0.6534464   0.0337120  )
        71           H   tau(  71) = (  -0.0608094   0.6548399   0.1671025  )
        72           H   tau(  72) = (   0.4673271   0.0070411   0.9217063  )
        73           H   tau(  73) = (  -0.0220617   0.8837474   0.2914781  )
        74           H   tau(  74) = (   0.4285794  -0.2218664   0.7973306  )
        75           H   tau(  75) = (   0.1700166   1.0464459   0.2079278  )
        76           H   tau(  76) = (   0.2365011  -0.3845649   0.8808810  )
        77           H   tau(  77) = (   0.4561760   0.9647268   0.0555850  )
        78           H   tau(  78) = (  -0.0496583  -0.3028457   1.0332237  )
        79           H   tau(  79) = (   0.3401291   1.1108852   0.0331905  )
        80           H   tau(  80) = (   0.0663886  -0.4490042   1.0556183  )
        81           H   tau(  81) = (   0.2212885   0.1422995   0.5406466  )
        82           H   tau(  82) = (   0.1852292   0.5195815   0.5481622  )
        83           H   tau(  83) = (   0.2304849  -0.1008753   0.4382310  )
        84           H   tau(  84) = (   0.1760328   0.7627563   0.6505777  )
        85           H   tau(  85) = (   0.0775218  -0.2927165   0.5429289  )
        86           H   tau(  86) = (   0.3289959   0.9545975   0.5458798  )
        87           H   tau(  87) = (  -0.3483058   0.5259340   0.6427870  )
        88           H   tau(  88) = (   0.7548235   0.1359470   0.4460217  )
        89           H   tau(  89) = (  -0.2170130   0.6612725   0.6399624  )
        90           H   tau(  90) = (   0.6235307   0.0006085   0.4488464  )
        91           H   tau(  91) = (  -0.2605368   0.5822407   0.3950303  )
        92           H   tau(  92) = (   0.6670545   0.0796403   0.6937784  )
        93           H   tau(  93) = (  -0.2281839   0.4016214   0.4406049  )
        94           H   tau(  94) = (   0.6347016   0.2602597   0.6482038  )
        95           H   tau(  95) = (  -0.0875032   0.5279253   0.4455244  )
        96           H   tau(  96) = (   0.4940209   0.1339558   0.6432843  )
        97           H   tau(  97) = (   0.3510770   0.5597431   0.8404221  )
        98           H   tau(  98) = (   0.0554407   0.1021379   0.2483866  )
        99           H   tau(  99) = (   0.3783290   0.5719906   1.0267064  )
       100           H   tau( 100) = (   0.0281887   0.0898904   0.0621024  )
       101           H   tau( 101) = (  -0.4316582   0.4254117   0.9185999  )
       102           H   tau( 102) = (   0.8381759   0.2364693   0.1702089  )
       103           H   tau( 103) = (   0.4392963   0.3112430   0.8398896  )
       104           H   tau( 104) = (  -0.0327786   0.3506381   0.2489191  )
       105           H   tau( 105) = (   0.4623534   0.3152686   1.0276715  )
       106           H   tau( 106) = (  -0.0558357   0.3466125   0.0611372  )
       107           H   tau( 107) = (  -0.2106668  -0.4649686   0.8696061  )
       108           H   tau( 108) = (   0.6171845   1.1268496   0.2192026  )
       109           H   tau( 109) = (   0.4716553   0.7875812   0.7479651  )
       110           H   tau( 110) = (  -0.0651376  -0.1257002   0.3408437  )
       111           H   tau( 111) = (  -0.3615213  -0.3543237   0.9068376  )
       112           H   tau( 112) = (   0.7680390   1.0162047   0.1819712  )

     number of k points=     8
                       cart. coord. in units 2pi/alat
        k(    1) = (   0.0000000   0.0000000   0.0000000), wk =   0.2500000
        k(    2) = (   0.0000000   0.0000000  -0.4592175), wk =   0.2500000
        k(    3) = (   0.0000000  -0.4029346  -0.2142757), wk =   0.2500000
        k(    4) = (   0.0000000  -0.4029346  -0.6734932), wk =   0.2500000
        k(    5) = (  -0.5000000  -0.0692028  -0.2304694), wk =   0.2500000
        k(    6) = (  -0.5000000  -0.0692028  -0.6896869), wk =   0.2500000
        k(    7) = (  -0.5000000  -0.4721375  -0.4447451), wk =   0.2500000
        k(    8) = (  -0.5000000  -0.4721375  -0.9039626), wk =   0.2500000

     Dense  grid:  1039021 G-vectors     FFT dimensions: ( 120, 144, 150)

     Estimated max dynamical RAM per process >    1136.23MB

     Estimated total allocated dynamical RAM >    9089.84MB

     Check: negative/imaginary core charge=   -0.000002    0.000000

     Initial potential from superposition of free atoms

     starting charge  347.99739, renormalised to  348.00000
     Starting wfc are  316 randomized atomic wfcs
     Checking if some PAW data can be deallocated... 

     total cpu time spent up to now is       83.6 secs

     per-process dynamical memory:   763.8 Mb

     Self-consistent Calculation

     iteration #  1     ecut=   100.00 Ry     beta=0.50
     Davidson diagonalization with overlap
     ethr =  1.00E-02,  avg # of iterations =  4.0

     total cpu time spent up to now is      320.0 secs

     total energy              =   -1675.46368494 Ry
     Harris-Foulkes estimate   =   -1681.84822459 Ry
     estimated scf accuracy    <      12.03130403 Ry

     iteration #  2     ecut=   100.00 Ry     beta=0.50
     Davidson diagonalization with overlap
     ethr =  3.46E-03,  avg # of iterations =  2.0

     total cpu time spent up to now is      442.2 secs

     total energy              =   -1675.84092250 Ry
     Harris-Foulkes estimate   =   -1676.91128953 Ry
     estimated scf accuracy    <       2.02488589 Ry

     iteration #  3     ecut=   100.00 Ry     beta=0.50
     Davidson diagonalization with overlap
     ethr =  5.82E-04,  avg # of iterations =  5.0

     total cpu time spent up to now is      705.5 secs

     total energy              =   -1677.36074319 Ry
     Harris-Foulkes estimate   =   -1678.17707916 Ry
     estimated scf accuracy    <       2.21819167 Ry

     iteration #  4     ecut=   100.00 Ry     beta=0.50
     Davidson diagonalization with overlap
     ethr =  5.82E-04,  avg # of iterations =  1.5

     total cpu time spent up to now is      820.4 secs

     total energy              =   -1677.11726217 Ry
     Harris-Foulkes estimate   =   -1677.50749704 Ry
     estimated scf accuracy    <       0.63517342 Ry

     iteration #  5     ecut=   100.00 Ry     beta=0.50
     Davidson diagonalization with overlap
     ethr =  1.83E-04,  avg # of iterations =  6.5

     total cpu time spent up to now is     1080.7 secs

     total energy              =   -1677.55429652 Ry
     Harris-Foulkes estimate   =   -1677.70882574 Ry
     estimated scf accuracy    <       0.53113297 Ry

     iteration #  6     ecut=   100.00 Ry     beta=0.50
     Davidson diagonalization with overlap
     ethr =  1.53E-04,  avg # of iterations =  1.0

     total cpu time spent up to now is     1193.9 secs

     total energy              =   -1677.46993602 Ry
     Harris-Foulkes estimate   =   -1677.57293658 Ry
     estimated scf accuracy    <       0.25316133 Ry

     iteration #  7     ecut=   100.00 Ry     beta=0.50
     Davidson diagonalization with overlap
     ethr =  7.27E-05,  avg # of iterations =  3.0

     total cpu time spent up to now is     1360.5 secs

     total energy              =   -1677.54033675 Ry
     Harris-Foulkes estimate   =   -1677.54204816 Ry
     estimated scf accuracy    <       0.00666300 Ry

     iteration #  8     ecut=   100.00 Ry     beta=0.50
     Davidson diagonalization with overlap
     ethr =  1.91E-06,  avg # of iterations =  5.0

     total cpu time spent up to now is     1637.3 secs

     total energy              =   -1677.54108735 Ry
     Harris-Foulkes estimate   =   -1677.54659845 Ry
     estimated scf accuracy    <       0.01216880 Ry

     iteration #  9     ecut=   100.00 Ry     beta=0.50
     Davidson diagonalization with overlap
     c_bands:  1 eigenvalues not converged
     c_bands:  1 eigenvalues not converged
     ethr =  1.91E-06,  avg # of iterations = 10.2

     total cpu time spent up to now is     1776.4 secs

     total energy              =   -1677.54058852 Ry
     Harris-Foulkes estimate   =   -1677.54192582 Ry
     estimated scf accuracy    <       0.00264356 Ry

     iteration # 10     ecut=   100.00 Ry     beta=0.50
     Davidson diagonalization with overlap
     ethr =  7.60E-07,  avg # of iterations =  5.8

     total cpu time spent up to now is     2010.4 secs

     total energy              =   -1677.54273182 Ry
     Harris-Foulkes estimate   =   -1677.54341943 Ry
     estimated scf accuracy    <       0.00162735 Ry

     iteration # 11     ecut=   100.00 Ry     beta=0.50
     Davidson diagonalization with overlap
     ethr =  4.68E-07,  avg # of iterations =  2.0

     total cpu time spent up to now is     2124.9 secs

     total energy              =   -1677.54257887 Ry
     Harris-Foulkes estimate   =   -1677.54279968 Ry
     estimated scf accuracy    <       0.00047531 Ry

     iteration # 12     ecut=   100.00 Ry     beta=0.50
     Davidson diagonalization with overlap
     ethr =  1.37E-07,  avg # of iterations =  4.0

     total cpu time spent up to now is     2333.3 secs

     total energy              =   -1677.54288099 Ry
     Harris-Foulkes estimate   =   -1677.54294101 Ry
     estimated scf accuracy    <       0.00011606 Ry

     iteration # 13     ecut=   100.00 Ry     beta=0.50
     Davidson diagonalization with overlap
     ethr =  3.34E-08,  avg # of iterations =  2.0

     total cpu time spent up to now is     2447.9 secs

     total energy              =   -1677.54287971 Ry
     Harris-Foulkes estimate   =   -1677.54288962 Ry
     estimated scf accuracy    <       0.00001825 Ry

     iteration # 14     ecut=   100.00 Ry     beta=0.50
     Davidson diagonalization with overlap
     ethr =  5.24E-09,  avg # of iterations =  4.0

     total cpu time spent up to now is     2692.6 secs

     total energy              =   -1677.54290746 Ry
     Harris-Foulkes estimate   =   -1677.54291335 Ry
     estimated scf accuracy    <       0.00002435 Ry

     iteration # 15     ecut=   100.00 Ry     beta=0.50
     Davidson diagonalization with overlap
     ethr =  5.24E-09,  avg # of iterations =  1.0

     total cpu time spent up to now is     2803.1 secs

     total energy              =   -1677.54290308 Ry
     Harris-Foulkes estimate   =   -1677.54290776 Ry
     estimated scf accuracy    <       0.00001398 Ry

     iteration # 16     ecut=   100.00 Ry     beta=0.50
     Davidson diagonalization with overlap
     ethr =  4.02E-09,  avg # of iterations =  3.0

     total cpu time spent up to now is     2934.6 secs

     total energy              =   -1677.54290438 Ry
     Harris-Foulkes estimate   =   -1677.54290504 Ry
     estimated scf accuracy    <       0.00000176 Ry

     iteration # 17     ecut=   100.00 Ry     beta=0.50
     Davidson diagonalization with overlap
     ethr =  5.06E-10,  avg # of iterations =  4.0

     total cpu time spent up to now is     3168.9 secs

     total energy              =   -1677.54290558 Ry
     Harris-Foulkes estimate   =   -1677.54290562 Ry
     estimated scf accuracy    <       0.00000014 Ry

     iteration # 18     ecut=   100.00 Ry     beta=0.50
     Davidson diagonalization with overlap
     ethr =  3.95E-11,  avg # of iterations =  1.0

     total cpu time spent up to now is     3279.1 secs

     total energy              =   -1677.54290556 Ry
     Harris-Foulkes estimate   =   -1677.54290559 Ry
     estimated scf accuracy    <       0.00000006 Ry

     iteration # 19     ecut=   100.00 Ry     beta=0.50
     Davidson diagonalization with overlap
     ethr =  1.75E-11,  avg # of iterations =  3.6

     total cpu time spent up to now is     3466.0 secs

     End of self-consistent calculation

          k = 0.0000 0.0000 0.0000 (129875 PWs)   bands (ev):

   -21.8559 -21.8373 -21.6582 -21.6560 -21.3900 -21.3900 -20.1832 -20.1651
   -19.9658 -19.9484 -19.6424 -19.6348 -19.3905 -19.3869 -19.1971 -19.1971
   -15.9342 -15.9327 -15.6624 -15.6431 -14.8004 -14.7698 -13.9913 -13.9777
   -13.2741 -13.2591 -13.1753 -13.1503 -13.0572 -13.0223 -12.8859 -12.8586
   -12.4929 -12.4560 -12.1780 -12.1480 -12.0463 -12.0041 -10.7976 -10.7869
   -10.4541 -10.4266 -10.0700 -10.0633 -10.0402  -9.9632  -9.6694  -9.6275
    -9.3829  -9.3709  -9.0954  -9.0357  -8.5055  -8.4607  -8.1109  -8.0841
    -7.8810  -7.8135  -7.5444  -7.5252  -7.3358  -7.2736  -7.0447  -6.9946
    -6.8814  -6.8457  -6.6027  -6.5382  -6.4465  -6.3959  -6.1437  -6.0945
    -5.9786  -5.8862  -5.8730  -5.7875  -5.7740  -5.7413  -5.7296  -5.5530
    -5.5283  -5.5060  -5.4880  -5.3962  -5.3667  -5.2092  -5.1579  -5.1053
    -5.0168  -5.0080  -4.9366  -4.9044  -4.7765  -4.7293  -4.6828  -4.6441
    -4.6136  -4.4985  -4.4528  -4.2842  -4.2732  -4.1979  -4.1431  -4.0294
    -4.0247  -3.9757  -3.9075  -3.8601  -3.8302  -3.7471  -3.6265  -3.5962
    -3.5871  -3.5110  -3.4801  -3.4223  -3.3888  -3.3674  -3.3488  -3.2804
    -3.2249  -3.1757  -3.1684  -3.1354  -3.1025  -3.0883  -2.9897  -2.9127
    -2.8601  -2.8371  -2.7340  -2.7216  -2.6977  -2.6438  -2.5774  -2.5208
    -2.5072  -2.4425  -2.3616  -2.3112  -2.2393  -2.2013  -2.0645  -2.0039
    -1.9246  -1.9109  -1.8605  -1.7623  -1.6829  -1.6082  -1.5551  -1.3894
    -1.1192  -1.1043  -1.0397  -0.8275  -0.7878  -0.7377  -0.5597  -0.5257
    -0.4554  -0.4441  -0.3586  -0.3171  -0.2451  -0.2368  -0.0843  -0.0061
     0.0228   0.1357   0.3159   0.3232   0.4054   0.4487   2.1857   2.2040
     3.7759   3.8006   4.1578   4.1818   4.8255   4.8312   4.9640   5.0362
     5.0668   5.1175   5.1829   5.3472   5.3976   5.4202   5.8544   6.0892
     6.1544   6.5572   6.6729   6.7233   6.9079   6.9622   7.0582   7.1286
     7.2000   7.2714   7.3424   7.6381   7.6601   7.7604   7.8327   7.8690

          k = 0.0000 0.0000-0.4592 (129980 PWs)   bands (ev):

   -21.8558 -21.8374 -21.6572 -21.6569 -21.3902 -21.3897 -20.1824 -20.1660
   -19.9661 -19.9480 -19.6426 -19.6347 -19.3891 -19.3882 -19.1971 -19.1971
   -15.9355 -15.9297 -15.6672 -15.6423 -14.7924 -14.7717 -13.9932 -13.9729
   -13.2730 -13.2603 -13.1965 -13.1570 -13.0481 -13.0392 -12.8948 -12.8548
   -12.4630 -12.4600 -12.1635 -12.1506 -12.0332 -11.9960 -10.8044 -10.7712
   -10.4715 -10.4552 -10.1163 -10.0580 -10.0173  -9.9677  -9.6637  -9.6286
    -9.3797  -9.3772  -9.0515  -9.0392  -8.5032  -8.5024  -8.1395  -8.0674
    -7.8486  -7.7985  -7.5344  -7.5335  -7.2992  -7.2765  -7.0471  -7.0088
    -6.8592  -6.8417  -6.6256  -6.5506  -6.4177  -6.3626  -6.1041  -6.0949
    -5.9717  -5.8609  -5.8526  -5.8277  -5.7735  -5.7462  -5.7078  -5.6541
    -5.6122  -5.5293  -5.4836  -5.4254  -5.3030  -5.2625  -5.2177  -5.2070
    -5.0237  -4.9584  -4.8942  -4.8481  -4.8184  -4.7582  -4.6661  -4.6043
    -4.5648  -4.4960  -4.3953  -4.3024  -4.2080  -4.1979  -4.0778  -4.0318
    -3.9899  -3.9759  -3.8955  -3.8854  -3.8463  -3.7798  -3.6591  -3.6510
    -3.5948  -3.5384  -3.5050  -3.4317  -3.4048  -3.3789  -3.2994  -3.2878
    -3.2306  -3.1969  -3.1269  -3.0971  -3.0793  -3.0244  -3.0068  -2.9527
    -2.9103  -2.8767  -2.7208  -2.6904  -2.6399  -2.6268  -2.5962  -2.5110
    -2.4698  -2.4684  -2.3936  -2.3029  -2.2344  -2.2152  -2.0828  -2.0315
    -1.9266  -1.9033  -1.8624  -1.7683  -1.6785  -1.5964  -1.5527  -1.3819
    -1.1278  -1.0856  -0.9711  -0.9254  -0.7594  -0.7178  -0.5706  -0.5380
    -0.4489  -0.4361  -0.3190  -0.3078  -0.2807  -0.2738  -0.0680  -0.0150
     0.0868   0.0919   0.2916   0.3447   0.4068   0.4300   2.1883   2.2109
     3.7666   3.7777   4.1035   4.2489   4.8018   4.8362   4.9963   5.0217
     5.0579   5.1133   5.1754   5.3717   5.3838   5.4565   6.0435   6.0988
     6.1185   6.2982   6.5450   6.7965   6.8617   6.8986   7.0459   7.0649
     7.3126   7.4148   7.4572   7.5731   7.5866   7.6429   7.9836   8.0078

          k = 0.0000-0.4029-0.2143 (129918 PWs)   bands (ev):

   -21.8558 -21.8374 -21.6572 -21.6570 -21.3903 -21.3897 -20.1826 -20.1657
   -19.9657 -19.9484 -19.6426 -19.6347 -19.3891 -19.3882 -19.1971 -19.1971
   -15.9322 -15.9317 -15.6657 -15.6457 -14.7942 -14.7712 -13.9888 -13.9722
   -13.2790 -13.2748 -13.1649 -13.1599 -13.0540 -13.0354 -12.8811 -12.8675
   -12.4856 -12.4568 -12.1699 -12.1431 -12.0335 -11.9962 -10.7938 -10.7811
   -10.4531 -10.4410 -10.1208 -10.0438 -10.0328  -9.9671  -9.6611  -9.6406
    -9.3870  -9.3777  -9.0701  -9.0431  -8.5133  -8.4898  -8.0887  -8.0611
    -7.8733  -7.8199  -7.5517  -7.5385  -7.3299  -7.2187  -7.0379  -7.0310
    -6.8592  -6.7994  -6.6151  -6.5664  -6.4322  -6.3429  -6.0854  -6.0252
    -5.9970  -5.9398  -5.9109  -5.7977  -5.7865  -5.7682  -5.7177  -5.6515
    -5.5576  -5.5540  -5.5091  -5.3675  -5.3445  -5.2246  -5.2161  -5.1458
    -5.1264  -4.9491  -4.8920  -4.8702  -4.7980  -4.7316  -4.6310  -4.5949
    -4.5638  -4.5390  -4.3847  -4.2882  -4.2573  -4.1712  -4.1634  -4.0236
    -3.9841  -3.9627  -3.8923  -3.8864  -3.8061  -3.7592  -3.6576  -3.6339
    -3.5924  -3.5058  -3.5000  -3.4556  -3.4355  -3.3703  -3.2763  -3.2668
    -3.2234  -3.1961  -3.1616  -3.0950  -3.0888  -3.0864  -3.0371  -2.9324
    -2.9133  -2.8079  -2.7641  -2.6955  -2.6518  -2.5993  -2.5587  -2.5333
    -2.5212  -2.4358  -2.3708  -2.3107  -2.2266  -2.1894  -2.0390  -1.9835
    -1.9445  -1.9292  -1.8923  -1.7995  -1.6877  -1.6149  -1.5463  -1.3808
    -1.1289  -1.1069  -0.9882  -0.8902  -0.8294  -0.6358  -0.5638  -0.5575
    -0.4662  -0.4347  -0.3548  -0.3148  -0.2449  -0.2443  -0.0621  -0.0332
     0.0418   0.1325   0.3150   0.3287   0.4097   0.4378   2.1913   2.2021
     3.7612   3.7933   4.1037   4.2428   4.7841   4.8242   4.9936   5.0170
     5.0501   5.1083   5.1918   5.3143   5.4382   5.4703   6.0663   6.0818
     6.1517   6.1727   6.6101   6.7790   6.8926   6.9352   7.0877   7.1967
     7.2654   7.3842   7.5467   7.6100   7.6504   7.7403   7.8420   7.9588

          k = 0.0000-0.4029-0.6735 (129834 PWs)   bands (ev):

   -21.8559 -21.8373 -21.6582 -21.6560 -21.3900 -21.3900 -20.1829 -20.1654
   -19.9661 -19.9480 -19.6424 -19.6348 -19.3905 -19.3869 -19.1971 -19.1971
   -15.9376 -15.9284 -15.6637 -15.6430 -14.7921 -14.7791 -13.9945 -13.9690
   -13.2795 -13.2737 -13.1587 -13.1505 -13.0511 -13.0378 -12.8757 -12.8708
   -12.4760 -12.4599 -12.1854 -12.1327 -12.0354 -12.0182 -10.8033 -10.7735
   -10.4651 -10.4570 -10.0801 -10.0532 -10.0185  -9.9637  -9.6587  -9.6503
    -9.3950  -9.3731  -9.0531  -9.0246  -8.4972  -8.4757  -8.1012  -8.0888
    -7.8940  -7.8232  -7.5419  -7.5373  -7.3112  -7.2796  -7.0547  -7.0179
    -6.8765  -6.7980  -6.6148  -6.5482  -6.4561  -6.3730  -6.1195  -6.0479
    -6.0394  -5.9605  -5.8222  -5.8222  -5.7757  -5.7701  -5.6985  -5.5711
    -5.5708  -5.5618  -5.4666  -5.3510  -5.3287  -5.2065  -5.1828  -5.1087
    -5.0320  -5.0041  -4.8998  -4.8836  -4.8362  -4.7306  -4.6185  -4.6169
    -4.5435  -4.4981  -4.3874  -4.3604  -4.2045  -4.1916  -4.0610  -4.0444
    -4.0131  -3.9985  -3.9651  -3.9119  -3.8515  -3.7224  -3.7192  -3.6924
    -3.5312  -3.4946  -3.4832  -3.4727  -3.4243  -3.3706  -3.2807  -3.2737
    -3.2374  -3.1997  -3.1260  -3.0984  -3.0756  -3.0527  -3.0094  -2.9686
    -2.8828  -2.7949  -2.7727  -2.7563  -2.6690  -2.6066  -2.5932  -2.5790
    -2.4718  -2.3977  -2.3758  -2.3314  -2.2308  -2.2042  -2.0276  -1.9697
    -1.9311  -1.9265  -1.8878  -1.8047  -1.6955  -1.6098  -1.5361  -1.3717
    -1.1268  -1.0888  -1.0177  -0.8799  -0.7502  -0.7084  -0.5747  -0.5504
    -0.4438  -0.4308  -0.3191  -0.3175  -0.2846  -0.2630  -0.0780   0.0189
     0.0722   0.0804   0.2864   0.3594   0.4200   0.4236   2.1900   2.2025
     3.7818   3.7936   4.1449   4.1834   4.8105   4.8355   4.9769   5.0197
     5.0645   5.0920   5.2397   5.2850   5.3905   5.4605   6.0789   6.1272
     6.1571   6.2309   6.6383   6.6691   6.8209   6.8924   7.0376   7.2157
     7.3382   7.4713   7.5596   7.5897   7.6326   7.6650   7.7549   7.9289

          k =-0.5000-0.0692-0.2305 (129834 PWs)   bands (ev):

   -21.8558 -21.8374 -21.6569 -21.6565 -21.3909 -21.3899 -20.1826 -20.1657
   -19.9658 -19.9484 -19.6426 -19.6347 -19.3895 -19.3885 -19.1970 -19.1965
   -15.9362 -15.9319 -15.6653 -15.6418 -14.7815 -14.7791 -13.9850 -13.9776
   -13.2825 -13.2591 -13.1668 -13.1578 -13.0632 -13.0222 -12.9067 -12.8723
   -12.4656 -12.4582 -12.1834 -12.1376 -12.0228 -12.0224 -10.7951 -10.7893
   -10.4494 -10.4418 -10.0851 -10.0499 -10.0316  -9.9616  -9.6584  -9.6569
    -9.4000  -9.3572  -9.1121  -9.0050  -8.4966  -8.4707  -8.1027  -8.0807
    -7.8524  -7.8523  -7.5331  -7.5077  -7.3542  -7.2294  -7.0397  -7.0023
    -6.9236  -6.7996  -6.5707  -6.5187  -6.4858  -6.3649  -6.1347  -6.0514
    -5.9925  -5.9328  -5.9073  -5.8115  -5.7844  -5.7071  -5.6904  -5.6182
    -5.5151  -5.4881  -5.4835  -5.4165  -5.4042  -5.2761  -5.1719  -5.0597
    -5.0051  -4.9749  -4.9351  -4.8695  -4.8328  -4.7137  -4.6328  -4.6029
    -4.5828  -4.5624  -4.4589  -4.3100  -4.3047  -4.2443  -4.1752  -4.0569
    -4.0266  -3.9846  -3.9480  -3.8054  -3.7998  -3.7400  -3.6798  -3.5939
    -3.5573  -3.5524  -3.5285  -3.4591  -3.4205  -3.3899  -3.2777  -3.2655
    -3.2609  -3.2320  -3.1616  -3.0933  -3.0520  -2.9851  -2.9751  -2.9430
    -2.8870  -2.8322  -2.7828  -2.7358  -2.6295  -2.6201  -2.5761  -2.5403
    -2.4747  -2.4172  -2.3236  -2.2409  -2.2135  -2.1761  -2.0434  -1.9948
    -1.9348  -1.9327  -1.8863  -1.8410  -1.6583  -1.6089  -1.5423  -1.3996
    -1.1895  -1.1070  -0.9471  -0.8953  -0.8055  -0.6656  -0.5609  -0.5573
    -0.4561  -0.4404  -0.4035  -0.3425  -0.2250  -0.2204  -0.0684  -0.0142
     0.0933   0.1198   0.2845   0.3297   0.3964   0.4494   2.1769   2.2090
     3.7517   3.8300   4.1510   4.2103   4.8271   4.8930   4.9747   5.0306
     5.0696   5.0738   5.2327   5.3168   5.4123   5.4151   6.1088   6.1091
     6.2018   6.4291   6.6300   6.7028   6.8621   6.8749   6.9164   7.1070
     7.1618   7.3723   7.4682   7.5179   7.5696   7.6573   7.7191   7.8459

          k =-0.5000-0.0692-0.6897 (129856 PWs)   bands (ev):

   -21.8559 -21.8373 -21.6577 -21.6557 -21.3908 -21.3900 -20.1829 -20.1654
   -19.9661 -19.9480 -19.6424 -19.6348 -19.3907 -19.3872 -19.1970 -19.1965
   -15.9334 -15.9332 -15.6701 -15.6406 -14.7831 -14.7713 -13.9900 -13.9698
   -13.2737 -13.2696 -13.1837 -13.1706 -13.0641 -13.0261 -12.9006 -12.8801
   -12.4560 -12.4435 -12.1728 -12.1409 -12.0243 -11.9972 -10.7922 -10.7887
   -10.4880 -10.4419 -10.1339 -10.0354 -10.0065  -9.9737  -9.6562  -9.6537
    -9.4043  -9.3599  -9.0585  -9.0128  -8.5071  -8.5069  -8.0999  -8.0736
    -7.8498  -7.8251  -7.5486  -7.4958  -7.2902  -7.2735  -7.0288  -7.0283
    -6.8802  -6.8243  -6.5858  -6.5328  -6.4472  -6.3328  -6.0984  -6.0499
    -5.9694  -5.9622  -5.8991  -5.8499  -5.7427  -5.7334  -5.7086  -5.6366
    -5.5157  -5.4945  -5.4790  -5.4316  -5.3943  -5.2437  -5.2264  -5.1634
    -5.1351  -4.9272  -4.9150  -4.8650  -4.8330  -4.7492  -4.6626  -4.6440
    -4.5547  -4.4743  -4.3797  -4.3072  -4.2437  -4.2345  -4.1607  -4.0893
    -4.0088  -3.9472  -3.9373  -3.8931  -3.8080  -3.7654  -3.6473  -3.6024
    -3.5497  -3.5167  -3.5136  -3.4943  -3.4357  -3.3032  -3.2860  -3.2492
    -3.2415  -3.2277  -3.1729  -3.1662  -3.0470  -3.0297  -2.9685  -2.9012
    -2.8714  -2.7827  -2.7639  -2.7311  -2.6872  -2.6604  -2.5988  -2.5160
    -2.4848  -2.4331  -2.2572  -2.2538  -2.2130  -2.1786  -2.0391  -1.9694
    -1.9541  -1.9475  -1.8862  -1.8563  -1.6824  -1.6161  -1.5368  -1.4104
    -1.1847  -1.1142  -0.9627  -0.8691  -0.7487  -0.7237  -0.5722  -0.5379
    -0.4507  -0.4438  -0.3824  -0.2926  -0.2711  -0.2426  -0.0657   0.0263
     0.0635   0.1143   0.3027   0.3157   0.4067   0.4254   2.1794   2.2121
     3.7389   3.8180   4.1765   4.1843   4.8593   4.8670   4.9733   4.9744
     5.0896   5.1024   5.2311   5.3385   5.3999   5.4373   6.0548   6.1172
     6.2142   6.2741   6.5919   6.8696   6.9362   6.9599   6.9984   7.0790
     7.2747   7.2770   7.4401   7.4592   7.5280   7.6256   7.6805   7.9100

          k =-0.5000-0.4721-0.4447 (129810 PWs)   bands (ev):

   -21.8559 -21.8373 -21.6577 -21.6558 -21.3908 -21.3900 -20.1832 -20.1651
   -19.9657 -19.9484 -19.6424 -19.6348 -19.3907 -19.3872 -19.1970 -19.1965
   -15.9339 -15.9315 -15.6695 -15.6429 -14.7825 -14.7728 -13.9815 -13.9762
   -13.2949 -13.2563 -13.1837 -13.1494 -13.0655 -13.0288 -12.9050 -12.8767
   -12.4609 -12.4483 -12.1647 -12.1515 -12.0272 -12.0014 -10.7962 -10.7798
   -10.4694 -10.4321 -10.1178 -10.0481 -10.0251  -9.9662  -9.6752  -9.6391
    -9.3934  -9.3615  -9.1298  -8.9855  -8.5163  -8.4823  -8.0760  -8.0698
    -7.8762  -7.8031  -7.5645  -7.5083  -7.3342  -7.2456  -7.0345  -6.9992
    -6.8643  -6.8034  -6.6018  -6.5244  -6.4388  -6.3507  -6.0834  -6.0717
    -5.9772  -5.9549  -5.8759  -5.8529  -5.7883  -5.7625  -5.6788  -5.6085
    -5.5742  -5.5177  -5.5035  -5.4465  -5.2978  -5.2580  -5.1960  -5.1864
    -5.1018  -4.9729  -4.8850  -4.8306  -4.8165  -4.7081  -4.6856  -4.6197
    -4.5815  -4.4973  -4.3879  -4.3090  -4.2912  -4.2028  -4.1795  -4.0469
    -4.0172  -4.0051  -3.9336  -3.8761  -3.7983  -3.7385  -3.6857  -3.6064
    -3.6053  -3.5981  -3.4786  -3.4444  -3.4149  -3.3722  -3.2955  -3.2256
    -3.2181  -3.1468  -3.1213  -3.1196  -3.1056  -3.0187  -2.9425  -2.9114
    -2.8530  -2.8303  -2.7775  -2.7706  -2.7126  -2.6004  -2.5706  -2.5275
    -2.5185  -2.3994  -2.3006  -2.2669  -2.1988  -2.1504  -2.0150  -2.0114
    -1.9863  -1.9710  -1.9227  -1.8135  -1.6722  -1.5979  -1.5364  -1.3977
    -1.1587  -1.1343  -0.9691  -0.8524  -0.7477  -0.7404  -0.5659  -0.5515
    -0.4622  -0.4477  -0.3679  -0.3520  -0.2257  -0.2168  -0.0645  -0.0520
     0.1207   0.1247   0.3006   0.3242   0.4193   0.4240   2.1840   2.1996
     3.7206   3.8414   4.1629   4.1947   4.8383   4.8410   4.9830   4.9899
     5.0740   5.1225   5.2635   5.3027   5.4022   5.4240   6.1056   6.1111
     6.2597   6.2655   6.5485   6.8603   6.9323   7.0056   7.0219   7.0957
     7.1093   7.2739   7.3482   7.5249   7.6211   7.6490   7.7254   7.8467

          k =-0.5000-0.4721-0.9040 (129914 PWs)   bands (ev):

   -21.8558 -21.8374 -21.6569 -21.6566 -21.3909 -21.3899 -20.1823 -20.1660
   -19.9661 -19.9480 -19.6426 -19.6347 -19.3895 -19.3885 -19.1970 -19.1965
   -15.9356 -15.9320 -15.6652 -15.6426 -14.7892 -14.7716 -13.9985 -13.9610
   -13.2823 -13.2652 -13.1734 -13.1475 -13.0683 -13.0299 -12.8920 -12.8841
   -12.4533 -12.4531 -12.1728 -12.1465 -12.0375 -12.0123 -10.7924 -10.7870
   -10.4923 -10.4348 -10.0744 -10.0589 -10.0144  -9.9641  -9.6761  -9.6454
    -9.4101  -9.3497  -9.0489  -9.0279  -8.5046  -8.4643  -8.0977  -8.0944
    -7.8675  -7.8338  -7.5477  -7.5234  -7.3239  -7.2794  -7.0459  -7.0108
    -6.8496  -6.8125  -6.5970  -6.5247  -6.4538  -6.3818  -6.0885  -6.0751
    -5.9757  -5.9666  -5.8765  -5.8476  -5.8006  -5.7289  -5.6753  -5.6331
    -5.5796  -5.4904  -5.4497  -5.4402  -5.2927  -5.1869  -5.1564  -5.1379
    -5.0259  -5.0121  -4.9523  -4.9030  -4.8383  -4.7107  -4.5995  -4.5932
    -4.5847  -4.5007  -4.3896  -4.3793  -4.2393  -4.2378  -4.1684  -4.0867
    -4.0281  -4.0078  -3.9037  -3.8903  -3.8835  -3.7474  -3.6914  -3.6523
    -3.5582  -3.5337  -3.4794  -3.4317  -3.3765  -3.3358  -3.3190  -3.2737
    -3.2276  -3.2081  -3.1703  -3.1255  -3.0113  -3.0081  -3.0008  -2.9189
    -2.8957  -2.8512  -2.7346  -2.7170  -2.6304  -2.6181  -2.6023  -2.5211
    -2.5139  -2.4298  -2.2722  -2.2492  -2.2397  -2.1554  -2.0386  -2.0220
    -1.9621  -1.9535  -1.9156  -1.7990  -1.6966  -1.6050  -1.5374  -1.4036
    -1.1362  -1.1334  -0.9490  -0.8894  -0.7517  -0.7362  -0.5699  -0.5278
    -0.4575  -0.4396  -0.3384  -0.3232  -0.2714  -0.2559  -0.0783   0.0363
     0.0427   0.1349   0.2914   0.3282   0.3992   0.4439   2.1832   2.2061
     3.7322   3.8458   4.1499   4.2144   4.8321   4.8767   4.9616   5.0221
     5.0744   5.0826   5.2601   5.2899   5.4033   5.4057   6.1080   6.1335
     6.2533   6.3579   6.4587   6.6939   6.9279   7.0143   7.0158   7.0492
     7.2324   7.4025   7.5463   7.5733   7.6462   7.6897   7.7608   7.7608

     highest occupied, lowest unoccupied level (ev):     0.4494    2.1769

!    total energy              =   -1677.54290559 Ry
     Harris-Foulkes estimate   =   -1677.54290559 Ry
     estimated scf accuracy    <          3.8E-09 Ry

     total all-electron energy =     -6422.826267 Ry

     The total energy is the sum of the following terms:

     one-electron contribution =   -1122.89655829 Ry
     hartree contribution      =     691.60572818 Ry
     xc contribution           =    -364.64059699 Ry
     ewald contribution        =    -382.88887107 Ry
     Dispersion Correction     =      -0.47959944 Ry
     one-center paw contrib.   =    -498.24300797 Ry

     convergence has been achieved in  19 iterations

     Forces acting on atoms (cartesian axes, Ry/au):

     atom    1 type  1   force =    -0.00018428   -0.00042367    0.00007031
     atom    2 type  1   force =     0.00018428    0.00042367   -0.00007031
     atom    3 type  1   force =    -0.00002973   -0.00010357    0.00072717
     atom    4 type  1   force =     0.00002973    0.00010357   -0.00072717
     atom    5 type  1   force =     0.00069940   -0.00017027   -0.00042132
     atom    6 type  1   force =    -0.00069940    0.00017027    0.00042132
     atom    7 type  1   force =    -0.00043813    0.00011966    0.00027280
     atom    8 type  1   force =     0.00043813   -0.00011966   -0.00027280
     atom    9 type  1   force =    -0.00093416   -0.00029929   -0.00028402
     atom   10 type  1   force =     0.00093416    0.00029929    0.00028402
     atom   11 type  1   force =    -0.00000497   -0.00065760    0.00072135
     atom   12 type  1   force =     0.00000497    0.00065760   -0.00072135
     atom   13 type  1   force =     0.00071395    0.00003818   -0.00003255
     atom   14 type  1   force =    -0.00071395   -0.00003818    0.00003255
     atom   15 type  1   force =     0.00039625   -0.00014308    0.00046162
     atom   16 type  1   force =    -0.00039625    0.00014308   -0.00046162
     atom   17 type  1   force =     0.00000456    0.00095279   -0.00056260
     atom   18 type  1   force =    -0.00000456   -0.00095279    0.00056260
     atom   19 type  1   force =    -0.00001464   -0.00000376    0.00007583
     atom   20 type  1   force =     0.00001464    0.00000376   -0.00007583
     atom   21 type  1   force =     0.00000535   -0.00032777   -0.00005619
     atom   22 type  1   force =    -0.00000535    0.00032777    0.00005619
     atom   23 type  1   force =    -0.00049384    0.00017870   -0.00021844
     atom   24 type  1   force =     0.00049384   -0.00017870    0.00021844
     atom   25 type  1   force =    -0.00001542   -0.00028942   -0.00011266
     atom   26 type  1   force =     0.00001542    0.00028942    0.00011266
     atom   27 type  1   force =    -0.00070421    0.00034757   -0.00025517
     atom   28 type  1   force =     0.00070421   -0.00034757    0.00025517
     atom   29 type  1   force =    -0.00006656   -0.00031425   -0.00003941
     atom   30 type  1   force =     0.00006656    0.00031425    0.00003941
     atom   31 type  1   force =    -0.00015433   -0.00034025    0.00037964
     atom   32 type  1   force =     0.00015433    0.00034025   -0.00037964
     atom   33 type  1   force =     0.00038365    0.00014463    0.00042878
     atom   34 type  1   force =    -0.00038365   -0.00014463   -0.00042878
     atom   35 type  1   force =    -0.00004805    0.00016037   -0.00002166
     atom   36 type  1   force =     0.00004805   -0.00016037    0.00002166
     atom   37 type  1   force =    -0.00105475    0.00163108   -0.00007942
     atom   38 type  1   force =     0.00105475   -0.00163108    0.00007942
     atom   39 type  4   force =     0.00080211    0.00012088    0.00005608
     atom   40 type  4   force =    -0.00080211   -0.00012088   -0.00005608
     atom   41 type  4   force =    -0.00067977   -0.00000348    0.00035686
     atom   42 type  4   force =     0.00067977    0.00000348   -0.00035686
     atom   43 type  1   force =    -0.00019458   -0.00003281    0.00005408
     atom   44 type  1   force =     0.00019458    0.00003281   -0.00005408
     atom   45 type  1   force =    -0.00020195   -0.00026590   -0.00075476
     atom   46 type  1   force =     0.00020195    0.00026590    0.00075476
     atom   47 type  1   force =    -0.00104734    0.00073534   -0.00049356
     atom   48 type  1   force =     0.00104734   -0.00073534    0.00049356
     atom   49 type  4   force =    -0.00009635   -0.00036266    0.00048805
     atom   50 type  4   force =     0.00009635    0.00036266   -0.00048805
     atom   51 type  4   force =     0.00054538    0.00080506    0.00029165
     atom   52 type  4   force =    -0.00054538   -0.00080506   -0.00029165
     atom   53 type  1   force =    -0.00093429   -0.00021787    0.00028168
     atom   54 type  1   force =     0.00093429    0.00021787   -0.00028168
     atom   55 type  1   force =     0.00065296   -0.00070125    0.00026290
     atom   56 type  1   force =    -0.00065296    0.00070125   -0.00026290
     atom   57 type  4   force =     0.00002056   -0.00041564   -0.00068116
     atom   58 type  4   force =    -0.00002056    0.00041564    0.00068116
     atom   59 type  4   force =    -0.00009683   -0.00048211   -0.00043765
     atom   60 type  4   force =     0.00009683    0.00048211    0.00043765
     atom   61 type  1   force =     0.00016505   -0.00008547    0.00040148
     atom   62 type  1   force =    -0.00016505    0.00008547   -0.00040148
     atom   63 type  4   force =     0.00094014   -0.00075679    0.00051361
     atom   64 type  4   force =    -0.00094014    0.00075679   -0.00051361
     atom   65 type  1   force =    -0.00028241   -0.00010648    0.00006886
     atom   66 type  1   force =     0.00028241    0.00010648   -0.00006886
     atom   67 type  4   force =     0.00082821    0.00045762   -0.00074735
     atom   68 type  4   force =    -0.00082821   -0.00045762    0.00074735
     atom   69 type  3   force =    -0.00045185    0.00012498    0.00008151
     atom   70 type  3   force =     0.00045185   -0.00012498   -0.00008151
     atom   71 type  3   force =     0.00026053   -0.00002805    0.00009010
     atom   72 type  3   force =    -0.00026053    0.00002805   -0.00009010
     atom   73 type  3   force =     0.00035233    0.00007808   -0.00020168
     atom   74 type  3   force =    -0.00035233   -0.00007808    0.00020168
     atom   75 type  3   force =     0.00022151    0.00034542   -0.00018322
     atom   76 type  3   force =    -0.00022151   -0.00034542    0.00018322
     atom   77 type  3   force =    -0.00056014    0.00036842   -0.00001926
     atom   78 type  3   force =     0.00056014   -0.00036842    0.00001926
     atom   79 type  3   force =     0.00006801    0.00013617   -0.00052380
     atom   80 type  3   force =    -0.00006801   -0.00013617    0.00052380
     atom   81 type  3   force =    -0.00057057   -0.00059300    0.00038187
     atom   82 type  3   force =     0.00057057    0.00059300   -0.00038187
     atom   83 type  3   force =    -0.00006194   -0.00031521   -0.00009209
     atom   84 type  3   force =     0.00006194    0.00031521    0.00009209
     atom   85 type  3   force =    -0.00003154    0.00034473    0.00064213
     atom   86 type  3   force =     0.00003154   -0.00034473   -0.00064213
     atom   87 type  3   force =    -0.00011168    0.00040179    0.00004691
     atom   88 type  3   force =     0.00011168   -0.00040179   -0.00004691
     atom   89 type  3   force =    -0.00008369   -0.00049771    0.00031146
     atom   90 type  3   force =     0.00008369    0.00049771   -0.00031146
     atom   91 type  3   force =    -0.00033051   -0.00045959    0.00030145
     atom   92 type  3   force =     0.00033051    0.00045959   -0.00030145
     atom   93 type  3   force =    -0.00006833   -0.00070995    0.00085887
     atom   94 type  3   force =     0.00006833    0.00070995   -0.00085887
     atom   95 type  3   force =     0.00011137   -0.00017789    0.00038758
     atom   96 type  3   force =    -0.00011137    0.00017789   -0.00038758
     atom   97 type  3   force =     0.00003821    0.00044281    0.00008817
     atom   98 type  3   force =    -0.00003821   -0.00044281   -0.00008817
     atom   99 type  3   force =     0.00020999   -0.00038777    0.00007786
     atom  100 type  3   force =    -0.00020999    0.00038777   -0.00007786
     atom  101 type  3   force =     0.00063175   -0.00023867   -0.00012539
     atom  102 type  3   force =    -0.00063175    0.00023867    0.00012539
     atom  103 type  3   force =    -0.00002275   -0.00038278    0.00039616
     atom  104 type  3   force =     0.00002275    0.00038278   -0.00039616
     atom  105 type  3   force =    -0.00030913    0.00010795    0.00035613
     atom  106 type  3   force =     0.00030913   -0.00010795   -0.00035613
     atom  107 type  3   force =    -0.00000452    0.00018375   -0.00048747
     atom  108 type  3   force =     0.00000452   -0.00018375    0.00048747
     atom  109 type  3   force =    -0.00028561   -0.00010879    0.00008562
     atom  110 type  3   force =     0.00028561    0.00010879   -0.00008562
     atom  111 type  3   force =     0.00076967    0.00027017    0.00034077
     atom  112 type  3   force =    -0.00076967   -0.00027017   -0.00034077

     Total force =     0.007906     Total SCF correction =     0.000113


     Computing stress (Cartesian axis) and pressure

          total   stress  (Ry/bohr**3)                   (kbar)     P=   -3.85
  -0.00002830  -0.00000429   0.00000328         -4.16     -0.63      0.48
  -0.00000429  -0.00001886   0.00000060         -0.63     -2.77      0.09
   0.00000328   0.00000060  -0.00003144          0.48      0.09     -4.63


     Writing output data file scf.save
 
     init_run     :     80.46s CPU     82.85s WALL (       1 calls)
     electrons    :   3262.18s CPU   3382.82s WALL (       1 calls)
     forces       :     36.57s CPU     36.85s WALL (       1 calls)
     stress       :    163.28s CPU    163.79s WALL (       1 calls)

     Called by init_run:
     wfcinit      :     66.57s CPU     68.77s WALL (       1 calls)
     potinit      :      4.94s CPU      4.98s WALL (       1 calls)

     Called by electrons:
     c_bands      :   2953.50s CPU   3057.15s WALL (      19 calls)
     sum_band     :    288.43s CPU    303.11s WALL (      19 calls)
     v_of_rho     :      3.48s CPU      3.83s WALL (      20 calls)
     newd         :      7.59s CPU      9.38s WALL (      20 calls)
     PAW_pot      :      8.52s CPU      8.52s WALL (      20 calls)
     mix_rho      :      0.74s CPU      0.82s WALL (      19 calls)

     Called by c_bands:
     init_us_2    :     12.57s CPU     12.61s WALL (     328 calls)
     cegterg      :   2901.44s CPU   3004.88s WALL (     152 calls)

     Called by sum_band:
     sum_band:bec :      0.13s CPU      0.13s WALL (     152 calls)
     addusdens    :      7.91s CPU      9.56s WALL (      19 calls)

     Called by *egterg:
     h_psi        :   1572.25s CPU   1657.06s WALL (     709 calls)
     s_psi        :    350.78s CPU    350.80s WALL (     709 calls)
     g_psi        :      6.61s CPU      6.61s WALL (     549 calls)
     cdiaghg      :    128.56s CPU    128.57s WALL (     701 calls)

     Called by h_psi:
     h_psi:pot    :   1562.86s CPU   1647.51s WALL (     709 calls)
     h_psi:calbec :    345.11s CPU    345.60s WALL (     709 calls)
     vloc_psi     :    867.04s CPU    951.20s WALL (     709 calls)
     add_vuspsi   :    350.70s CPU    350.71s WALL (     709 calls)

     General routines
     calbec       :    491.62s CPU    492.32s WALL (     901 calls)
     fft          :      3.11s CPU      3.68s WALL (     284 calls)
     fftw         :    912.30s CPU   1008.81s WALL (  222950 calls)
 
     Parallel routines
     fft_scatter  :    200.34s CPU    296.41s WALL (  223234 calls)
 
     PWSCF        :     0h59m CPU        1h 2m WALL

 
   This run was terminated on:  18:24:17   7Dec2017            

=------------------------------------------------------------------------------=
   JOB DONE.
=------------------------------------------------------------------------------=
