
     Program PWSCF v.6.1 (svn rev. 13369) starts on 13Nov2017 at 12:24: 2 

     This program is part of the open-source Quantum ESPRESSO suite
     for quantum simulation of materials; please cite
         "P. Giannozzi et al., J. Phys.:Condens. Matter 21 395502 (2009);
          URL http://www.quantum-espresso.org", 
     in publications or presentations arising from this work. More details at
     http://www.quantum-espresso.org/quote

     Parallel version (MPI), running on     8 processors
     R & G space division:  proc/nbgrp/npool/nimage =       8
     Waiting for input...
     Reading input from standard input

     Current dimensions of program PWSCF are:
     Max number of different atomic species (ntypx) = 10
     Max number of k-points (npk) =  40000
     Max angular momentum in pseudopotentials (lmaxx) =  3
               file C.pbe-n-kjpaw_psl.0.1.UPF: wavefunction(s)  2P renormalized
               file N.pbe-n-kjpaw_psl.0.1.UPF: wavefunction(s)  2P renormalized
               file H.pbe-kjpaw_psl.0.1.UPF: wavefunction(s)  1S renormalized
               file O.pbe-n-kjpaw_psl.0.1.UPF: wavefunction(s)  2P renormalized

     -------------------------------------
     Parameters for Dispersion Correction:
     -------------------------------------
       atom      VdW radius       C_6     

        C          2.744         60.710
        N          2.640         42.670
        H          1.892          4.857
        O          2.536         24.284

     Subspace diagonalization in iterative solution of the eigenvalue problem:
     a serial algorithm will be used

 
     Parallelization info
     --------------------
     sticks:   dense  smooth     PW     G-vecs:    dense   smooth      PW
     Min         450     450    122                72780    72780   10232
     Max         451     451    123                72795    72795   10235
     Sum        3605    3605    977               582289   582289   81869
 


     bravais-lattice index     =            0
     lattice parameter (alat)  =       8.4595  a.u.
     unit-cell volume          =    4311.0494 (a.u.)^3
     number of atoms/cell      =           68
     number of atomic types    =            4
     number of electrons       =       224.00
     number of Kohn-Sham states=          134
     kinetic-energy cutoff     =     100.0000  Ry
     charge density cutoff     =     400.0000  Ry
     convergence threshold     =      1.0E-08
     mixing beta               =       0.5000
     number of iterations used =            8  plain     mixing
     Exchange-correlation      =  SLA  PW   PBX  PBC ( 1  4  3  4 0 0)

     celldm(1)=   8.459548  celldm(2)=   0.000000  celldm(3)=   0.000000
     celldm(4)=   0.000000  celldm(5)=   0.000000  celldm(6)=   0.000000

     crystal axes: (cart. coord. in units of alat)
               a(1) = (   1.000000   0.000000   0.000000 )  
               a(2) = (   0.000000   1.586360   0.000000 )  
               a(3) = (   0.000000   0.000000   4.488898 )  

     reciprocal axes: (cart. coord. in units 2 pi/alat)
               b(1) = (  1.000000  0.000000  0.000000 )  
               b(2) = (  0.000000  0.630374  0.000000 )  
               b(3) = (  0.000000  0.000000  0.222772 )  


     PseudoPot. # 1 for  C read from file:
     /scratch/ahofstet/pseudo/C.pbe-n-kjpaw_psl.0.1.UPF
     MD5 check sum: 430fe95172b1e11ef3f8ed03bac87931
     Pseudo is Projector augmented-wave + core cor, Zval =  4.0
     Generated using "atomic" code by A. Dal Corso  v.5.0.99 svn rev. 10869
     Shape of augmentation charge: BESSEL
     Using radial grid of 1073 points,  4 beta functions with: 
                l(1) =   0
                l(2) =   0
                l(3) =   1
                l(4) =   1
     Q(r) pseudized with 0 coefficients 


     PseudoPot. # 2 for  N read from file:
     /scratch/ahofstet/pseudo/N.pbe-n-kjpaw_psl.0.1.UPF
     MD5 check sum: f73187c8b701007e77325f868c9291d7
     Pseudo is Projector augmented-wave + core cor, Zval =  5.0
     Generated using "atomic" code by A. Dal Corso  v.5.0.99 svn rev. 10869
     Shape of augmentation charge: PSQ
     Using radial grid of 1085 points,  4 beta functions with: 
                l(1) =   0
                l(2) =   0
                l(3) =   1
                l(4) =   1
     Q(r) pseudized with 0 coefficients 


     PseudoPot. # 3 for  H read from file:
     /scratch/ahofstet/pseudo/H.pbe-kjpaw_psl.0.1.UPF
     MD5 check sum: 94e484f906d9e9773b2f6e52662335b2
     Pseudo is Projector augmented-wave, Zval =  1.0
     Generated using "atomic" code by A. Dal Corso  v.5.0.99 svn rev. 10869
     Shape of augmentation charge: PSQ
     Using radial grid of  929 points,  2 beta functions with: 
                l(1) =   0
                l(2) =   0
     Q(r) pseudized with 0 coefficients 


     PseudoPot. # 4 for  O read from file:
     /scratch/ahofstet/pseudo/O.pbe-n-kjpaw_psl.0.1.UPF
     MD5 check sum: 3f94a2996a3169367d6eb21d9b593f20
     Pseudo is Projector augmented-wave + core cor, Zval =  6.0
     Generated using "atomic" code by A. Dal Corso  v.5.0.99 svn rev. 10869
     Shape of augmentation charge: BESSEL
     Using radial grid of 1095 points,  4 beta functions with: 
                l(1) =   0
                l(2) =   0
                l(3) =   1
                l(4) =   1
     Q(r) pseudized with 0 coefficients 


     atomic species   valence    mass     pseudopotential
        C              4.00    12.01070      C( 1.00)
        N              5.00    14.00670      N( 1.00)
        H              1.00     1.00794      H( 1.00)
        O              6.00    15.99940      O( 1.00)

     No symmetry found
          (note:  1 additional sym.ops. were found but ignored
           their fractional translations are incommensurate with FFT grid)


   Cartesian axes

     site n.     atom                  positions (alat units)
         1           C   tau(   1) = (   0.9788771   0.5670171   4.0102315  )
         2           C   tau(   2) = (   0.5212372   1.0194130   1.7657577  )
         3           C   tau(   3) = (   0.0211229   1.3601972   2.7231152  )
         4           C   tau(   4) = (   0.4787628   0.2262329   0.4786912  )
         5           C   tau(   5) = (   0.7362111   0.5472126   4.2007986  )
         6           C   tau(   6) = (   0.7639501   1.0391529   1.9563277  )
         7           C   tau(   7) = (   0.2637889   1.3403927   2.5325481  )
         8           C   tau(   8) = (   0.2360499   0.2459728   0.2881212  )
         9           H   tau(   9) = (   0.6829020   0.3414800   4.3192473  )
        10           H   tau(  10) = (   0.8172420   1.2448798   2.0747612  )
        11           H   tau(  11) = (   0.3170980   1.1346601   2.4140995  )
        12           H   tau(  12) = (   0.1827580   0.4516998   0.1696877  )
        13           C   tau(  13) = (   0.5668215   0.8043227   4.2433295  )
        14           C   tau(  14) = (   0.9332895   0.7819747   1.9988762  )
        15           C   tau(  15) = (   0.4331785   0.0111426   2.4900172  )
        16           C   tau(  16) = (   0.0667105   1.5751548   0.2455727  )
        17           H   tau(  17) = (   0.3825564   0.8073563   4.4016785  )
        18           H   tau(  18) = (   0.1174989   0.7789385   2.1572545  )
        19           H   tau(  19) = (   0.6174436   0.0141762   2.3316682  )
        20           H   tau(  20) = (   0.8825011   1.5721186   0.0871945  )
        21           C   tau(  21) = (   0.6384620   1.0739237   4.0894911  )
        22           C   tau(  22) = (   0.8615219   0.5123972   1.8450752  )
        23           C   tau(  23) = (   0.3615380   0.2807436   2.6438556  )
        24           C   tau(  24) = (   0.1384781   1.3055773   0.3993737  )
        25           C   tau(  25) = (   0.8859571   1.0880218   3.8934716  )
        26           C   tau(  26) = (   0.6139828   0.4983016   1.6490636  )
        27           C   tau(  27) = (   0.1140429   0.2948417   2.8398752  )
        28           C   tau(  28) = (   0.3860172   1.2914817   0.5953854  )
        29           H   tau(  29) = (   0.9197801   1.2825644   3.7499274  )
        30           H   tau(  30) = (   0.5800978   0.3037981   1.5055642  )
        31           H   tau(  31) = (   0.0802199   0.4893844   2.9834194  )
        32           H   tau(  32) = (   0.4199022   1.0969782   0.7388847  )
        33           C   tau(  33) = (   0.0556863   0.8279315   3.8566014  )
        34           C   tau(  34) = (   0.4443576   0.7584689   1.6121452  )
        35           C   tau(  35) = (   0.9443137   1.6211116   2.8767453  )
        36           C   tau(  36) = (   0.5556424  -0.0347112   0.6323037  )
        37           C   tau(  37) = (   0.3409856   0.4513432   3.6831249  )
        38           C   tau(  38) = (   0.1590767   1.1350899   1.4387292  )
        39           C   tau(  39) = (   0.6590144   1.2445233   3.0502219  )
        40           C   tau(  40) = (   0.8409233   0.3419098   0.8057197  )
        41           N   tau(  41) = (   0.2670959   0.7443274   3.6439651  )
        42           N   tau(  42) = (   0.2329282   0.8420720   1.3995441  )
        43           N   tau(  43) = (   0.7329041   1.5375075   3.0893816  )
        44           N   tau(  44) = (   0.7670718   0.0488919   0.8449048  )
        45           N   tau(  45) = (   0.4558298   1.3155522   4.1314797  )
        46           N   tau(  46) = (   1.0441797   0.2707644   1.8869676  )
        47           N   tau(  47) = (   0.5441702   0.5223721   2.6018670  )
        48           N   tau(  48) = (  -0.0441797   1.0639444   0.3574813  )
        49           O   tau(  49) = (   0.1577091   0.3372177   3.9071784  )
        50           O   tau(  50) = (   0.3423941   1.2491614   1.6627776  )
        51           O   tau(  51) = (   0.8422909   1.1303978   2.8261683  )
        52           O   tau(  52) = (   0.6576059   0.4559813   0.5816713  )
        53           O   tau(  53) = (   0.5225437   0.2933238   3.5529707  )
        54           O   tau(  54) = (  -0.0224369   1.2931497   1.3085639  )
        55           O   tau(  55) = (   0.4774563   1.0865038   3.1803760  )
        56           O   tau(  56) = (   1.0224369   0.4999696   0.9358850  )
        57           H   tau(  57) = (   0.4810541   1.4887284   3.9852285  )
        58           H   tau(  58) = (   1.0188936   0.0975531   1.7407415  )
        59           H   tau(  59) = (   0.5189459   0.6955483   2.7481183  )
        60           H   tau(  60) = (  -0.0188936   0.8907332   0.5037074  )
        61           H   tau(  61) = (   0.2334145   1.2648737   4.1676851  )
        62           H   tau(  62) = (   0.2665462   0.3213751   1.9233393  )
        63           H   tau(  63) = (   0.7665855   0.4716936   2.5656616  )
        64           H   tau(  64) = (   0.7334538   1.1145552   0.3211096  )
        65           H   tau(  65) = (   0.3690865   0.8805475   3.4882249  )
        66           H   tau(  66) = (   0.1308689   0.7058888   1.2438145  )
        67           H   tau(  67) = (   0.6309135   1.6737276   3.2451219  )
        68           H   tau(  68) = (   0.8691311  -0.0872913   1.0006344  )

     number of k points=     7
                       cart. coord. in units 2pi/alat
        k(    1) = (   0.0000000   0.0000000   0.0000000), wk =   0.1666667
        k(    2) = (   0.0000000   0.2101246   0.0000000), wk =   0.3333333
        k(    3) = (   0.2500000   0.0000000   0.0000000), wk =   0.3333333
        k(    4) = (   0.2500000   0.2101246   0.0000000), wk =   0.3333333
        k(    5) = (  -0.5000000   0.0000000   0.0000000), wk =   0.1666667
        k(    6) = (  -0.5000000   0.2101246   0.0000000), wk =   0.3333333
        k(    7) = (  -0.2500000   0.2101246   0.0000000), wk =   0.3333333

     Dense  grid:   582289 G-vectors     FFT dimensions: (  54,  90, 243)

     Estimated max dynamical RAM per process >     405.66MB

     Estimated total allocated dynamical RAM >    3245.32MB

     Check: negative/imaginary core charge=   -0.000002    0.000000

     Initial potential from superposition of free atoms

     starting charge  223.99854, renormalised to  224.00000
     Starting wfc are  200 randomized atomic wfcs
     Checking if some PAW data can be deallocated... 

     total cpu time spent up to now is       18.7 secs

     per-process dynamical memory:   335.3 Mb

     Self-consistent Calculation

     iteration #  1     ecut=   100.00 Ry     beta=0.50
     Davidson diagonalization with overlap
     ethr =  1.00E-02,  avg # of iterations =  4.0

     total cpu time spent up to now is       68.1 secs

     total energy              =   -1102.51172292 Ry
     Harris-Foulkes estimate   =   -1106.58013033 Ry
     estimated scf accuracy    <       7.50071835 Ry

     iteration #  2     ecut=   100.00 Ry     beta=0.50
     Davidson diagonalization with overlap
     ethr =  3.35E-03,  avg # of iterations =  3.0

     total cpu time spent up to now is       97.9 secs

     total energy              =   -1103.44766752 Ry
     Harris-Foulkes estimate   =   -1103.84996902 Ry
     estimated scf accuracy    <       0.86493713 Ry

     iteration #  3     ecut=   100.00 Ry     beta=0.50
     Davidson diagonalization with overlap
     ethr =  3.86E-04,  avg # of iterations =  7.0

     total cpu time spent up to now is      157.2 secs

     total energy              =   -1103.90759851 Ry
     Harris-Foulkes estimate   =   -1104.08817099 Ry
     estimated scf accuracy    <       0.43541023 Ry

     iteration #  4     ecut=   100.00 Ry     beta=0.50
     Davidson diagonalization with overlap
     ethr =  1.94E-04,  avg # of iterations =  2.0

     total cpu time spent up to now is      182.8 secs

     total energy              =   -1103.91224720 Ry
     Harris-Foulkes estimate   =   -1103.95423181 Ry
     estimated scf accuracy    <       0.08427299 Ry

     iteration #  5     ecut=   100.00 Ry     beta=0.50
     Davidson diagonalization with overlap
     ethr =  3.76E-05,  avg # of iterations =  5.6

     total cpu time spent up to now is      240.4 secs

     total energy              =   -1103.96647022 Ry
     Harris-Foulkes estimate   =   -1104.00118211 Ry
     estimated scf accuracy    <       0.09809550 Ry

     iteration #  6     ecut=   100.00 Ry     beta=0.50
     Davidson diagonalization with overlap
     ethr =  3.76E-05,  avg # of iterations =  1.1

     total cpu time spent up to now is      265.2 secs

     total energy              =   -1103.95537122 Ry
     Harris-Foulkes estimate   =   -1103.97118307 Ry
     estimated scf accuracy    <       0.03270700 Ry

     iteration #  7     ecut=   100.00 Ry     beta=0.50
     Davidson diagonalization with overlap
     ethr =  1.46E-05,  avg # of iterations =  5.1

     total cpu time spent up to now is      311.1 secs

     total energy              =   -1103.97091679 Ry
     Harris-Foulkes estimate   =   -1103.97204175 Ry
     estimated scf accuracy    <       0.00447540 Ry

     iteration #  8     ecut=   100.00 Ry     beta=0.50
     Davidson diagonalization with overlap
     ethr =  2.00E-06,  avg # of iterations =  2.0

     total cpu time spent up to now is      337.0 secs

     total energy              =   -1103.96992443 Ry
     Harris-Foulkes estimate   =   -1103.97118528 Ry
     estimated scf accuracy    <       0.00223798 Ry

     iteration #  9     ecut=   100.00 Ry     beta=0.50
     Davidson diagonalization with overlap
     ethr =  9.99E-07,  avg # of iterations =  7.6

     total cpu time spent up to now is      381.7 secs

     total energy              =   -1103.97081891 Ry
     Harris-Foulkes estimate   =   -1103.97106081 Ry
     estimated scf accuracy    <       0.00058570 Ry

     iteration # 10     ecut=   100.00 Ry     beta=0.50
     Davidson diagonalization with overlap
     ethr =  2.61E-07,  avg # of iterations =  1.0

     total cpu time spent up to now is      406.3 secs

     total energy              =   -1103.97078484 Ry
     Harris-Foulkes estimate   =   -1103.97086125 Ry
     estimated scf accuracy    <       0.00013040 Ry

     iteration # 11     ecut=   100.00 Ry     beta=0.50
     Davidson diagonalization with overlap
     ethr =  5.82E-08,  avg # of iterations =  4.0

     total cpu time spent up to now is      456.2 secs

     total energy              =   -1103.97089460 Ry
     Harris-Foulkes estimate   =   -1103.97092982 Ry
     estimated scf accuracy    <       0.00010843 Ry

     iteration # 12     ecut=   100.00 Ry     beta=0.50
     Davidson diagonalization with overlap
     ethr =  4.84E-08,  avg # of iterations =  1.0

     total cpu time spent up to now is      480.8 secs

     total energy              =   -1103.97088039 Ry
     Harris-Foulkes estimate   =   -1103.97089832 Ry
     estimated scf accuracy    <       0.00003995 Ry

     iteration # 13     ecut=   100.00 Ry     beta=0.50
     Davidson diagonalization with overlap
     ethr =  1.78E-08,  avg # of iterations =  4.0

     total cpu time spent up to now is      522.5 secs

     total energy              =   -1103.97089822 Ry
     Harris-Foulkes estimate   =   -1103.97089956 Ry
     estimated scf accuracy    <       0.00000353 Ry

     iteration # 14     ecut=   100.00 Ry     beta=0.50
     Davidson diagonalization with overlap
     ethr =  1.58E-09,  avg # of iterations =  2.0

     total cpu time spent up to now is      548.3 secs

     total energy              =   -1103.97089806 Ry
     Harris-Foulkes estimate   =   -1103.97089851 Ry
     estimated scf accuracy    <       0.00000096 Ry

     iteration # 15     ecut=   100.00 Ry     beta=0.50
     Davidson diagonalization with overlap
     ethr =  4.29E-10,  avg # of iterations =  4.0

     total cpu time spent up to now is      594.3 secs

     total energy              =   -1103.97089870 Ry
     Harris-Foulkes estimate   =   -1103.97089874 Ry
     estimated scf accuracy    <       0.00000017 Ry

     iteration # 16     ecut=   100.00 Ry     beta=0.50
     Davidson diagonalization with overlap
     ethr =  7.50E-11,  avg # of iterations =  1.1

     total cpu time spent up to now is      618.9 secs

     total energy              =   -1103.97089866 Ry
     Harris-Foulkes estimate   =   -1103.97089870 Ry
     estimated scf accuracy    <       0.00000008 Ry

     iteration # 17     ecut=   100.00 Ry     beta=0.50
     Davidson diagonalization with overlap
     ethr =  3.54E-11,  avg # of iterations =  4.0

     total cpu time spent up to now is      662.7 secs

     total energy              =   -1103.97089869 Ry
     Harris-Foulkes estimate   =   -1103.97089870 Ry
     estimated scf accuracy    <       0.00000002 Ry

     iteration # 18     ecut=   100.00 Ry     beta=0.50
     Davidson diagonalization with overlap
     ethr =  6.87E-12,  avg # of iterations =  1.0

     total cpu time spent up to now is      687.2 secs

     End of self-consistent calculation

          k = 0.0000 0.0000 0.0000 ( 72921 PWs)   bands (ev):

   -21.3570 -21.3560 -21.3355 -21.3344 -18.8582 -18.8576 -18.8230 -18.8225
   -16.7447 -16.7433 -16.6768 -16.6749 -15.8154 -15.8065 -15.7548 -15.7465
   -13.6435 -13.6301 -13.6188 -13.6043 -11.4859 -11.4537 -11.3886 -11.3559
   -10.7482 -10.7274 -10.7000 -10.6757  -9.1101  -9.1065  -8.9740  -8.9710
    -8.4649  -8.4615  -8.4479  -8.4141  -8.3569  -8.3093  -8.2471  -8.2420
    -6.6808  -6.5540  -6.3127  -6.3028  -6.3006  -6.2981  -6.2798  -6.1310
    -5.4750  -5.4713  -5.3087  -5.2840  -4.9567  -4.8856  -4.8290  -4.8216
    -4.5870  -4.5514  -4.5223  -4.4567  -4.2009  -4.1485  -3.8843  -3.7540
    -3.7106  -3.6649  -3.5822  -3.4687  -3.4359  -3.4169  -3.2124  -3.1844
    -3.0546  -3.0447  -2.7214  -2.7178  -2.6534  -2.6325  -2.5119  -2.4991
    -2.2429  -2.2307  -2.2174  -2.1942  -1.9179  -1.8572  -1.6585  -1.5428
    -1.5325  -1.4878  -1.4812  -1.4404  -1.4073  -1.3623  -1.1946  -1.1491
    -0.0922  -0.0849  -0.0753  -0.0653   0.0755   0.0952   0.2136   0.2636
     0.9561   0.9577   1.0206   1.0353   2.1281   2.1604   2.3433   2.3851
     6.0619   6.0823   6.1420   6.1435   6.4105   6.5347   6.5494   6.6028
     6.9308   7.0330   7.2515   7.2621   7.2900   7.4983   7.9287   8.3938
     8.6233   8.6795   8.8086   9.0972   9.1038   9.3482

          k = 0.0000 0.2101 0.0000 ( 72783 PWs)   bands (ev):

   -21.3513 -21.3502 -21.3405 -21.3395 -18.8497 -18.8492 -18.8322 -18.8317
   -16.7383 -16.7355 -16.7052 -16.7020 -15.7971 -15.7915 -15.7404 -15.7352
   -13.6643 -13.6533 -13.6024 -13.5901 -11.4677 -11.4504 -11.3837 -11.3678
   -10.7654 -10.7495 -10.7322 -10.7173  -9.0833  -9.0768  -8.9932  -8.9814
    -8.4403  -8.4228  -8.3784  -8.3677  -8.2857  -8.2687  -8.2477  -8.2012
    -6.5889  -6.4525  -6.4201  -6.3701  -6.3691  -6.3066  -6.2938  -6.2355
    -5.5709  -5.5076  -5.4355  -5.4090  -4.9278  -4.8569  -4.8494  -4.8206
    -4.5874  -4.5404  -4.5345  -4.4925  -4.0840  -4.0157  -3.9670  -3.8691
    -3.7373  -3.7028  -3.6994  -3.6231  -3.2924  -3.2559  -3.2389  -3.1984
    -2.9339  -2.9181  -2.7910  -2.7886  -2.6780  -2.6450  -2.6030  -2.5198
    -2.2869  -2.2727  -2.2212  -2.2184  -1.9323  -1.8909  -1.5728  -1.5280
    -1.4571  -1.4545  -1.4410  -1.4364  -1.2612  -1.2336  -1.0991  -1.0773
    -0.1094  -0.0867  -0.0866  -0.0687   0.1281   0.1565   0.2556   0.2950
     0.9520   0.9549   1.0217   1.0262   2.1086   2.1297   2.3289   2.3412
     6.0027   6.0051   6.1662   6.1798   6.4256   6.4466   6.5642   6.6241
     7.0168   7.0772   7.1391   7.2081   7.4040   7.5063   7.8431   7.8923
     8.1279   8.2258   8.4959   8.5613   9.2767   9.3017

          k = 0.2500 0.0000 0.0000 ( 72747 PWs)   bands (ev):

   -21.3366 -21.3357 -21.3167 -21.3157 -18.8805 -18.8800 -18.8440 -18.8436
   -16.7149 -16.7142 -16.6434 -16.6425 -15.7621 -15.7577 -15.7166 -15.7125
   -13.6915 -13.6845 -13.6664 -13.6587 -11.5511 -11.5303 -11.4836 -11.4627
   -10.8724 -10.8402 -10.8342 -10.7993  -9.1062  -9.1056  -8.9341  -8.9307
    -8.4184  -8.4127  -8.3402  -8.3099  -8.3057  -8.2590  -8.2559  -8.2529
    -6.7581  -6.6426  -6.4517  -6.2856  -6.2087  -6.1988  -6.1961  -6.1456
    -5.4643  -5.4541  -5.2616  -5.2375  -5.1547  -5.1147  -5.0318  -5.0226
    -4.6989  -4.6882  -4.5513  -4.4825  -4.1757  -4.1598  -3.8011  -3.7689
    -3.7270  -3.6910  -3.6245  -3.5708  -3.4581  -3.4237  -3.2485  -3.2318
    -2.9412  -2.9166  -2.8378  -2.8246  -2.5538  -2.5233  -2.4916  -2.4686
    -2.2596  -2.2105  -2.1892  -2.1331  -1.8944  -1.8861  -1.7787  -1.7476
    -1.4764  -1.4292  -1.3191  -1.3000  -1.0055  -0.9544  -0.9082  -0.8482
    -0.0979  -0.0840  -0.0541  -0.0528   0.1064   0.1319   0.2168   0.2413
     1.2321   1.2799   1.3058   1.3623   2.4217   2.4439   2.5865   2.6080
     5.7573   5.7678   5.8172   5.8348   6.4325   6.4691   6.5374   6.5829
     6.8596   6.9802   7.1880   7.2545   7.5559   7.8148   8.1083   8.4554
     8.6132   8.8291   8.9451   9.0904   9.1209   9.2208

          k = 0.2500 0.2101 0.0000 ( 72840 PWs)   bands (ev):

   -21.3314 -21.3304 -21.3214 -21.3204 -18.8716 -18.8712 -18.8534 -18.8530
   -16.7035 -16.7020 -16.6680 -16.6663 -15.7505 -15.7475 -15.7074 -15.7048
   -13.7123 -13.7006 -13.6690 -13.6564 -11.5466 -11.5351 -11.4796 -11.4681
   -10.8569 -10.8502 -10.8077 -10.8007  -9.0502  -9.0489  -8.9591  -8.9553
    -8.4463  -8.4071  -8.3691  -8.3351  -8.2878  -8.2587  -8.1907  -8.1707
    -6.6637  -6.5475  -6.5382  -6.3998  -6.2526  -6.2336  -6.1617  -6.1380
    -5.4900  -5.4604  -5.3964  -5.3724  -5.1417  -5.1149  -5.0654  -5.0520
    -4.7244  -4.6958  -4.5864  -4.5347  -4.1019  -4.0418  -3.9081  -3.8232
    -3.7531  -3.7298  -3.7157  -3.6434  -3.3737  -3.3450  -3.2653  -3.2404
    -2.9102  -2.9041  -2.7391  -2.7276  -2.5595  -2.5488  -2.5036  -2.4823
    -2.2413  -2.2168  -2.2016  -2.1791  -1.8815  -1.8192  -1.8076  -1.7649
    -1.3819  -1.3645  -1.1808  -1.1775  -0.9968  -0.9827  -0.8901  -0.8608
    -0.0823  -0.0792  -0.0646  -0.0574   0.1429   0.1566   0.2430   0.2611
     1.2376   1.2583   1.3183   1.3509   2.3966   2.4071   2.5907   2.5970
     5.7242   5.7330   5.7999   5.8083   6.4695   6.5111   6.5441   6.5720
     6.9464   6.9946   7.0980   7.1336   7.5929   7.7372   7.9638   8.0990
     8.3578   8.5734   8.6268   8.8108   9.0850   9.1991

          k =-0.5000 0.0000 0.0000 ( 72714 PWs)   bands (ev):

   -21.3157 -21.3148 -21.2975 -21.2966 -18.9033 -18.9030 -18.8655 -18.8652
   -16.6851 -16.6846 -16.6100 -16.6095 -15.6898 -15.6888 -15.6886 -15.6876
   -13.7506 -13.7485 -13.7241 -13.7220 -11.5792 -11.5779 -11.5755 -11.5743
   -10.9770 -10.9762 -10.9327 -10.9320  -9.0877  -9.0877  -8.9280  -8.9280
    -8.4115  -8.4106  -8.2883  -8.2873  -8.2246  -8.2243  -8.1768  -8.1767
    -6.7553  -6.7546  -6.4297  -6.4294  -6.1377  -6.1376  -6.1300  -6.1299
    -5.4096  -5.4095  -5.3971  -5.3970  -5.2889  -5.2887  -5.1164  -5.1164
    -4.7253  -4.7248  -4.4519  -4.4518  -4.2489  -4.2480  -3.7593  -3.7583
    -3.7224  -3.7224  -3.6744  -3.6742  -3.4274  -3.4272  -3.2379  -3.2371
    -2.9451  -2.9442  -2.9079  -2.9072  -2.5668  -2.5667  -2.5400  -2.5399
    -2.2373  -2.2372  -2.2048  -2.2048  -1.7621  -1.7621  -1.6192  -1.6191
    -1.3237  -1.3235  -1.3061  -1.3060  -0.7717  -0.7716  -0.6610  -0.6609
    -0.0720  -0.0719  -0.0257  -0.0256   0.2377   0.2390   0.2766   0.2778
     1.6738   1.6746   1.6845   1.6852   2.8143   2.8158   2.8281   2.8297
     5.2245   5.2246   5.3008   5.3010   6.5939   6.5940   6.6250   6.6251
     6.8033   6.8036   7.0975   7.0978   8.2595   8.2601   8.4443   8.4447
     8.5543   8.5544   8.8202   8.8208   8.9305   8.9313

          k =-0.5000 0.2101 0.0000 ( 72714 PWs)   bands (ev):

   -21.3110 -21.3101 -21.3019 -21.3010 -18.8940 -18.8937 -18.8751 -18.8748
   -16.6682 -16.6676 -16.6306 -16.6300 -15.6852 -15.6850 -15.6841 -15.6839
   -13.7595 -13.7574 -13.7455 -13.7434 -11.5839 -11.5830 -11.5796 -11.5786
   -10.9250 -10.9242 -10.9079 -10.9071  -9.0211  -9.0210  -8.9411  -8.9411
    -8.3997  -8.3995  -8.3650  -8.3649  -8.2277  -8.2276  -8.1877  -8.1875
    -6.6567  -6.6562  -6.5231  -6.5226  -6.0991  -6.0990  -6.0894  -6.0893
    -5.4784  -5.4782  -5.4582  -5.4580  -5.2539  -5.2538  -5.1880  -5.1879
    -4.7259  -4.7259  -4.6061  -4.6061  -4.1433  -4.1427  -3.8873  -3.8865
    -3.7596  -3.7594  -3.7336  -3.7336  -3.3902  -3.3900  -3.2741  -3.2734
    -2.8037  -2.8029  -2.7842  -2.7834  -2.5617  -2.5616  -2.5509  -2.5508
    -2.2019  -2.2018  -2.1827  -2.1827  -1.7390  -1.7390  -1.6671  -1.6671
    -1.2663  -1.2663  -1.2432  -1.2432  -0.7151  -0.7150  -0.6812  -0.6811
    -0.0704  -0.0704  -0.0564  -0.0563   0.2599   0.2610   0.2768   0.2778
     1.6685   1.6694   1.6765   1.6774   2.8142   2.8157   2.8201   2.8216
     5.2378   5.2380   5.2740   5.2742   6.6077   6.6080   6.6173   6.6177
     6.8240   6.8243   6.9814   6.9818   8.2171   8.2172   8.2599   8.2601
     8.5944   8.5948   8.7644   8.7647   8.9079   8.9080

          k =-0.2500 0.2101 0.0000 ( 72840 PWs)   bands (ev):

   -21.3314 -21.3304 -21.3214 -21.3204 -18.8716 -18.8712 -18.8534 -18.8530
   -16.7035 -16.7020 -16.6680 -16.6663 -15.7505 -15.7475 -15.7074 -15.7048
   -13.7123 -13.7006 -13.6690 -13.6564 -11.5466 -11.5351 -11.4796 -11.4681
   -10.8569 -10.8502 -10.8077 -10.8007  -9.0502  -9.0489  -8.9591  -8.9553
    -8.4463  -8.4071  -8.3691  -8.3351  -8.2878  -8.2587  -8.1907  -8.1707
    -6.6637  -6.5475  -6.5382  -6.3998  -6.2526  -6.2336  -6.1617  -6.1380
    -5.4900  -5.4604  -5.3964  -5.3724  -5.1417  -5.1149  -5.0654  -5.0520
    -4.7244  -4.6958  -4.5864  -4.5347  -4.1019  -4.0418  -3.9081  -3.8232
    -3.7531  -3.7298  -3.7157  -3.6434  -3.3737  -3.3450  -3.2653  -3.2404
    -2.9102  -2.9041  -2.7391  -2.7276  -2.5595  -2.5488  -2.5036  -2.4823
    -2.2413  -2.2168  -2.2016  -2.1791  -1.8815  -1.8192  -1.8076  -1.7649
    -1.3819  -1.3645  -1.1808  -1.1775  -0.9968  -0.9827  -0.8901  -0.8608
    -0.0823  -0.0792  -0.0646  -0.0574   0.1429   0.1566   0.2430   0.2611
     1.2376   1.2583   1.3183   1.3509   2.3966   2.4071   2.5907   2.5970
     5.7242   5.7330   5.7999   5.8083   6.4695   6.5111   6.5441   6.5720
     6.9464   6.9946   7.0980   7.1336   7.5929   7.7372   7.9638   8.0990
     8.3578   8.5734   8.6268   8.8108   9.0851   9.1991

     highest occupied, lowest unoccupied level (ev):     2.8297    5.2245

!    total energy              =   -1103.97089869 Ry
     Harris-Foulkes estimate   =   -1103.97089869 Ry
     estimated scf accuracy    <          5.9E-09 Ry

     total all-electron energy =     -4242.531182 Ry

     The total energy is the sum of the following terms:

     one-electron contribution =    -574.51598766 Ry
     hartree contribution      =     377.71103737 Ry
     xc contribution           =    -236.29762160 Ry
     ewald contribution        =    -341.95959679 Ry
     Dispersion Correction     =      -0.35363376 Ry
     one-center paw contrib.   =    -328.55509624 Ry

     convergence has been achieved in  18 iterations

     Forces acting on atoms (cartesian axes, Ry/au):

     atom    1 type  1   force =     0.00647355    0.00314811   -0.01204308
     atom    2 type  1   force =    -0.00621619   -0.00361365   -0.01191438
     atom    3 type  1   force =    -0.00647320    0.00314768    0.01204731
     atom    4 type  1   force =     0.00621613   -0.00361283    0.01190918
     atom    5 type  1   force =     0.00809574   -0.00036876    0.01279202
     atom    6 type  1   force =    -0.00830834    0.00016205    0.01261609
     atom    7 type  1   force =    -0.00809545   -0.00036863   -0.01278366
     atom    8 type  1   force =     0.00830927    0.00016270   -0.01262451
     atom    9 type  3   force =    -0.00248181   -0.00156980   -0.00341298
     atom   10 type  3   force =     0.00254781    0.00162990   -0.00335071
     atom   11 type  3   force =     0.00248163   -0.00156945    0.00341343
     atom   12 type  3   force =    -0.00254773    0.00162981    0.00335050
     atom   13 type  1   force =     0.02772058    0.01839308    0.00467542
     atom   14 type  1   force =    -0.02805543   -0.01810319    0.00460054
     atom   15 type  1   force =    -0.02772050    0.01839357   -0.00469114
     atom   16 type  1   force =     0.02805524   -0.01810258   -0.00458484
     atom   17 type  3   force =    -0.00196192    0.00024155   -0.00100727
     atom   18 type  3   force =     0.00208904   -0.00028960   -0.00096049
     atom   19 type  3   force =     0.00196234    0.00024164    0.00100682
     atom   20 type  3   force =    -0.00208893   -0.00028958    0.00096065
     atom   21 type  1   force =     0.00723398   -0.02204483    0.00466825
     atom   22 type  1   force =    -0.00712930    0.02189209    0.00450454
     atom   23 type  1   force =    -0.00723401   -0.02204442   -0.00465749
     atom   24 type  1   force =     0.00712945    0.02189100   -0.00451407
     atom   25 type  1   force =    -0.00622033   -0.01139594   -0.01034494
     atom   26 type  1   force =     0.00636901    0.01183125   -0.01008120
     atom   27 type  1   force =     0.00622003   -0.01139526    0.01032776
     atom   28 type  1   force =    -0.00636984    0.01183126    0.01009830
     atom   29 type  3   force =     0.00145672   -0.00017655    0.00613798
     atom   30 type  3   force =    -0.00147149   -0.00004263    0.00599288
     atom   31 type  3   force =    -0.00145651   -0.00017729   -0.00613867
     atom   32 type  3   force =     0.00147157   -0.00004264   -0.00599280
     atom   33 type  1   force =    -0.03981950   -0.00616818   -0.01952967
     atom   34 type  1   force =     0.03990042    0.00608490   -0.01935055
     atom   35 type  1   force =     0.03981874   -0.00616673    0.01950983
     atom   36 type  1   force =    -0.03990074    0.00608534    0.01937131
     atom   37 type  1   force =    -0.02122248   -0.00001873    0.00289814
     atom   38 type  1   force =     0.02125342   -0.00013911    0.00279710
     atom   39 type  1   force =     0.02122283   -0.00001768   -0.00288735
     atom   40 type  1   force =    -0.02125413   -0.00014021   -0.00280805
     atom   41 type  2   force =     0.00163158   -0.00241111    0.01113807
     atom   42 type  2   force =    -0.00170490    0.00263241    0.01114777
     atom   43 type  2   force =    -0.00163124   -0.00241064   -0.01113823
     atom   44 type  2   force =     0.00170498    0.00263275   -0.01114790
     atom   45 type  2   force =    -0.01474834    0.02906599    0.00442302
     atom   46 type  2   force =     0.01438201   -0.02919863    0.00437534
     atom   47 type  2   force =     0.01474825    0.02906552   -0.00442218
     atom   48 type  2   force =    -0.01438183   -0.02919839   -0.00437577
     atom   49 type  4   force =     0.00625052   -0.01059244   -0.00280040
     atom   50 type  4   force =    -0.00635698    0.01087189   -0.00290777
     atom   51 type  4   force =    -0.00625023   -0.01059220    0.00280016
     atom   52 type  4   force =     0.00635679    0.01087144    0.00290749
     atom   53 type  4   force =     0.00205648    0.00060560    0.00003598
     atom   54 type  4   force =    -0.00205327   -0.00059512    0.00007174
     atom   55 type  4   force =    -0.00205675    0.00060548   -0.00003584
     atom   56 type  4   force =     0.00205300   -0.00059607   -0.00007134
     atom   57 type  3   force =    -0.00218635   -0.00404024    0.00222445
     atom   58 type  3   force =     0.00224968    0.00416691    0.00231657
     atom   59 type  3   force =     0.00218639   -0.00404034   -0.00222425
     atom   60 type  3   force =    -0.00224963    0.00416693   -0.00231691
     atom   61 type  3   force =     0.02520083    0.00921629    0.00222420
     atom   62 type  3   force =    -0.02501882   -0.00916814    0.00218510
     atom   63 type  3   force =    -0.02520084    0.00921626   -0.00222411
     atom   64 type  3   force =     0.02501887   -0.00916811   -0.00218523
     atom   65 type  3   force =    -0.00032857   -0.00033857    0.00090254
     atom   66 type  3   force =     0.00036406    0.00033167    0.00092901
     atom   67 type  3   force =     0.00032865   -0.00033862   -0.00090259
     atom   68 type  3   force =    -0.00036407    0.00033179   -0.00092915

     Total force =     0.167897     Total SCF correction =     0.000178


     Computing stress (Cartesian axis) and pressure

          total   stress  (Ry/bohr**3)                   (kbar)     P=    1.39
   0.00000255  -0.00000000  -0.00000031          0.37     -0.00     -0.05
  -0.00000000   0.00004312  -0.00000000         -0.00      6.34     -0.00
  -0.00000031  -0.00000000  -0.00001736         -0.05     -0.00     -2.55


     Writing output data file scf.save
 
     init_run     :     17.47s CPU     18.00s WALL (       1 calls)
     electrons    :    648.02s CPU    668.74s WALL (       1 calls)
     forces       :      8.75s CPU      8.84s WALL (       1 calls)
     stress       :     31.69s CPU     31.80s WALL (       1 calls)

     Called by init_run:
     wfcinit      :     13.69s CPU     14.14s WALL (       1 calls)
     potinit      :      1.38s CPU      1.39s WALL (       1 calls)

     Called by electrons:
     c_bands      :    578.08s CPU    595.29s WALL (      18 calls)
     sum_band     :     60.82s CPU     63.56s WALL (      18 calls)
     v_of_rho     :      1.38s CPU      1.54s WALL (      19 calls)
     newd         :      2.66s CPU      3.16s WALL (      19 calls)
     PAW_pot      :      4.59s CPU      4.59s WALL (      19 calls)
     mix_rho      :      0.32s CPU      0.35s WALL (      18 calls)

     Called by c_bands:
     init_us_2    :      4.01s CPU      4.03s WALL (     273 calls)
     cegterg      :    562.81s CPU    579.99s WALL (     126 calls)

     Called by sum_band:
     sum_band:bec :      0.04s CPU      0.05s WALL (     126 calls)
     addusdens    :      2.68s CPU      3.17s WALL (      18 calls)

     Called by *egterg:
     h_psi        :    312.01s CPU    323.34s WALL (     550 calls)
     s_psi        :     63.44s CPU     63.47s WALL (     550 calls)
     g_psi        :      1.83s CPU      1.83s WALL (     417 calls)
     cdiaghg      :     32.74s CPU     32.75s WALL (     543 calls)

     Called by h_psi:
     h_psi:pot    :    309.94s CPU    321.23s WALL (     550 calls)
     h_psi:calbec :     63.70s CPU     63.85s WALL (     550 calls)
     vloc_psi     :    182.21s CPU    193.34s WALL (     550 calls)
     add_vuspsi   :     64.02s CPU     64.04s WALL (     550 calls)

     General routines
     calbec       :     93.41s CPU     93.62s WALL (     711 calls)
     fft          :      1.20s CPU      1.46s WALL (     271 calls)
     fftw         :    195.76s CPU    208.49s WALL (  114732 calls)
 
     Parallel routines
     fft_scatter  :     45.71s CPU     53.22s WALL (  115003 calls)
 
     PWSCF        : 11m51.11s CPU    12m46.57s WALL

 
   This run was terminated on:  12:36:48  13Nov2017            

=------------------------------------------------------------------------------=
   JOB DONE.
=------------------------------------------------------------------------------=
