
     Program PWSCF v.6.1 (svn rev. 13369) starts on  4Nov2017 at  5:24:42 

     This program is part of the open-source Quantum ESPRESSO suite
     for quantum simulation of materials; please cite
         "P. Giannozzi et al., J. Phys.:Condens. Matter 21 395502 (2009);
          URL http://www.quantum-espresso.org", 
     in publications or presentations arising from this work. More details at
     http://www.quantum-espresso.org/quote

     Parallel version (MPI), running on     8 processors
     R & G space division:  proc/nbgrp/npool/nimage =       8
     Waiting for input...
     Reading input from standard input

     Current dimensions of program PWSCF are:
     Max number of different atomic species (ntypx) = 10
     Max number of k-points (npk) =  40000
     Max angular momentum in pseudopotentials (lmaxx) =  3
               file C.pbe-n-kjpaw_psl.0.1.UPF: wavefunction(s)  2P renormalized
               file N.pbe-n-kjpaw_psl.0.1.UPF: wavefunction(s)  2P renormalized
               file H.pbe-kjpaw_psl.0.1.UPF: wavefunction(s)  1S renormalized
               file O.pbe-n-kjpaw_psl.0.1.UPF: wavefunction(s)  2P renormalized

     -------------------------------------
     Parameters for Dispersion Correction:
     -------------------------------------
       atom      VdW radius       C_6     

        C          2.744         60.710
        N          2.640         42.670
        H          1.892          4.857
        O          2.536         24.284

     Subspace diagonalization in iterative solution of the eigenvalue problem:
     a serial algorithm will be used

 
     Parallelization info
     --------------------
     sticks:   dense  smooth     PW     G-vecs:    dense   smooth      PW
     Min         519     519    139               136435   136435   19000
     Max         520     520    140               136440   136440   19018
     Sum        4159    4159   1115              1091511  1091511  152063
 


     bravais-lattice index     =            0
     lattice parameter (alat)  =       9.5167  a.u.
     unit-cell volume          =    8079.0241 (a.u.)^3
     number of atoms/cell      =          152
     number of atomic types    =            4
     number of electrons       =       316.00
     number of Kohn-Sham states=          189
     kinetic-energy cutoff     =     100.0000  Ry
     charge density cutoff     =     400.0000  Ry
     convergence threshold     =      1.0E-08
     mixing beta               =       0.5000
     number of iterations used =            8  plain     mixing
     Exchange-correlation      =  SLA  PW   PBX  PBC ( 1  4  3  4 0 0)

     celldm(1)=   9.516661  celldm(2)=   0.000000  celldm(3)=   0.000000
     celldm(4)=   0.000000  celldm(5)=   0.000000  celldm(6)=   0.000000

     crystal axes: (cart. coord. in units of alat)
               a(1) = (   1.000000   0.000000   0.000000 )  
               a(2) = (   0.000000   1.439635   0.000000 )  
               a(3) = (  -0.334394   0.000000   6.511077 )  

     reciprocal axes: (cart. coord. in units 2 pi/alat)
               b(1) = (  1.000000  0.000000  0.051358 )  
               b(2) = (  0.000000  0.694621  0.000000 )  
               b(3) = (  0.000000  0.000000  0.153584 )  


     PseudoPot. # 1 for  C read from file:
     /scratch/ahofstet/pseudo/C.pbe-n-kjpaw_psl.0.1.UPF
     MD5 check sum: 430fe95172b1e11ef3f8ed03bac87931
     Pseudo is Projector augmented-wave + core cor, Zval =  4.0
     Generated using "atomic" code by A. Dal Corso  v.5.0.99 svn rev. 10869
     Shape of augmentation charge: BESSEL
     Using radial grid of 1073 points,  4 beta functions with: 
                l(1) =   0
                l(2) =   0
                l(3) =   1
                l(4) =   1
     Q(r) pseudized with 0 coefficients 


     PseudoPot. # 2 for  N read from file:
     /scratch/ahofstet/pseudo/N.pbe-n-kjpaw_psl.0.1.UPF
     MD5 check sum: f73187c8b701007e77325f868c9291d7
     Pseudo is Projector augmented-wave + core cor, Zval =  5.0
     Generated using "atomic" code by A. Dal Corso  v.5.0.99 svn rev. 10869
     Shape of augmentation charge: PSQ
     Using radial grid of 1085 points,  4 beta functions with: 
                l(1) =   0
                l(2) =   0
                l(3) =   1
                l(4) =   1
     Q(r) pseudized with 0 coefficients 


     PseudoPot. # 3 for  H read from file:
     /scratch/ahofstet/pseudo/H.pbe-kjpaw_psl.0.1.UPF
     MD5 check sum: 94e484f906d9e9773b2f6e52662335b2
     Pseudo is Projector augmented-wave, Zval =  1.0
     Generated using "atomic" code by A. Dal Corso  v.5.0.99 svn rev. 10869
     Shape of augmentation charge: PSQ
     Using radial grid of  929 points,  2 beta functions with: 
                l(1) =   0
                l(2) =   0
     Q(r) pseudized with 0 coefficients 


     PseudoPot. # 4 for  O read from file:
     /scratch/ahofstet/pseudo/O.pbe-n-kjpaw_psl.0.1.UPF
     MD5 check sum: 3f94a2996a3169367d6eb21d9b593f20
     Pseudo is Projector augmented-wave + core cor, Zval =  6.0
     Generated using "atomic" code by A. Dal Corso  v.5.0.99 svn rev. 10869
     Shape of augmentation charge: BESSEL
     Using radial grid of 1095 points,  4 beta functions with: 
                l(1) =   0
                l(2) =   0
                l(3) =   1
                l(4) =   1
     Q(r) pseudized with 0 coefficients 


     atomic species   valence    mass     pseudopotential
        C              4.00    12.01070      C( 1.00)
        N              5.00    14.00670      N( 1.00)
        H              1.00     1.00794      H( 1.00)
        O              6.00    15.99940      O( 1.00)

      2 Sym. Ops. (no inversion) found ( 1 have fractional translation)



   Cartesian axes

     site n.     atom                  positions (alat units)
         1           O   tau(   1) = (   1.0003722   0.2500569   0.3060041  )
         2           O   tau(   2) = (  -0.3347666   0.9698742   6.2050731  )
         3           H   tau(   3) = (   0.9968128   0.4469061   0.3130578  )
         4           H   tau(   4) = (  -0.3312072   1.1667234   6.1980194  )
         5           O   tau(   5) = (  -0.3330507   0.0950066   6.2001037  )
         6           O   tau(   6) = (   0.9986563   0.8148239   0.3109735  )
         7           H   tau(   7) = (   0.6602065   0.1553211   6.3856092  )
         8           H   tau(   8) = (   0.0053992   0.8751384   0.1254681  )
         9           C   tau(   9) = (   0.7739198   0.1514949   0.4492715  )
        10           C   tau(  10) = (  -0.1083142   0.8713122   6.0618057  )
        11           H   tau(  11) = (   0.7837782   1.3733736   0.4323495  )
        12           H   tau(  12) = (  -0.1181726   0.6535563   6.0787277  )
        13           H   tau(  13) = (   0.5847820   0.2175276   0.3524855  )
        14           H   tau(  14) = (   0.0808236   0.9373449   6.1585917  )
        15           C   tau(  15) = (   0.7653795   0.2349082   0.7420775  )
        16           C   tau(  16) = (  -0.0997739   0.9547256   5.7689998  )
        17           H   tau(  17) = (   0.5658568   0.1708225   0.8234707  )
        18           H   tau(  18) = (   0.0997488   0.8906398   5.6876065  )
        19           H   tau(  19) = (   0.7620054   0.4534121   0.7512185  )
        20           H   tau(  20) = (  -0.0963998   1.1732294   5.7598587  )
        21           C   tau(  21) = (   0.9811549   0.1274478   0.9226427  )
        22           C   tau(  22) = (  -0.3155493   0.8472651   5.5884345  )
        23           H   tau(  23) = (   0.9845415   1.3486798   0.9143574  )
        24           H   tau(  24) = (  -0.3189358   0.6288625   5.5967199  )
        25           H   tau(  25) = (   1.1825499   0.1935052   0.8488090  )
        26           H   tau(  26) = (  -0.5169443   0.9133225   5.6622682  )
        27           C   tau(  27) = (   0.9376069   0.2204957   1.2100267  )
        28           C   tau(  28) = (  -0.2720013   0.9403131   5.3010505  )
        29           H   tau(  29) = (   0.7311751   0.1605315   1.2726485  )
        30           H   tau(  30) = (  -0.0655695   0.8803488   5.2384288  )
        31           H   tau(  31) = (   0.9346871   0.4390552   1.2141519  )
        32           H   tau(  32) = (  -0.2690814   1.1588726   5.2969253  )
        33           C   tau(  33) = (   1.1239571   0.1207644   1.4256124  )
        34           C   tau(  34) = (  -0.4583514   0.8405817   5.0854648  )
        35           H   tau(  35) = (   1.1331139   1.3418125   1.4229713  )
        36           H   tau(  36) = (  -0.4675082   0.6219952   5.0881060  )
        37           H   tau(  37) = (   1.3337983   0.1910396   1.3878457  )
        38           H   tau(  38) = (  -0.6681927   0.9108569   5.1232316  )
        39           C   tau(  39) = (   1.0169301   0.2171548   1.6939186  )
        40           C   tau(  40) = (  -0.3513244   0.9369721   4.8171587  )
        41           H   tau(  41) = (   0.8012374   0.1688807   1.6930857  )
        42           H   tau(  42) = (  -0.1356318   0.8886981   4.8179916  )
        43           H   tau(  43) = (   1.0249915   0.4354417   1.7001041  )
        44           H   tau(  44) = (  -0.3593859   1.1552590   4.8109731  )
        45           C   tau(  45) = (   1.1252639   0.1047796   1.9553780  )
        46           C   tau(  46) = (  -0.4596583   0.8245969   4.5556992  )
        47           H   tau(  47) = (   1.3366128   0.1698943   1.9949977  )
        48           H   tau(  48) = (  -0.6710071   0.8897116   4.5160796  )
        49           H   tau(  49) = (   1.1309887   1.3257253   1.9456104  )
        50           H   tau(  50) = (  -0.4653830   0.6059079   4.5654668  )
        51           C   tau(  51) = (   0.9416475   0.1935531   2.1780262  )
        52           C   tau(  52) = (  -0.2760419   0.9133705   4.3330511  )
        53           H   tau(  53) = (   0.9425466   0.4119207   2.1896328  )
        54           H   tau(  54) = (  -0.2769409   1.1317380   4.3214445  )
        55           H   tau(  55) = (   0.7342163   0.1412796   2.1120634  )
        56           H   tau(  56) = (  -0.0686107   0.8610969   4.3990138  )
        57           C   tau(  57) = (   0.9853938   0.0785910   2.4572252  )
        58           C   tau(  58) = (  -0.3197882   0.7984083   4.0538520  )
        59           H   tau(  59) = (   0.9904226   1.2998460   2.4477215  )
        60           H   tau(  60) = (  -0.3248170   0.5800287   4.0633557  )
        61           H   tau(  61) = (   1.1871350   0.1392723   2.5354618  )
        62           H   tau(  62) = (  -0.5215294   0.8590896   3.9756155  )
        63           C   tau(  63) = (   0.7712811   0.1697984   2.6484914  )
        64           C   tau(  64) = (  -0.1056755   0.8896157   3.8625859  )
        65           H   tau(  65) = (   0.5718459   0.1115030   2.5629644  )
        66           H   tau(  66) = (   0.0937598   0.8313204   3.9481128  )
        67           H   tau(  67) = (   0.7678535   0.3883435   2.6550429  )
        68           H   tau(  68) = (  -0.1022478   1.1081609   3.8560344  )
        69           C   tau(  69) = (   0.7922896   0.0624237   2.9338165  )
        70           C   tau(  70) = (  -0.1266839   0.7822410   3.5772607  )
        71           H   tau(  71) = (   0.7945906   1.2834441   2.9311655  )
        72           H   tau(  72) = (  -0.1289849   0.5636267   3.5799117  )
        73           H   tau(  73) = (   0.9912128   0.1224906   3.0191009  )
        74           H   tau(  74) = (  -0.3256072   0.8423080   3.4919764  )
        75           C   tau(  75) = (   0.5733000   0.1614416   3.1153419  )
        76           C   tau(  76) = (   0.0923056   0.8812589   3.3957353  )
        77           H   tau(  77) = (   0.3745700   0.1021944   3.0288270  )
        78           H   tau(  78) = (   0.2910356   0.8220117   3.4822503  )
        79           H   tau(  79) = (   0.5715465   0.3800309   3.1163887  )
        80           H   tau(  80) = (   0.0940591   1.0998482   3.3946886  )
        81           C   tau(  81) = (   0.5893127   0.0602736   3.4033238  )
        82           C   tau(  82) = (   0.0762930   0.7800909   3.1077535  )
        83           H   tau(  83) = (   0.5887184   1.2813677   3.4042703  )
        84           H   tau(  84) = (   0.0768872   0.5615504   3.1068069  )
        85           H   tau(  85) = (   0.7883606   0.1186577   3.4899645  )
        86           H   tau(  86) = (  -0.1227550   0.8384750   3.0211127  )
        87           C   tau(  87) = (   0.3710478   0.1633403   3.5831997  )
        88           C   tau(  88) = (   0.2945578   0.8831576   2.9278775  )
        89           H   tau(  89) = (   0.3684298   0.3818847   3.5793376  )
        90           H   tau(  90) = (   0.2971758   1.1017020   2.9317397  )
        91           H   tau(  91) = (   0.1713802   0.1003874   3.5014362  )
        92           H   tau(  92) = (   0.4942255   0.8202047   3.0096410  )
        93           C   tau(  93) = (   0.3946886   0.0660305   3.8714669  )
        94           C   tau(  94) = (   0.2709171   0.7858478   2.6396104  )
        95           H   tau(  95) = (   0.3980431   1.2871048   3.8735541  )
        96           H   tau(  96) = (   0.2675626   0.5672875   2.6375232  )
        97           H   tau(  97) = (  -0.4048455   0.1272296   3.9526142  )
        98           H   tau(  98) = (   1.0704512   0.8470469   2.5584631  )
        99           C   tau(  99) = (   0.1826775   0.1656562   4.0604638  )
       100           C   tau( 100) = (   0.4829282   0.8854736   2.4506135  )
       101           H   tau( 101) = (  -0.0203702   0.1037952   3.9863092  )
       102           H   tau( 102) = (   0.6859758   0.8236125   2.5247681  )
       103           H   tau( 103) = (   0.1803968   0.3843746   4.0623152  )
       104           H   tau( 104) = (   0.4852088   1.1041919   2.4487621  )
       105           C   tau( 105) = (   0.2288539   0.0606738   4.3427481  )
       106           C   tau( 106) = (   0.4367518   0.7804911   2.1683291  )
       107           H   tau( 107) = (  -0.5622825   0.1134073   4.4029466  )
       108           H   tau( 108) = (   1.2278882   0.8332246   2.1081306  )
       109           H   tau( 109) = (   0.2255649   1.2817405   4.3395211  )
       110           H   tau( 110) = (   0.4400407   0.5619232   2.1715561  )
       111           C   tau( 111) = (   0.0495107   0.1601256   4.5645800  )
       112           C   tau( 112) = (   0.6160950   0.8799429   1.9464972  )
       113           H   tau( 113) = (   0.0428169   0.3790531   4.5630002  )
       114           H   tau( 114) = (   0.6227888   1.0988704   1.9480770  )
       115           H   tau( 115) = (  -0.1623098   0.0921289   4.5325085  )
       116           H   tau( 116) = (   0.8279155   0.8119462   1.9785688  )
       117           C   tau( 117) = (   0.1647965   0.0617828   4.8286314  )
       118           C   tau( 118) = (   0.5008092   0.7816001   1.6824459  )
       119           H   tau( 119) = (  -0.6181798   0.1006172   4.8151116  )
       120           H   tau( 120) = (   1.2837855   0.8204345   1.6959657  )
       121           H   tau( 121) = (   0.1470054   1.2838522   4.8394230  )
       122           H   tau( 122) = (   0.5186003   0.5640349   1.6716542  )
       123           C   tau( 123) = (   0.0752997   0.1834895   5.0937255  )
       124           C   tau( 124) = (   0.5903059   0.9033068   1.4173518  )
       125           H   tau( 125) = (   0.0688847   0.4017597   5.0775512  )
       126           H   tau( 126) = (   0.5967210   1.1215770   1.4335260  )
       127           H   tau( 127) = (  -0.1332802   0.1205494   5.1491229  )
       128           H   tau( 128) = (   0.7988858   0.8403667   1.3619543  )
       129           C   tau( 129) = (   0.2717035   0.0989072   5.3066721  )
       130           C   tau( 130) = (   0.3939021   0.8187245   1.2044051  )
       131           H   tau( 131) = (  -0.5243317   0.1516757   5.2299574  )
       132           H   tau( 132) = (   1.1899373   0.8714930   1.2811199  )
       133           H   tau( 133) = (   0.2727824   1.3202976   5.3199647  )
       134           H   tau( 134) = (   0.3928232   0.6004803   1.1911125  )
       135           C   tau( 135) = (   0.2420176   0.2141644   5.5878839  )
       136           C   tau( 136) = (   0.4235881   0.9339817   0.9231934  )
       137           H   tau( 137) = (   0.2420628   0.4326932   5.5796777  )
       138           H   tau( 138) = (   0.4235428   1.1525105   0.9313995  )
       139           H   tau( 139) = (   0.0420618   0.1572590   5.6730109  )
       140           H   tau( 140) = (   0.6235439   0.8770763   0.8380663  )
       141           C   tau( 141) = (   0.4618413   0.1148143   5.7687806  )
       142           C   tau( 142) = (   0.2037644   0.8346316   0.7422966  )
       143           H   tau( 143) = (   0.4625867   1.3360608   5.7692663  )
       144           H   tau( 144) = (   0.2030190   0.6162435   0.7418109  )
       145           H   tau( 145) = (  -0.3396287   0.1760089   5.6839398  )
       146           H   tau( 146) = (   1.0052344   0.8958263   0.8271375  )
       147           C   tau( 147) = (   0.4465100   0.2090926   6.0564629  )
       148           C   tau( 148) = (   0.2190956   0.9289099   0.4546144  )
       149           H   tau( 149) = (   0.4562686   0.4278340   6.0679677  )
       150           H   tau( 150) = (   0.2093371   1.1476513   0.4431095  )
       151           H   tau( 151) = (   0.2536100   0.1437262   6.1454281  )
       152           H   tau( 152) = (   0.4119957   0.8635435   0.3656491  )

     number of k points=     6
                       cart. coord. in units 2pi/alat
        k(    1) = (   0.0000000   0.0000000   0.0000000), wk =   0.1666667
        k(    2) = (   0.0000000   0.2315402   0.0000000), wk =   0.3333333
        k(    3) = (   0.2500000   0.0000000   0.0128394), wk =   0.3333333
        k(    4) = (   0.2500000   0.2315402   0.0128394), wk =   0.6666667
        k(    5) = (  -0.5000000   0.0000000  -0.0256789), wk =   0.1666667
        k(    6) = (  -0.5000000   0.2315402  -0.0256789), wk =   0.3333333

     Dense  grid:  1091511 G-vectors     FFT dimensions: (  64,  90, 400)

     Estimated max dynamical RAM per process >     997.87MB

     Estimated total allocated dynamical RAM >    7982.94MB

     Check: negative/imaginary core charge=   -0.000002    0.000000

     Initial potential from superposition of free atoms

     starting charge  315.99704, renormalised to  316.00000
     Starting wfc are  308 randomized atomic wfcs
     Checking if some PAW data can be deallocated... 

     total cpu time spent up to now is       51.8 secs

     per-process dynamical memory:   658.5 Mb

     Self-consistent Calculation

     iteration #  1     ecut=   100.00 Ry     beta=0.50
     Davidson diagonalization with overlap
     ethr =  1.00E-02,  avg # of iterations =  4.7

     total cpu time spent up to now is      171.9 secs

     total energy              =   -1168.36678599 Ry
     Harris-Foulkes estimate   =   -1176.41387231 Ry
     estimated scf accuracy    <      15.50990066 Ry

     iteration #  2     ecut=   100.00 Ry     beta=0.50
     Davidson diagonalization with overlap
     ethr =  4.91E-03,  avg # of iterations =  3.7

     total cpu time spent up to now is      233.7 secs

     total energy              =   -1168.95469144 Ry
     Harris-Foulkes estimate   =   -1169.73186847 Ry
     estimated scf accuracy    <       1.64713275 Ry

     iteration #  3     ecut=   100.00 Ry     beta=0.50
     Davidson diagonalization with overlap
     ethr =  5.21E-04,  avg # of iterations =  5.0

     total cpu time spent up to now is      370.5 secs

     total energy              =   -1171.29379938 Ry
     Harris-Foulkes estimate   =   -1172.19110596 Ry
     estimated scf accuracy    <       3.47661820 Ry

     iteration #  4     ecut=   100.00 Ry     beta=0.50
     Davidson diagonalization with overlap
     ethr =  5.21E-04,  avg # of iterations =  1.0

     total cpu time spent up to now is      426.6 secs

     total energy              =   -1169.99535476 Ry
     Harris-Foulkes estimate   =   -1171.34085768 Ry
     estimated scf accuracy    <       1.91950782 Ry

     iteration #  5     ecut=   100.00 Ry     beta=0.50
     Davidson diagonalization with overlap
     ethr =  5.21E-04,  avg # of iterations =  5.0

     total cpu time spent up to now is      563.9 secs

     total energy              =   -1169.16357582 Ry
     Harris-Foulkes estimate   =   -1174.86507507 Ry
     estimated scf accuracy    <      11.41211648 Ry

     iteration #  6     ecut=   100.00 Ry     beta=0.50
     Davidson diagonalization with overlap
     ethr =  5.21E-04,  avg # of iterations =  4.8

     total cpu time spent up to now is      684.4 secs

     total energy              =   -1171.05267914 Ry
     Harris-Foulkes estimate   =   -1171.08059569 Ry
     estimated scf accuracy    <       0.06056244 Ry

     iteration #  7     ecut=   100.00 Ry     beta=0.50
     Davidson diagonalization with overlap
     ethr =  1.92E-05,  avg # of iterations = 13.0

     total cpu time spent up to now is      772.7 secs

     total energy              =   -1171.05418376 Ry
     Harris-Foulkes estimate   =   -1171.05835242 Ry
     estimated scf accuracy    <       0.01003459 Ry

     iteration #  8     ecut=   100.00 Ry     beta=0.50
     Davidson diagonalization with overlap
     ethr =  3.18E-06,  avg # of iterations =  5.0

     total cpu time spent up to now is      900.1 secs

     total energy              =   -1171.06378668 Ry
     Harris-Foulkes estimate   =   -1171.06420553 Ry
     estimated scf accuracy    <       0.00186184 Ry

     iteration #  9     ecut=   100.00 Ry     beta=0.50
     Davidson diagonalization with overlap
     ethr =  5.89E-07,  avg # of iterations =  1.0

     total cpu time spent up to now is      956.3 secs

     total energy              =   -1171.06316043 Ry
     Harris-Foulkes estimate   =   -1171.06381533 Ry
     estimated scf accuracy    <       0.00105866 Ry

     iteration # 10     ecut=   100.00 Ry     beta=0.50
     Davidson diagonalization with overlap
     ethr =  3.35E-07,  avg # of iterations =  3.2

     total cpu time spent up to now is     1050.4 secs

     total energy              =   -1171.06359405 Ry
     Harris-Foulkes estimate   =   -1171.06370912 Ry
     estimated scf accuracy    <       0.00027366 Ry

     iteration # 11     ecut=   100.00 Ry     beta=0.50
     Davidson diagonalization with overlap
     ethr =  8.66E-08,  avg # of iterations =  1.7

     total cpu time spent up to now is     1107.5 secs

     total energy              =   -1171.06354809 Ry
     Harris-Foulkes estimate   =   -1171.06360594 Ry
     estimated scf accuracy    <       0.00007878 Ry

     iteration # 12     ecut=   100.00 Ry     beta=0.50
     Davidson diagonalization with overlap
     ethr =  2.49E-08,  avg # of iterations =  4.0

     total cpu time spent up to now is     1220.2 secs

     total energy              =   -1171.06360086 Ry
     Harris-Foulkes estimate   =   -1171.06366415 Ry
     estimated scf accuracy    <       0.00013513 Ry

     iteration # 13     ecut=   100.00 Ry     beta=0.50
     Davidson diagonalization with overlap
     ethr =  2.49E-08,  avg # of iterations =  2.3

     total cpu time spent up to now is     1278.6 secs

     total energy              =   -1171.06358937 Ry
     Harris-Foulkes estimate   =   -1171.06360800 Ry
     estimated scf accuracy    <       0.00002979 Ry

     iteration # 14     ecut=   100.00 Ry     beta=0.50
     Davidson diagonalization with overlap
     ethr =  9.43E-09,  avg # of iterations =  4.0

     total cpu time spent up to now is     1391.9 secs

     total energy              =   -1171.06362304 Ry
     Harris-Foulkes estimate   =   -1171.06363127 Ry
     estimated scf accuracy    <       0.00003372 Ry

     iteration # 15     ecut=   100.00 Ry     beta=0.50
     Davidson diagonalization with overlap
     ethr =  9.43E-09,  avg # of iterations =  1.2

     total cpu time spent up to now is     1448.3 secs

     total energy              =   -1171.06361212 Ry
     Harris-Foulkes estimate   =   -1171.06362342 Ry
     estimated scf accuracy    <       0.00001921 Ry

     iteration # 16     ecut=   100.00 Ry     beta=0.50
     Davidson diagonalization with overlap
     ethr =  6.08E-09,  avg # of iterations =  3.8

     total cpu time spent up to now is     1542.8 secs

     total energy              =   -1171.06362083 Ry
     Harris-Foulkes estimate   =   -1171.06362142 Ry
     estimated scf accuracy    <       0.00000331 Ry

     iteration # 17     ecut=   100.00 Ry     beta=0.50
     Davidson diagonalization with overlap
     ethr =  1.05E-09,  avg # of iterations =  1.0

     total cpu time spent up to now is     1599.1 secs

     total energy              =   -1171.06361975 Ry
     Harris-Foulkes estimate   =   -1171.06362089 Ry
     estimated scf accuracy    <       0.00000222 Ry

     iteration # 18     ecut=   100.00 Ry     beta=0.50
     Davidson diagonalization with overlap
     ethr =  7.03E-10,  avg # of iterations =  3.8

     total cpu time spent up to now is     1684.7 secs

     total energy              =   -1171.06362036 Ry
     Harris-Foulkes estimate   =   -1171.06362037 Ry
     estimated scf accuracy    <       0.00000002 Ry

     iteration # 19     ecut=   100.00 Ry     beta=0.50
     Davidson diagonalization with overlap
     ethr =  4.87E-12,  avg # of iterations =  4.0

     total cpu time spent up to now is     1803.0 secs

     total energy              =   -1171.06362039 Ry
     Harris-Foulkes estimate   =   -1171.06362038 Ry
     estimated scf accuracy    <       0.00000003 Ry

     iteration # 20     ecut=   100.00 Ry     beta=0.50
     Davidson diagonalization with overlap
     ethr =  4.87E-12,  avg # of iterations =  1.0

     total cpu time spent up to now is     1859.2 secs

     total energy              =   -1171.06362037 Ry
     Harris-Foulkes estimate   =   -1171.06362039 Ry
     estimated scf accuracy    <       0.00000005 Ry

     iteration # 21     ecut=   100.00 Ry     beta=0.50
     Davidson diagonalization with overlap
     ethr =  4.87E-12,  avg # of iterations =  4.2

     total cpu time spent up to now is     1929.8 secs

     End of self-consistent calculation

          k = 0.0000 0.0000 0.0000 (136425 PWs)   bands (ev):

   -19.9430 -19.8960 -19.4155 -19.3686 -15.0030 -14.9220 -14.7703 -14.7702
   -14.6965 -14.5772 -14.5264 -14.3560 -14.2922 -14.1020 -13.9805 -13.7909
   -13.6202 -13.4389 -13.2231 -13.0514 -12.7918 -12.6319 -12.2262 -12.0811
   -11.6137 -11.5120 -11.2791 -11.1523 -10.6595 -10.5902 -10.0983  -9.9075
    -9.5739  -9.4053  -9.1266  -8.9828  -8.8194  -8.7480  -8.7133  -8.6740
    -8.6071  -8.5748  -8.5433  -8.5281  -8.5206  -8.4285  -8.4215  -8.3906
    -8.3617  -8.3294  -8.2673  -8.2649  -6.9991  -6.9416  -6.5775  -6.5535
    -6.4016  -6.3407  -6.3385  -6.2584  -6.1117  -6.0639  -6.0356  -5.9175
    -5.8250  -5.7302  -5.6294  -5.5564  -5.4517  -5.3884  -5.3395  -5.2805
    -5.2476  -5.2072  -5.1556  -5.1489  -5.1220  -5.0284  -5.0132  -4.9831
    -4.8803  -4.7858  -4.7607  -4.6848  -4.6546  -4.6286  -4.4969  -4.3967
    -4.3833  -4.3686  -4.2762  -4.2554  -4.1461  -4.0934  -4.0715  -4.0646
    -3.9412  -3.7691  -3.7409  -3.6704  -3.6319  -3.6086  -3.5434  -3.4879
    -3.3033  -3.2797  -3.2385  -3.2289  -3.2263  -3.1959  -3.1781  -3.1462
    -3.1270  -3.1039  -3.0947  -3.0865  -3.0101  -3.0094  -2.9952  -2.9503
    -2.8506  -2.8437  -2.8115  -2.8070  -2.7833  -2.7147  -2.6441  -2.6038
    -2.5973  -2.5331  -2.4030  -2.3944  -2.3670  -2.3500  -2.2946  -2.2415
    -2.2238  -2.0978  -2.0722  -2.0573  -2.0310  -1.9904  -1.9809  -1.9758
    -1.9511  -1.9410  -1.9283  -1.8726  -1.8606  -1.8464  -1.7763  -1.7182
    -1.5202  -1.5144  -1.0102  -0.9949  -0.6286  -0.6111   4.6877   5.4515
     5.4757   5.5691   5.6306   5.7747   5.7885   5.8391   6.0435   6.1664
     6.2292   6.5163   6.7797   6.7952   6.8731   6.8909   6.9302   6.9359
     7.0978   7.1414   7.1950   7.3131   7.3579   7.4160   7.4283   7.4974
     7.5433   7.5542   7.6055   7.6348   7.6856

          k = 0.0000 0.2315 0.0000 (136354 PWs)   bands (ev):

   -19.9293 -19.9056 -19.4068 -19.3831 -14.9506 -14.8822 -14.8189 -14.7636
   -14.7048 -14.6044 -14.5050 -14.4028 -14.2522 -14.1527 -13.9361 -13.8401
   -13.5770 -13.4858 -13.1818 -13.0958 -12.7528 -12.6729 -12.1905 -12.1180
   -11.5880 -11.5373 -11.2474 -11.1842 -10.6405 -10.6061 -10.0504  -9.9557
    -9.5300  -9.4467  -9.0845  -9.0133  -8.7608  -8.6809  -8.6658  -8.6546
    -8.5749  -8.5658  -8.5561  -8.5156  -8.4881  -8.4466  -8.4062  -8.3870
    -8.3823  -8.3682  -8.3027  -8.2999  -6.9874  -6.9584  -6.5124  -6.4897
    -6.3990  -6.3824  -6.3093  -6.2434  -6.1987  -6.1672  -6.0208  -6.0202
    -5.8512  -5.8319  -5.6689  -5.6158  -5.4864  -5.4569  -5.3356  -5.2749
    -5.2580  -5.2400  -5.1640  -5.1612  -5.1077  -5.0611  -5.0514  -5.0051
    -4.8613  -4.8143  -4.7819  -4.7340  -4.6473  -4.6213  -4.4917  -4.4486
    -4.3713  -4.3543  -4.2370  -4.2240  -4.1600  -4.1008  -4.0487  -4.0401
    -3.8216  -3.7481  -3.7283  -3.6751  -3.6616  -3.6466  -3.4594  -3.4218
    -3.2369  -3.2331  -3.2026  -3.1439  -3.1308  -3.1019  -3.0608  -3.0346
    -3.0062  -2.9823  -2.9501  -2.9218  -2.9145  -2.9031  -2.8855  -2.8550
    -2.8273  -2.8244  -2.7804  -2.7766  -2.7241  -2.7079  -2.6294  -2.6128
    -2.5873  -2.5706  -2.4000  -2.3654  -2.3629  -2.3296  -2.3107  -2.2892
    -2.2482  -2.2080  -2.1881  -2.1713  -2.1583  -2.1441  -2.1224  -2.1153
    -2.0779  -2.0264  -1.9910  -1.9862  -1.9310  -1.9143  -1.8701  -1.8224
    -1.5250  -1.5237  -0.9537  -0.9431  -0.6273  -0.6187   4.9569   5.4826
     5.4877   5.6133   5.7437   5.7825   5.8848   5.9024   5.9405   6.0384
     6.0878   6.1126   6.2501   6.3691   6.4690   6.4697   6.5109   6.5577
     6.6157   6.7858   7.0792   7.1844   7.2472   7.4073   7.5945   7.7474
     7.7518   7.8473   7.9079   7.9668   8.0189

          k = 0.2500 0.0000 0.0128 (136440 PWs)   bands (ev):

   -19.9402 -19.8934 -19.4129 -19.3662 -14.9373 -14.8652 -14.7676 -14.7153
   -14.6927 -14.5491 -14.4930 -14.3475 -14.2455 -14.1024 -13.9337 -13.7959
   -13.5782 -13.4480 -13.1849 -13.0625 -12.7579 -12.6452 -12.2045 -12.1042
   -11.6181 -11.5476 -11.2704 -11.1791 -10.6760 -10.6295 -10.0666  -9.9293
    -9.5709  -9.4337  -9.1615  -9.0276  -8.8848  -8.8450  -8.7890  -8.7642
    -8.7375  -8.7161  -8.6800  -8.6388  -8.6235  -8.5945  -8.5470  -8.5018
    -8.4624  -8.4378  -8.4050  -8.3029  -6.9994  -6.9407  -6.7948  -6.7160
    -6.6021  -6.4471  -6.3787  -6.3602  -6.3254  -6.2776  -6.2162  -6.1410
    -5.9819  -5.9660  -5.7720  -5.7209  -5.5487  -5.4781  -5.3957  -5.3582
    -5.2563  -5.2497  -5.2122  -5.1995  -5.1473  -5.0982  -5.0270  -4.9949
    -4.9280  -4.8142  -4.7850  -4.7365  -4.6541  -4.5359  -4.4623  -4.4280
    -4.3847  -4.3163  -4.2667  -4.2064  -4.1453  -4.0586  -4.0025  -3.8803
    -3.8247  -3.7579  -3.7254  -3.7177  -3.6066  -3.5447  -3.4500  -3.3857
    -3.2472  -3.1955  -3.1614  -3.1220  -3.0986  -3.0334  -3.0069  -2.9457
    -2.9089  -2.8546  -2.8159  -2.7684  -2.7535  -2.7199  -2.6989  -2.6800
    -2.6694  -2.6107  -2.5985  -2.5848  -2.5370  -2.4758  -2.4715  -2.3820
    -2.3722  -2.3319  -2.3001  -2.2618  -2.1580  -2.1314  -2.1134  -2.0862
    -2.0819  -1.9988  -1.9880  -1.9480  -1.9290  -1.8939  -1.8823  -1.8785
    -1.8214  -1.8039  -1.7675  -1.7289  -1.7135  -1.7032  -1.6269  -1.5361
    -1.5112  -1.5022  -0.8926  -0.8851  -0.5169  -0.5123   4.8924   5.2811
     5.2995   5.4551   5.5184   5.6017   5.6492   5.7632   5.9009   6.2560
     6.2884   6.3226   6.4125   6.4921   6.6001   6.6746   6.7216   6.7960
     6.8112   6.8264   6.8559   6.9299   6.9550   6.9698   7.0426   7.1011
     7.1276   7.1875   7.2271   7.2743   7.3193

          k = 0.2500 0.2315 0.0128 (136449 PWs)   bands (ev):

   -19.9267 -19.9031 -19.4040 -19.3804 -14.8980 -14.8393 -14.7972 -14.7446
   -14.6625 -14.5843 -14.4605 -14.3846 -14.2120 -14.1392 -13.9004 -13.8310
   -13.5465 -13.4812 -13.1550 -13.0937 -12.7302 -12.6739 -12.1799 -12.1298
   -11.6007 -11.5655 -11.2478 -11.2023 -10.6644 -10.6413 -10.0325  -9.9642
    -9.5364  -9.4688  -9.1252  -9.0605  -8.8460  -8.8359  -8.7895  -8.7705
    -8.7603  -8.7376  -8.7053  -8.6675  -8.5956  -8.5820  -8.5409  -8.5290
    -8.5021  -8.4733  -8.3779  -8.3249  -6.9843  -6.9535  -6.6684  -6.6101
    -6.5162  -6.4579  -6.4124  -6.3817  -6.3249  -6.2580  -6.1968  -6.1166
    -6.0114  -5.9397  -5.7969  -5.7298  -5.5758  -5.5361  -5.4137  -5.3763
    -5.3077  -5.2590  -5.1975  -5.1534  -5.1330  -5.0917  -5.0358  -5.0123
    -4.8707  -4.8047  -4.7798  -4.7658  -4.6314  -4.5631  -4.4712  -4.4539
    -4.3280  -4.3082  -4.2560  -4.1952  -4.1145  -4.0646  -4.0145  -3.9585
    -3.7783  -3.7489  -3.7225  -3.7014  -3.6063  -3.5769  -3.4037  -3.3530
    -3.2234  -3.1783  -3.1598  -3.1210  -3.0723  -3.0210  -2.9307  -2.8861
    -2.8596  -2.7846  -2.7452  -2.7331  -2.7066  -2.6804  -2.6397  -2.6030
    -2.5720  -2.5560  -2.5312  -2.5074  -2.5001  -2.4759  -2.4329  -2.4240
    -2.3926  -2.3485  -2.2900  -2.2548  -2.2514  -2.2114  -2.1849  -2.1464
    -2.1173  -2.1030  -2.0706  -2.0568  -2.0434  -2.0100  -1.9809  -1.9300
    -1.9033  -1.8814  -1.8507  -1.8326  -1.7499  -1.7113  -1.6880  -1.6125
    -1.5174  -1.5147  -0.8471  -0.8415  -0.5127  -0.5100   5.1070   5.3556
     5.3661   5.6223   5.6899   5.7395   5.7594   5.8388   5.9379   5.9821
     6.0692   6.1964   6.2509   6.3171   6.4037   6.4916   6.5949   6.6722
     6.7348   6.8212   6.8500   6.9420   6.9833   7.0315   7.1511   7.1570
     7.1913   7.2387   7.2838   7.3400   7.3567

          k =-0.5000 0.0000-0.0257 (136422 PWs)   bands (ev):

   -19.9374 -19.8909 -19.4102 -19.3637 -14.8253 -14.8134 -14.7659 -14.7434
   -14.6013 -14.5788 -14.4034 -14.3786 -14.1598 -14.1375 -13.8539 -13.8334
   -13.5071 -13.4867 -13.1212 -13.1004 -12.7003 -12.6840 -12.1643 -12.1488
   -11.6154 -11.5920 -11.2499 -11.2172 -10.6891 -10.6717 -10.0122  -9.9721
    -9.5550  -9.4677  -9.1901  -9.0681  -8.9624  -8.9613  -8.9366  -8.8749
    -8.8504  -8.8492  -8.7765  -8.7472  -8.7026  -8.6878  -8.6530  -8.5871
    -8.5404  -8.5390  -8.5166  -8.5005  -7.0050  -6.9409  -6.7744  -6.7579
    -6.6954  -6.6691  -6.5655  -6.5427  -6.4096  -6.3863  -6.3033  -6.2506
    -6.1572  -6.0965  -5.8853  -5.8685  -5.5978  -5.5906  -5.4092  -5.4011
    -5.3300  -5.2975  -5.2796  -5.2136  -5.1931  -5.1668  -5.0597  -5.0525
    -4.9566  -4.9493  -4.8100  -4.7995  -4.6258  -4.5830  -4.5319  -4.4622
    -4.3245  -4.3099  -4.2435  -4.1623  -4.1234  -4.1023  -4.0527  -3.9574
    -3.7973  -3.7325  -3.7320  -3.6556  -3.5215  -3.4482  -3.2932  -3.2633
    -3.2045  -3.1562  -3.0694  -3.0567  -3.0329  -2.9822  -2.9271  -2.8442
    -2.7130  -2.6385  -2.6231  -2.5993  -2.5861  -2.5769  -2.4911  -2.4385
    -2.3707  -2.3469  -2.3303  -2.3043  -2.2761  -2.2759  -2.2519  -2.2400
    -2.1772  -2.1653  -2.1541  -2.1518  -2.1213  -2.0482  -1.9828  -1.9625
    -1.9039  -1.8910  -1.8449  -1.8300  -1.7807  -1.7149  -1.6477  -1.6424
    -1.5790  -1.5670  -1.4874  -1.4732  -1.4490  -1.4441  -1.4208  -1.4086
    -1.2250  -1.2174  -0.7710  -0.7543  -0.3946  -0.3840   5.2365   5.2458
     5.2804   5.2992   5.4791   5.5269   5.5581   5.6408   5.7030   5.7136
     5.9124   5.9253   6.0031   6.1282   6.2246   6.2429   6.2745   6.3252
     6.4135   6.4302   6.4627   6.5163   6.6084   6.6481   6.6527   6.7928
     6.8208   6.9002   6.9064   7.0040   7.0997

          k =-0.5000 0.2315-0.0257 (136508 PWs)   bands (ev):

   -19.9240 -19.9006 -19.4013 -19.3778 -14.8204 -14.8143 -14.7595 -14.7479
   -14.5945 -14.5830 -14.3963 -14.3837 -14.1538 -14.1424 -13.8484 -13.8380
   -13.5018 -13.4915 -13.1161 -13.1056 -12.6966 -12.6883 -12.1611 -12.1532
   -11.6106 -11.5988 -11.2424 -11.2259 -10.6866 -10.6778 -10.0024  -9.9826
    -9.5343  -9.4916  -9.1586  -9.1006  -8.9915  -8.9824  -8.9493  -8.9126
    -8.8684  -8.8501  -8.8166  -8.7825  -8.7151  -8.6985  -8.6711  -8.6281
    -8.5508  -8.5493  -8.5329  -8.5261  -6.9818  -6.9488  -6.6726  -6.6599
    -6.6071  -6.5923  -6.4962  -6.4928  -6.3731  -6.3393  -6.2558  -6.2113
    -6.0937  -6.0639  -5.8575  -5.8569  -5.6258  -5.6110  -5.4553  -5.4433
    -5.3496  -5.3462  -5.2048  -5.2025  -5.1484  -5.1375  -5.0535  -5.0502
    -4.8981  -4.8810  -4.8130  -4.7878  -4.5830  -4.5765  -4.4967  -4.4699
    -4.3208  -4.3089  -4.2129  -4.1953  -4.1040  -4.0688  -4.0107  -3.9333
    -3.8415  -3.7655  -3.7260  -3.7125  -3.5400  -3.5094  -3.3270  -3.3119
    -3.1470  -3.1415  -3.0807  -3.0491  -3.0316  -3.0077  -2.8731  -2.8225
    -2.7075  -2.6789  -2.6199  -2.6056  -2.5743  -2.5721  -2.5139  -2.4873
    -2.3973  -2.3751  -2.3584  -2.3445  -2.3290  -2.3213  -2.3014  -2.2972
    -2.2796  -2.2747  -2.2434  -2.2384  -2.1586  -2.1145  -1.9922  -1.9797
    -1.9100  -1.9058  -1.8622  -1.8551  -1.7794  -1.7527  -1.6719  -1.6630
    -1.5833  -1.5785  -1.4944  -1.4915  -1.4711  -1.4677  -1.4186  -1.4056
    -1.2419  -1.2374  -0.7312  -0.7250  -0.3867  -0.3813   5.2984   5.3090
     5.3402   5.3553   5.6102   5.6256   5.7119   5.7352   5.8198   5.8201
     6.0411   6.0618   6.1167   6.1792   6.3575   6.4022   6.4132   6.4363
     6.5487   6.5657   6.5919   6.6038   6.6630   6.6776   6.7696   6.7806
     6.8174   6.8446   6.9269   6.9578   7.0109

     highest occupied, lowest unoccupied level (ev):    -0.3813    4.6877

!    total energy              =   -1171.06362037 Ry
     Harris-Foulkes estimate   =   -1171.06362037 Ry
     estimated scf accuracy    <          3.7E-09 Ry

     total all-electron energy =     -4379.127626 Ry

     The total energy is the sum of the following terms:

     one-electron contribution =    -610.64148862 Ry
     hartree contribution      =     412.11141611 Ry
     xc contribution           =    -300.73035468 Ry
     ewald contribution        =    -313.92379653 Ry
     Dispersion Correction     =      -0.65618715 Ry
     one-center paw contrib.   =    -357.22320950 Ry

     convergence has been achieved in  21 iterations

     Forces acting on atoms (cartesian axes, Ry/au):

     atom    1 type  4   force =    -0.00016209    0.00426787   -0.00313505
     atom    2 type  4   force =     0.00016209    0.00426787    0.00313505
     atom    3 type  3   force =    -0.00111815   -0.00277645   -0.00006400
     atom    4 type  3   force =     0.00111815   -0.00277645    0.00006400
     atom    5 type  4   force =    -0.00031712   -0.00174752    0.00466563
     atom    6 type  4   force =     0.00031712   -0.00174752   -0.00466563
     atom    7 type  3   force =    -0.00113875   -0.00037505   -0.00008980
     atom    8 type  3   force =     0.00113875   -0.00037505    0.00008980
     atom    9 type  1   force =    -0.01248962    0.00502733   -0.00299111
     atom   10 type  1   force =     0.01248962    0.00502733    0.00299111
     atom   11 type  3   force =    -0.00043367   -0.00112758    0.00094425
     atom   12 type  3   force =     0.00043367   -0.00112758   -0.00094425
     atom   13 type  3   force =     0.01434120   -0.00528351    0.00664544
     atom   14 type  3   force =    -0.01434120   -0.00528351   -0.00664544
     atom   15 type  1   force =    -0.03516056   -0.00490458   -0.00119693
     atom   16 type  1   force =     0.03516056   -0.00490458    0.00119693
     atom   17 type  3   force =     0.02848081    0.00625795   -0.01244241
     atom   18 type  3   force =    -0.02848081    0.00625795    0.01244241
     atom   19 type  3   force =     0.00158464    0.00243389    0.00055196
     atom   20 type  3   force =    -0.00158464    0.00243389   -0.00055196
     atom   21 type  1   force =     0.03577827    0.00768452    0.00324535
     atom   22 type  1   force =    -0.03577827    0.00768452   -0.00324535
     atom   23 type  3   force =    -0.00168698   -0.00330222    0.00036245
     atom   24 type  3   force =     0.00168698   -0.00330222   -0.00036245
     atom   25 type  3   force =    -0.02918186   -0.00719801    0.01073917
     atom   26 type  3   force =     0.02918186   -0.00719801   -0.01073917
     atom   27 type  1   force =    -0.02907957   -0.00662856   -0.00737168
     atom   28 type  1   force =     0.02907957   -0.00662856    0.00737168
     atom   29 type  3   force =     0.02092171    0.00509574   -0.01255172
     atom   30 type  3   force =    -0.02092171    0.00509574    0.01255172
     atom   31 type  3   force =     0.00158122    0.00329022   -0.00116274
     atom   32 type  3   force =    -0.00158122    0.00329022    0.00116274
     atom   33 type  1   force =     0.03256705    0.00459521    0.00354714
     atom   34 type  1   force =    -0.03256705    0.00459521   -0.00354714
     atom   35 type  3   force =    -0.00134561   -0.00273468   -0.00018580
     atom   36 type  3   force =     0.00134561   -0.00273468    0.00018580
     atom   37 type  3   force =    -0.02805049   -0.00642503    0.00784385
     atom   38 type  3   force =     0.02805049   -0.00642503   -0.00784385
     atom   39 type  1   force =    -0.00953948   -0.00503116   -0.00045134
     atom   40 type  1   force =     0.00953948   -0.00503116    0.00045134
     atom   41 type  3   force =     0.00749582    0.00238376    0.00004219
     atom   42 type  3   force =    -0.00749582    0.00238376   -0.00004219
     atom   43 type  3   force =     0.00219232    0.00265796    0.00040384
     atom   44 type  3   force =    -0.00219232    0.00265796   -0.00040384
     atom   45 type  1   force =     0.03295626    0.00382619   -0.00397305
     atom   46 type  1   force =    -0.03295626    0.00382619    0.00397305
     atom   47 type  3   force =    -0.02940835   -0.00602621   -0.00799389
     atom   48 type  3   force =     0.02940835   -0.00602621    0.00799389
     atom   49 type  3   force =    -0.00092244   -0.00183208   -0.00014150
     atom   50 type  3   force =     0.00092244   -0.00183208    0.00014150
     atom   51 type  1   force =    -0.02816831   -0.00647688    0.00734142
     atom   52 type  1   force =     0.02816831   -0.00647688   -0.00734142
     atom   53 type  3   force =     0.00177745    0.00280632    0.00112104
     atom   54 type  3   force =    -0.00177745    0.00280632   -0.00112104
     atom   55 type  3   force =     0.02061645    0.00413950    0.01342413
     atom   56 type  3   force =    -0.02061645    0.00413950   -0.01342413
     atom   57 type  1   force =     0.03599322    0.00683822   -0.00195860
     atom   58 type  1   force =    -0.03599322    0.00683822    0.00195860
     atom   59 type  3   force =    -0.00174584   -0.00338202   -0.00057322
     atom   60 type  3   force =     0.00174584   -0.00338202    0.00057322
     atom   61 type  3   force =    -0.02890671   -0.00605878   -0.01180253
     atom   62 type  3   force =     0.02890671   -0.00605878    0.01180253
     atom   63 type  1   force =    -0.03562970   -0.00749029    0.00300955
     atom   64 type  1   force =     0.03562970   -0.00749029   -0.00300955
     atom   65 type  3   force =     0.02701616    0.00578834    0.01306193
     atom   66 type  3   force =    -0.02701616    0.00578834   -0.01306193
     atom   67 type  3   force =     0.00140302    0.00336316    0.00068491
     atom   68 type  3   force =    -0.00140302    0.00336316   -0.00068491
     atom   69 type  1   force =     0.03649338    0.00739308   -0.00126956
     atom   70 type  1   force =    -0.03649338    0.00739308    0.00126956
     atom   71 type  3   force =    -0.00164565   -0.00301549   -0.00119548
     atom   72 type  3   force =     0.00164565   -0.00301549    0.00119548
     atom   73 type  3   force =    -0.02786909   -0.00674165   -0.01092888
     atom   74 type  3   force =     0.02786909   -0.00674165    0.01092888
     atom   75 type  1   force =    -0.03654001   -0.00678628    0.00172426
     atom   76 type  1   force =     0.03654001   -0.00678628   -0.00172426
     atom   77 type  3   force =     0.02797065    0.00616086    0.01164248
     atom   78 type  3   force =    -0.02797065    0.00616086   -0.01164248
     atom   79 type  3   force =     0.00166794    0.00371194    0.00034535
     atom   80 type  3   force =    -0.00166794    0.00371194   -0.00034535
     atom   81 type  1   force =     0.03672812    0.00667766   -0.00231574
     atom   82 type  1   force =    -0.03672812    0.00667766    0.00231574
     atom   83 type  3   force =    -0.00119586   -0.00374884   -0.00098944
     atom   84 type  3   force =     0.00119586   -0.00374884    0.00098944
     atom   85 type  3   force =    -0.02831860   -0.00618730   -0.01217709
     atom   86 type  3   force =     0.02831860   -0.00618730    0.01217709
     atom   87 type  1   force =    -0.03642593   -0.00703636    0.00164025
     atom   88 type  1   force =     0.03642593   -0.00703636   -0.00164025
     atom   89 type  3   force =     0.00131910    0.00348344    0.00080346
     atom   90 type  3   force =    -0.00131910    0.00348344   -0.00080346
     atom   91 type  3   force =     0.02881472    0.00716943    0.01051903
     atom   92 type  3   force =    -0.02881472    0.00716943   -0.01051903
     atom   93 type  1   force =     0.03588843    0.00727186   -0.00409281
     atom   94 type  1   force =    -0.03588843    0.00727186    0.00409281
     atom   95 type  3   force =    -0.00188081   -0.00351592   -0.00082501
     atom   96 type  3   force =     0.00188081   -0.00351592    0.00082501
     atom   97 type  3   force =    -0.02740022   -0.00614822   -0.01234221
     atom   98 type  3   force =     0.02740022   -0.00614822    0.01234221
     atom   99 type  1   force =    -0.03635152   -0.00651027    0.00266562
     atom  100 type  1   force =     0.03635152   -0.00651027   -0.00266562
     atom  101 type  3   force =     0.02962154    0.00658472    0.01126154
     atom  102 type  3   force =    -0.02962154    0.00658472   -0.01126154
     atom  103 type  3   force =     0.00090193    0.00269188    0.00019487
     atom  104 type  3   force =    -0.00090193    0.00269188   -0.00019487
     atom  105 type  1   force =     0.02627873    0.00604738   -0.00742266
     atom  106 type  1   force =    -0.02627873    0.00604738    0.00742266
     atom  107 type  3   force =    -0.01984571   -0.00439165   -0.01237856
     atom  108 type  3   force =     0.01984571   -0.00439165    0.01237856
     atom  109 type  3   force =    -0.00164259   -0.00263989   -0.00095850
     atom  110 type  3   force =     0.00164259   -0.00263989    0.00095850
     atom  111 type  1   force =    -0.03293680   -0.00322976    0.00347671
     atom  112 type  1   force =     0.03293680   -0.00322976   -0.00347671
     atom  113 type  3   force =     0.00133869    0.00152083    0.00014846
     atom  114 type  3   force =    -0.00133869    0.00152083   -0.00014846
     atom  115 type  3   force =     0.02954506    0.00660784    0.00737094
     atom  116 type  3   force =    -0.02954506    0.00660784   -0.00737094
     atom  117 type  1   force =     0.00821862    0.00539991    0.00239736
     atom  118 type  1   force =    -0.00821862    0.00539991   -0.00239736
     atom  119 type  3   force =    -0.00701457   -0.00251720    0.00263887
     atom  120 type  3   force =     0.00701457   -0.00251720   -0.00263887
     atom  121 type  3   force =    -0.00164363   -0.00220298    0.00014807
     atom  122 type  3   force =     0.00164363   -0.00220298   -0.00014807
     atom  123 type  1   force =    -0.03549374   -0.00478185   -0.00287727
     atom  124 type  1   force =     0.03549374   -0.00478185    0.00287727
     atom  125 type  3   force =     0.00206992    0.00169046   -0.00011330
     atom  126 type  3   force =    -0.00206992    0.00169046    0.00011330
     atom  127 type  3   force =     0.03034942    0.00594739   -0.01008913
     atom  128 type  3   force =    -0.03034942    0.00594739    0.01008913
     atom  129 type  1   force =     0.03134988    0.00683702    0.00607634
     atom  130 type  1   force =    -0.03134988    0.00683702   -0.00607634
     atom  131 type  3   force =    -0.02303761   -0.00443726    0.01381702
     atom  132 type  3   force =     0.02303761   -0.00443726   -0.01381702
     atom  133 type  3   force =    -0.00163579   -0.00297363    0.00111255
     atom  134 type  3   force =     0.00163579   -0.00297363   -0.00111255
     atom  135 type  1   force =    -0.03774862   -0.00547441   -0.00061016
     atom  136 type  1   force =     0.03774862   -0.00547441    0.00061016
     atom  137 type  3   force =     0.00155121    0.00228992   -0.00086273
     atom  138 type  3   force =    -0.00155121    0.00228992    0.00086273
     atom  139 type  3   force =     0.02995576    0.00579496   -0.01142131
     atom  140 type  3   force =    -0.02995576    0.00579496    0.01142131
     atom  141 type  1   force =     0.03424679    0.00532366    0.00015873
     atom  142 type  1   force =    -0.03424679    0.00532366   -0.00015873
     atom  143 type  3   force =    -0.00101764   -0.00288227   -0.00043050
     atom  144 type  3   force =     0.00101764   -0.00288227    0.00043050
     atom  145 type  3   force =    -0.02805407   -0.00639905    0.01134518
     atom  146 type  3   force =     0.02805407   -0.00639905   -0.01134518
     atom  147 type  1   force =    -0.01673665   -0.00450619    0.00045698
     atom  148 type  1   force =     0.01673665   -0.00450619   -0.00045698
     atom  149 type  3   force =    -0.00039623    0.00016094   -0.00085183
     atom  150 type  3   force =     0.00039623    0.00016094    0.00085183
     atom  151 type  3   force =     0.01349068    0.00570574   -0.00589215
     atom  152 type  3   force =    -0.01349068    0.00570574    0.00589215

     Total force =     0.298279     Total SCF correction =     0.000094


     Computing stress (Cartesian axis) and pressure

          total   stress  (Ry/bohr**3)                   (kbar)     P=  -21.59
  -0.00023070   0.00000000  -0.00002192        -33.94      0.00     -3.22
   0.00000000  -0.00004351   0.00000000          0.00     -6.40      0.00
  -0.00002192   0.00000000  -0.00016614         -3.22      0.00    -24.44


     Writing output data file scf.save
 
     init_run     :     48.62s CPU     51.15s WALL (       1 calls)
     electrons    :   1766.42s CPU   1878.29s WALL (       1 calls)
     forces       :     26.46s CPU     26.79s WALL (       1 calls)
     stress       :    149.89s CPU    150.40s WALL (       1 calls)

     Called by init_run:
     wfcinit      :     33.64s CPU     35.88s WALL (       1 calls)
     potinit      :      5.04s CPU      5.17s WALL (       1 calls)

     Called by electrons:
     c_bands      :   1587.71s CPU   1680.58s WALL (      21 calls)
     sum_band     :    159.06s CPU    175.00s WALL (      21 calls)
     v_of_rho     :      3.33s CPU      3.72s WALL (      22 calls)
     newd         :      9.59s CPU     12.08s WALL (      22 calls)
     PAW_pot      :      4.80s CPU      4.81s WALL (      22 calls)
     mix_rho      :      0.99s CPU      1.11s WALL (      21 calls)

     Called by c_bands:
     init_us_2    :     12.12s CPU     12.18s WALL (     270 calls)
     cegterg      :   1544.40s CPU   1637.20s WALL (     126 calls)

     Called by sum_band:
     sum_band:bec :      0.09s CPU      0.09s WALL (     126 calls)
     addusdens    :      9.94s CPU     12.33s WALL (      21 calls)

     Called by *egterg:
     h_psi        :    851.67s CPU    929.57s WALL (     596 calls)
     s_psi        :    158.46s CPU    158.49s WALL (     596 calls)
     g_psi        :      5.46s CPU      5.47s WALL (     464 calls)
     cdiaghg      :     57.78s CPU     57.79s WALL (     590 calls)

     Called by h_psi:
     h_psi:pot    :    844.28s CPU    922.07s WALL (     596 calls)
     h_psi:calbec :    175.65s CPU    176.08s WALL (     596 calls)
     vloc_psi     :    510.11s CPU    587.44s WALL (     596 calls)
     add_vuspsi   :    158.52s CPU    158.55s WALL (     596 calls)

     General routines
     calbec       :    252.13s CPU    252.73s WALL (     752 calls)
     fft          :      7.33s CPU      8.00s WALL (     310 calls)
     fftw         :    536.67s CPU    626.88s WALL (  171212 calls)
 
     Parallel routines
     fft_scatter  :    171.94s CPU    261.67s WALL (  171522 calls)
 
     PWSCF        : 33m20.88s CPU    35m48.44s WALL

 
   This run was terminated on:   6: 0:30   4Nov2017            

=------------------------------------------------------------------------------=
   JOB DONE.
=------------------------------------------------------------------------------=
