
     Program PWSCF v.6.1 (svn rev. 13369) starts on  7Dec2017 at 10: 9:10 

     This program is part of the open-source Quantum ESPRESSO suite
     for quantum simulation of materials; please cite
         "P. Giannozzi et al., J. Phys.:Condens. Matter 21 395502 (2009);
          URL http://www.quantum-espresso.org", 
     in publications or presentations arising from this work. More details at
     http://www.quantum-espresso.org/quote

     Parallel version (MPI), running on     8 processors
     R & G space division:  proc/nbgrp/npool/nimage =       8
     Waiting for input...
     Reading input from standard input

     Current dimensions of program PWSCF are:
     Max number of different atomic species (ntypx) = 10
     Max number of k-points (npk) =  40000
     Max angular momentum in pseudopotentials (lmaxx) =  3
               file C.pbe-n-kjpaw_psl.0.1.UPF: wavefunction(s)  2P renormalized
               file N.pbe-n-kjpaw_psl.0.1.UPF: wavefunction(s)  2P renormalized
               file H.pbe-kjpaw_psl.0.1.UPF: wavefunction(s)  1S renormalized
               file O.pbe-n-kjpaw_psl.0.1.UPF: wavefunction(s)  2P renormalized

     -------------------------------------
     Parameters for Dispersion Correction:
     -------------------------------------
       atom      VdW radius       C_6     

        C          2.744         60.710
        N          2.640         42.670
        H          1.892          4.857
        O          2.536         24.284

     Subspace diagonalization in iterative solution of the eigenvalue problem:
     a serial algorithm will be used

 
     Parallelization info
     --------------------
     sticks:   dense  smooth     PW     G-vecs:    dense   smooth      PW
     Min        2398    2398    631               160840   160840   21777
     Max        2400    2400    632               160841   160841   21780
     Sum       19189   19189   5049              1286721  1286721  174219
 


     bravais-lattice index     =            0
     lattice parameter (alat)  =      24.5424  a.u.
     unit-cell volume          =    9524.6896 (a.u.)^3
     number of atoms/cell      =          168
     number of atomic types    =            4
     number of electrons       =       448.00
     number of Kohn-Sham states=          268
     kinetic-energy cutoff     =     100.0000  Ry
     charge density cutoff     =     400.0000  Ry
     convergence threshold     =      1.0E-08
     mixing beta               =       0.5000
     number of iterations used =            8  plain     mixing
     Exchange-correlation      =  SLA  PW   PBX  PBC ( 1  4  3  4 0 0)

     celldm(1)=  24.542440  celldm(2)=   0.000000  celldm(3)=   0.000000
     celldm(4)=   0.000000  celldm(5)=   0.000000  celldm(6)=   0.000000

     crystal axes: (cart. coord. in units of alat)
               a(1) = (   1.000000   0.000000   0.000000 )  
               a(2) = (   0.000000   1.000000   0.000000 )  
               a(3) = (   0.000000   0.000000   0.644314 )  

     reciprocal axes: (cart. coord. in units 2 pi/alat)
               b(1) = (  1.000000  0.000000  0.000000 )  
               b(2) = (  0.000000  1.000000  0.000000 )  
               b(3) = (  0.000000  0.000000  1.552038 )  


     PseudoPot. # 1 for  C read from file:
     /scratch/ahofstet/pseudo/C.pbe-n-kjpaw_psl.0.1.UPF
     MD5 check sum: 430fe95172b1e11ef3f8ed03bac87931
     Pseudo is Projector augmented-wave + core cor, Zval =  4.0
     Generated using "atomic" code by A. Dal Corso  v.5.0.99 svn rev. 10869
     Shape of augmentation charge: BESSEL
     Using radial grid of 1073 points,  4 beta functions with: 
                l(1) =   0
                l(2) =   0
                l(3) =   1
                l(4) =   1
     Q(r) pseudized with 0 coefficients 


     PseudoPot. # 2 for  N read from file:
     /scratch/ahofstet/pseudo/N.pbe-n-kjpaw_psl.0.1.UPF
     MD5 check sum: f73187c8b701007e77325f868c9291d7
     Pseudo is Projector augmented-wave + core cor, Zval =  5.0
     Generated using "atomic" code by A. Dal Corso  v.5.0.99 svn rev. 10869
     Shape of augmentation charge: PSQ
     Using radial grid of 1085 points,  4 beta functions with: 
                l(1) =   0
                l(2) =   0
                l(3) =   1
                l(4) =   1
     Q(r) pseudized with 0 coefficients 


     PseudoPot. # 3 for  H read from file:
     /scratch/ahofstet/pseudo/H.pbe-kjpaw_psl.0.1.UPF
     MD5 check sum: 94e484f906d9e9773b2f6e52662335b2
     Pseudo is Projector augmented-wave, Zval =  1.0
     Generated using "atomic" code by A. Dal Corso  v.5.0.99 svn rev. 10869
     Shape of augmentation charge: PSQ
     Using radial grid of  929 points,  2 beta functions with: 
                l(1) =   0
                l(2) =   0
     Q(r) pseudized with 0 coefficients 


     PseudoPot. # 4 for  O read from file:
     /scratch/ahofstet/pseudo/O.pbe-n-kjpaw_psl.0.1.UPF
     MD5 check sum: 3f94a2996a3169367d6eb21d9b593f20
     Pseudo is Projector augmented-wave + core cor, Zval =  6.0
     Generated using "atomic" code by A. Dal Corso  v.5.0.99 svn rev. 10869
     Shape of augmentation charge: BESSEL
     Using radial grid of 1095 points,  4 beta functions with: 
                l(1) =   0
                l(2) =   0
                l(3) =   1
                l(4) =   1
     Q(r) pseudized with 0 coefficients 


     atomic species   valence    mass     pseudopotential
        C              4.00    12.01070      C( 1.00)
        N              5.00    14.00670      N( 1.00)
        H              1.00     1.00794      H( 1.00)
        O              6.00    15.99940      O( 1.00)

      2 Sym. Ops. (no inversion) found



   Cartesian axes

     site n.     atom                  positions (alat units)
         1           O   tau(   1) = (   0.6459906   0.5178669   0.4270548  )
         2           O   tau(   2) = (   0.1460226   0.0178928   0.1048336  )
         3           O   tau(   3) = (   0.4821055   0.1460643   0.5881102  )
         4           O   tau(   4) = (   0.9821286   0.6459507   0.2659397  )
         5           O   tau(   5) = (   0.8539774   0.9821072   0.1048336  )
         6           O   tau(   6) = (   0.3540094   0.4821331   0.4270548  )
         7           O   tau(   7) = (   0.0178714   0.3540493   0.2659397  )
         8           O   tau(   8) = (   0.5178945   0.8539357   0.5881102  )
         9           C   tau(   9) = (   0.7496363   0.5131785   0.3904050  )
        10           C   tau(  10) = (   0.2496832   0.0131976   0.0682375  )
        11           C   tau(  11) = (   0.4868299   0.2497148   0.5514874  )
        12           C   tau(  12) = (   0.9867881   0.7496039   0.2293147  )
        13           C   tau(  13) = (   0.7503168   0.9868024   0.0682375  )
        14           C   tau(  14) = (   0.2503637   0.4868215   0.3904050  )
        15           C   tau(  15) = (   0.0132119   0.2503961   0.2293147  )
        16           C   tau(  16) = (   0.5131701   0.7502852   0.5514874  )
        17           C   tau(  17) = (   0.7531896   0.4865210   0.2746892  )
        18           C   tau(  18) = (   0.2532828   0.9865374   0.5968466  )
        19           C   tau(  19) = (   0.5134859   0.2532749   0.4357764  )
        20           C   tau(  20) = (   0.0134494   0.7531995   0.1136067  )
        21           C   tau(  21) = (   0.7467172   0.0134626   0.5968466  )
        22           C   tau(  22) = (   0.2468104   0.5134790   0.2746892  )
        23           C   tau(  23) = (   0.9865506   0.2468005   0.1136067  )
        24           C   tau(  24) = (   0.4865141   0.7467251   0.4357764  )
        25           O   tau(  25) = (   0.8569908   0.4825863   0.2379946  )
        26           O   tau(  26) = (   0.3570895   0.9826107   0.5601877  )
        27           O   tau(  27) = (   0.5174058   0.3570777   0.3990930  )
        28           O   tau(  28) = (   0.0173950   0.8570016   0.0769342  )
        29           O   tau(  29) = (   0.6429105   0.0173893   0.5601877  )
        30           O   tau(  30) = (   0.1430092   0.5174137   0.2379946  )
        31           O   tau(  31) = (   0.9826050   0.1429984   0.0769342  )
        32           O   tau(  32) = (   0.4825942   0.6429223   0.3990930  )
        33           C   tau(  33) = (   0.6893791   0.5607059   0.2091901  )
        34           C   tau(  34) = (   0.1894595   0.0606840   0.5313237  )
        35           C   tau(  35) = (   0.4393148   0.1894541   0.3702714  )
        36           C   tau(  36) = (   0.9392976   0.6893812   0.0480864  )
        37           C   tau(  37) = (   0.8105405   0.9393160   0.5313237  )
        38           C   tau(  38) = (   0.3106209   0.4392941   0.2091901  )
        39           C   tau(  39) = (   0.0607024   0.3106188   0.0480864  )
        40           C   tau(  40) = (   0.5606852   0.8105459   0.3702714  )
        41           O   tau(  41) = (   0.7318704   0.6622756   0.2079221  )
        42           O   tau(  42) = (   0.2319131   0.1622668   0.5300726  )
        43           O   tau(  43) = (   0.3377428   0.2319299   0.3690151  )
        44           O   tau(  44) = (   0.8377152   0.7318439   0.0468162  )
        45           O   tau(  45) = (   0.7680869   0.8377332   0.5300726  )
        46           O   tau(  46) = (   0.2681296   0.3377244   0.2079221  )
        47           O   tau(  47) = (   0.1622848   0.2681561   0.0468162  )
        48           O   tau(  48) = (   0.6622572   0.7680701   0.3690151  )
        49           C   tau(  49) = (   0.8127986   0.4365242   0.4556194  )
        50           C   tau(  50) = (   0.3128361   0.9365967   0.1335222  )
        51           C   tau(  51) = (   0.5634805   0.3128386   0.6167473  )
        52           C   tau(  52) = (   0.0633839   0.8128016   0.2945561  )
        53           C   tau(  53) = (   0.6871639   0.0634033   0.1335222  )
        54           C   tau(  54) = (   0.1872014   0.5634758   0.4556194  )
        55           C   tau(  55) = (   0.9366161   0.1871984   0.2945561  )
        56           C   tau(  56) = (   0.4365195   0.6871614   0.6167473  )
        57           O   tau(  57) = (   0.7649673   0.3367951   0.4525491  )
        58           O   tau(  58) = (   0.2650326   0.8368544   0.1304767  )
        59           O   tau(  59) = (   0.6632007   0.2649917   0.6136737  )
        60           O   tau(  60) = (   0.1631384   0.7650202   0.2915145  )
        61           O   tau(  61) = (   0.7349674   0.1631456   0.1304767  )
        62           O   tau(  62) = (   0.2350327   0.6632049   0.4525491  )
        63           O   tau(  63) = (   0.8368616   0.2349798   0.2915145  )
        64           O   tau(  64) = (   0.3367993   0.7350083   0.6136737  )
        65           C   tau(  65) = (   0.8204423   0.4705797   0.5671762  )
        66           C   tau(  66) = (   0.3203579   0.9707078   0.2450777  )
        67           C   tau(  67) = (   0.5294088   0.3203831   0.0839961  )
        68           C   tau(  68) = (   0.0292900   0.8204182   0.4061054  )
        69           C   tau(  69) = (   0.6796421   0.0292922   0.2450777  )
        70           C   tau(  70) = (   0.1795577   0.5294203   0.5671762  )
        71           C   tau(  71) = (   0.9707100   0.1795818   0.4061054  )
        72           C   tau(  72) = (   0.4705912   0.6796169   0.0839961  )
        73           H   tau(  73) = (   0.7823229   0.5907818   0.4011808  )
        74           H   tau(  74) = (   0.2823527   0.0908242   0.0790051  )
        75           H   tau(  75) = (   0.4092239   0.2824202   0.5622576  )
        76           H   tau(  76) = (   0.9091582   0.7822518   0.2400859  )
        77           H   tau(  77) = (   0.7176473   0.9091758   0.0790051  )
        78           H   tau(  78) = (   0.2176771   0.4092182   0.4011808  )
        79           H   tau(  79) = (   0.0908418   0.2177482   0.2400859  )
        80           H   tau(  80) = (   0.5907761   0.7175798   0.5622576  )
        81           H   tau(  81) = (   0.7214671   0.4084564   0.2643788  )
        82           H   tau(  82) = (   0.2215890   0.9084499   0.5865350  )
        83           H   tau(  83) = (   0.5915650   0.2215746   0.4254642  )
        84           H   tau(  84) = (   0.0915275   0.7214841   0.1033008  )
        85           H   tau(  85) = (   0.7784110   0.0915501   0.5865350  )
        86           H   tau(  86) = (   0.2785329   0.5915436   0.2643788  )
        87           H   tau(  87) = (   0.9084725   0.2785159   0.1033008  )
        88           H   tau(  88) = (   0.4084350   0.7784254   0.4254642  )
        89           H   tau(  89) = (   0.6893988   0.5330825   0.1291111  )
        90           H   tau(  90) = (   0.1895570   0.0330639   0.4512315  )
        91           H   tau(  91) = (   0.4669350   0.1895316   0.2901791  )
        92           H   tau(  92) = (   0.9669256   0.6894211   0.6123231  )
        93           H   tau(  93) = (   0.8104430   0.9669361   0.4512315  )
        94           H   tau(  94) = (   0.3106012   0.4669175   0.1291111  )
        95           H   tau(  95) = (   0.0330744   0.3105789   0.6123231  )
        96           H   tau(  96) = (   0.5330650   0.8104684   0.2901791  )
        97           H   tau(  97) = (   0.6094303   0.5621219   0.2375382  )
        98           H   tau(  98) = (   0.1095020   0.0620610   0.5596175  )
        99           H   tau(  99) = (   0.4379265   0.1095013   0.3985788  )
       100           H   tau( 100) = (   0.9378972   0.6094280   0.0764213  )
       101           H   tau( 101) = (   0.8904980   0.9379390   0.5596175  )
       102           H   tau( 102) = (   0.3905697   0.4378781   0.2375382  )
       103           H   tau( 103) = (   0.0621028   0.3905720   0.0764213  )
       104           H   tau( 104) = (   0.5620735   0.8904987   0.3985788  )
       105           H   tau( 105) = (   0.8904091   0.4311135   0.4216410  )
       106           H   tau( 106) = (   0.3904701   0.9311973   0.0996123  )
       107           H   tau( 107) = (   0.5689064   0.3904716   0.5828301  )
       108           H   tau( 108) = (   0.0687636   0.8904141   0.2605855  )
       109           H   tau( 109) = (   0.6095299   0.0688027   0.0996123  )
       110           H   tau( 110) = (   0.1095909   0.5688865   0.4216410  )
       111           H   tau( 111) = (   0.9312364   0.1095859   0.2605855  )
       112           H   tau( 112) = (   0.4310936   0.6095284   0.5828301  )
       113           H   tau( 113) = (   0.8650983   0.4147947   0.6123429  )
       114           H   tau( 114) = (   0.3650027   0.9149683   0.2903087  )
       115           H   tau( 115) = (   0.5851750   0.3650072   0.1292158  )
       116           H   tau( 116) = (   0.0850488   0.8650937   0.4512833  )
       117           H   tau( 117) = (   0.6349973   0.0850317   0.2903087  )
       118           H   tau( 118) = (   0.1349017   0.5852053   0.6123429  )
       119           H   tau( 119) = (   0.9149512   0.1349063   0.4512833  )
       120           H   tau( 120) = (   0.4148250   0.6349928   0.1292158  )
       121           H   tau( 121) = (   0.8580242   0.5460743   0.5721723  )
       122           H   tau( 122) = (   0.3578827   0.0462352   0.2500886  )
       123           H   tau( 123) = (   0.4538981   0.3579326   0.0890237  )
       124           H   tau( 124) = (   0.9537780   0.8579734   0.4110884  )
       125           H   tau( 125) = (   0.6421173   0.9537648   0.2500886  )
       126           H   tau( 126) = (   0.1419758   0.4539257   0.5721723  )
       127           H   tau( 127) = (   0.0462220   0.1420266   0.4110884  )
       128           H   tau( 128) = (   0.5461019   0.6420674   0.0890237  )
       129           H   tau( 129) = (   0.7433478   0.4773192   0.6016090  )
       130           H   tau( 130) = (   0.2432252   0.9774026   0.2794230  )
       131           H   tau( 131) = (   0.5226892   0.2432518   0.1183461  )
       132           H   tau( 132) = (   0.0225781   0.7433201   0.4405307  )
       133           H   tau( 133) = (   0.7567748   0.0225974   0.2794230  )
       134           H   tau( 134) = (   0.2566522   0.5226808   0.6016090  )
       135           H   tau( 135) = (   0.9774219   0.2566799   0.4405307  )
       136           H   tau( 136) = (   0.4773108   0.7567482   0.1183461  )
       137           H   tau( 137) = (   0.6119635   0.4495259   0.4182257  )
       138           H   tau( 138) = (   0.1120152   0.9495330   0.0960163  )
       139           H   tau( 139) = (   0.5504488   0.1120264   0.5792858  )
       140           H   tau( 140) = (   0.0504909   0.6119553   0.2571172  )
       141           H   tau( 141) = (   0.8879848   0.0504670   0.0960163  )
       142           H   tau( 142) = (   0.3880365   0.5504741   0.4182257  )
       143           H   tau( 143) = (   0.9495091   0.3880447   0.2571172  )
       144           H   tau( 144) = (   0.4495512   0.8879736   0.5792858  )
       145           H   tau( 145) = (   0.7902314   0.2970715   0.3915935  )
       146           H   tau( 146) = (   0.2902433   0.7971475   0.0694786  )
       147           H   tau( 147) = (   0.7029085   0.2902117   0.5526835  )
       148           H   tau( 148) = (   0.2028572   0.7902661   0.2305451  )
       149           H   tau( 149) = (   0.7097567   0.2028525   0.0694786  )
       150           H   tau( 150) = (   0.2097686   0.7029285   0.3915935  )
       151           H   tau( 151) = (   0.7971428   0.2097339   0.2305451  )
       152           H   tau( 152) = (   0.2970915   0.7097883   0.5526835  )
       153           H   tau( 153) = (   0.7073166   0.7019740   0.2690214  )
       154           H   tau( 154) = (   0.2073322   0.2019661   0.5911762  )
       155           H   tau( 155) = (   0.2980420   0.2073507   0.4301210  )
       156           H   tau( 156) = (   0.7980193   0.7072931   0.1079185  )
       157           H   tau( 157) = (   0.7926678   0.7980339   0.5911762  )
       158           H   tau( 158) = (   0.2926834   0.2980260   0.2690214  )
       159           H   tau( 159) = (   0.2019807   0.2927069   0.1079185  )
       160           H   tau( 160) = (   0.7019580   0.7926493   0.4301210  )
       161           H   tau( 161) = (   0.8904445   0.5511929   0.2467574  )
       162           H   tau( 162) = (   0.3905157   0.0512466   0.5689352  )
       163           H   tau( 163) = (   0.4487841   0.3905188   0.4078622  )
       164           H   tau( 164) = (   0.9487710   0.8904429   0.0856736  )
       165           H   tau( 165) = (   0.6094843   0.9487534   0.5689352  )
       166           H   tau( 166) = (   0.1095555   0.4488071   0.2467574  )
       167           H   tau( 167) = (   0.0512290   0.1095571   0.0856736  )
       168           H   tau( 168) = (   0.5512159   0.6094812   0.4078622  )

     number of k points=     8
                       cart. coord. in units 2pi/alat
        k(    1) = (   0.0000000   0.0000000   0.0000000), wk =   0.2500000
        k(    2) = (   0.0000000   0.0000000  -0.7760191), wk =   0.2500000
        k(    3) = (   0.0000000  -0.5000000   0.0000000), wk =   0.2500000
        k(    4) = (   0.0000000  -0.5000000  -0.7760191), wk =   0.2500000
        k(    5) = (  -0.5000000  -0.5000000   0.0000000), wk =   0.2500000
        k(    6) = (  -0.5000000  -0.5000000  -0.7760191), wk =   0.2500000
        k(    7) = (  -0.5000000   0.0000000   0.0000000), wk =   0.2500000
        k(    8) = (  -0.5000000   0.0000000   0.7760191), wk =   0.2500000

     Dense  grid:  1286721 G-vectors     FFT dimensions: ( 160, 160, 108)

     Estimated max dynamical RAM per process >    1767.89MB

     Estimated total allocated dynamical RAM >   14143.14MB

     Check: negative/imaginary core charge=   -0.000002    0.000000

     Initial potential from superposition of free atoms

     starting charge  447.99737, renormalised to  448.00000
     Starting wfc are  384 randomized atomic wfcs
     Checking if some PAW data can be deallocated... 

     total cpu time spent up to now is      120.1 secs

     per-process dynamical memory:  1144.9 Mb

     Self-consistent Calculation

     iteration #  1     ecut=   100.00 Ry     beta=0.50
     Davidson diagonalization with overlap
     ethr =  1.00E-02,  avg # of iterations =  4.0

     total cpu time spent up to now is      534.7 secs

     total energy              =   -2182.64426187 Ry
     Harris-Foulkes estimate   =   -2190.48712390 Ry
     estimated scf accuracy    <      15.09216829 Ry

     iteration #  2     ecut=   100.00 Ry     beta=0.50
     Davidson diagonalization with overlap
     ethr =  3.37E-03,  avg # of iterations =  3.2

     total cpu time spent up to now is      793.7 secs

     total energy              =   -2185.04611429 Ry
     Harris-Foulkes estimate   =   -2185.57109629 Ry
     estimated scf accuracy    <       1.40564006 Ry

     iteration #  3     ecut=   100.00 Ry     beta=0.50
     Davidson diagonalization with overlap
     ethr =  3.14E-04,  avg # of iterations =  7.8

     total cpu time spent up to now is     1192.4 secs

     total energy              =   -2185.35208344 Ry
     Harris-Foulkes estimate   =   -2185.46050666 Ry
     estimated scf accuracy    <       0.31613336 Ry

     iteration #  4     ecut=   100.00 Ry     beta=0.50
     Davidson diagonalization with overlap
     ethr =  7.06E-05,  avg # of iterations =  2.6

     total cpu time spent up to now is     1396.6 secs

     total energy              =   -2185.36341495 Ry
     Harris-Foulkes estimate   =   -2185.37314459 Ry
     estimated scf accuracy    <       0.03919508 Ry

     iteration #  5     ecut=   100.00 Ry     beta=0.50
     Davidson diagonalization with overlap
     ethr =  8.75E-06,  avg # of iterations =  5.4

     total cpu time spent up to now is     1849.2 secs

     total energy              =   -2185.38405161 Ry
     Harris-Foulkes estimate   =   -2185.39863036 Ry
     estimated scf accuracy    <       0.04211038 Ry

     iteration #  6     ecut=   100.00 Ry     beta=0.50
     Davidson diagonalization with overlap
     ethr =  8.75E-06,  avg # of iterations =  1.0

     total cpu time spent up to now is     2046.1 secs

     total energy              =   -2185.37618985 Ry
     Harris-Foulkes estimate   =   -2185.38548403 Ry
     estimated scf accuracy    <       0.01515336 Ry

     iteration #  7     ecut=   100.00 Ry     beta=0.50
     Davidson diagonalization with overlap
     ethr =  3.38E-06,  avg # of iterations =  5.6

     total cpu time spent up to now is     2478.9 secs

     total energy              =   -2185.38400011 Ry
     Harris-Foulkes estimate   =   -2185.38749369 Ry
     estimated scf accuracy    <       0.00723455 Ry

     iteration #  8     ecut=   100.00 Ry     beta=0.50
     Davidson diagonalization with overlap
     ethr =  1.61E-06,  avg # of iterations =  2.0

     total cpu time spent up to now is     2678.1 secs

     total energy              =   -2185.38391096 Ry
     Harris-Foulkes estimate   =   -2185.38456515 Ry
     estimated scf accuracy    <       0.00108050 Ry

     iteration #  9     ecut=   100.00 Ry     beta=0.50
     Davidson diagonalization with overlap
     ethr =  2.41E-07,  avg # of iterations =  4.0

     total cpu time spent up to now is     3079.0 secs

     total energy              =   -2185.38520504 Ry
     Harris-Foulkes estimate   =   -2185.38575398 Ry
     estimated scf accuracy    <       0.00157838 Ry

     iteration # 10     ecut=   100.00 Ry     beta=0.50
     Davidson diagonalization with overlap
     ethr =  2.41E-07,  avg # of iterations =  1.0

     total cpu time spent up to now is     3275.2 secs

     total energy              =   -2185.38496995 Ry
     Harris-Foulkes estimate   =   -2185.38525644 Ry
     estimated scf accuracy    <       0.00055649 Ry

     iteration # 11     ecut=   100.00 Ry     beta=0.50
     Davidson diagonalization with overlap
     ethr =  1.24E-07,  avg # of iterations =  3.1

     total cpu time spent up to now is     3627.9 secs

     total energy              =   -2185.38526883 Ry
     Harris-Foulkes estimate   =   -2185.38529051 Ry
     estimated scf accuracy    <       0.00009532 Ry

     iteration # 12     ecut=   100.00 Ry     beta=0.50
     Davidson diagonalization with overlap
     ethr =  2.13E-08,  avg # of iterations =  1.0

     total cpu time spent up to now is     3820.8 secs

     total energy              =   -2185.38524355 Ry
     Harris-Foulkes estimate   =   -2185.38527054 Ry
     estimated scf accuracy    <       0.00005350 Ry

     iteration # 13     ecut=   100.00 Ry     beta=0.50
     Davidson diagonalization with overlap
     ethr =  1.19E-08,  avg # of iterations =  3.0

     total cpu time spent up to now is     4118.2 secs

     total energy              =   -2185.38526131 Ry
     Harris-Foulkes estimate   =   -2185.38526181 Ry
     estimated scf accuracy    <       0.00000210 Ry

     iteration # 14     ecut=   100.00 Ry     beta=0.50
     Davidson diagonalization with overlap
     ethr =  4.68E-10,  avg # of iterations =  2.6

     total cpu time spent up to now is     4341.7 secs

     total energy              =   -2185.38526099 Ry
     Harris-Foulkes estimate   =   -2185.38526154 Ry
     estimated scf accuracy    <       0.00000116 Ry

     iteration # 15     ecut=   100.00 Ry     beta=0.50
     Davidson diagonalization with overlap
     ethr =  2.58E-10,  avg # of iterations =  3.9

     total cpu time spent up to now is     4609.7 secs

     total energy              =   -2185.38526130 Ry
     Harris-Foulkes estimate   =   -2185.38526131 Ry
     estimated scf accuracy    <       0.00000004 Ry

     iteration # 16     ecut=   100.00 Ry     beta=0.50
     Davidson diagonalization with overlap
     ethr =  8.73E-12,  avg # of iterations =  3.9

     total cpu time spent up to now is     4948.3 secs

     total energy              =   -2185.38526131 Ry
     Harris-Foulkes estimate   =   -2185.38526131 Ry
     estimated scf accuracy    <       0.00000002 Ry

     iteration # 17     ecut=   100.00 Ry     beta=0.50
     Davidson diagonalization with overlap
     ethr =  3.72E-12,  avg # of iterations =  3.0

     total cpu time spent up to now is     5156.8 secs

     End of self-consistent calculation

          k = 0.0000 0.0000 0.0000 (160843 PWs)   bands (ev):

   -20.3851 -20.1927 -20.1796 -20.1796 -20.1743 -20.0691 -20.0691 -20.0033
   -19.8804 -19.7641 -19.7597 -19.7597 -19.7567 -19.7378 -19.7288 -19.7288
   -19.6537 -19.4374 -19.4305 -19.4256 -19.4256 -19.3391 -19.3391 -19.2888
   -19.2888 -19.1544 -19.1382 -19.1382 -19.1087 -19.1063 -19.0095 -18.9387
   -13.4416 -13.3150 -13.3004 -13.3004 -13.2933 -13.2932 -13.2462 -13.1361
   -12.5968 -12.5738 -12.5738 -12.5681 -12.5599 -12.5599 -12.5359 -12.5168
   -11.1498 -11.0981 -11.0119 -11.0118 -11.0060 -11.0060 -10.9160 -10.9026
    -9.3018  -9.2942  -9.2941  -9.2785  -9.2232  -9.2231  -9.2230  -9.1854
    -8.8731  -8.8441  -8.8120  -8.8119  -8.7629  -8.7628  -8.6439  -8.5799
    -7.7613  -7.7003  -7.5696  -7.4499  -7.3221  -7.3221  -7.2204  -7.2204
    -7.1143  -7.1054  -7.1053  -7.1047  -7.1046  -6.9957  -6.9807  -6.9408
    -6.8943  -6.7214  -6.7213  -6.6668  -6.6137  -6.5203  -6.5202  -6.4006
    -6.2666  -6.2264  -6.2264  -6.1836  -6.1710  -6.1634  -6.1634  -6.1432
    -6.0239  -5.8200  -5.6204  -5.6203  -5.5700  -5.5700  -5.5013  -5.4470
    -5.3215  -5.3214  -5.2912  -5.2911  -5.2585  -5.2007  -5.0705  -4.8934
    -4.7145  -4.6133  -4.6098  -4.6098  -4.5873  -4.5427  -4.5427  -4.4375
    -4.2805  -4.2471  -4.1964  -4.1786  -4.1786  -4.1423  -4.1164  -4.1164
    -4.0417  -3.8995  -3.8518  -3.8411  -3.8411  -3.7558  -3.7558  -3.7304
    -3.5773  -3.5429  -3.5399  -3.5398  -3.5369  -3.4743  -3.4254  -3.4254
    -3.3945  -3.3349  -3.3349  -3.3012  -3.2299  -3.2181  -3.2181  -3.0660
    -3.0285  -2.9209  -2.9209  -2.9030  -2.8859  -2.8859  -2.7951  -2.7715
    -2.7464  -2.6828  -2.6463  -2.3765  -2.3764  -2.3250  -2.3250  -2.3162
    -2.2076  -2.2075  -2.1455  -2.1455  -2.0472  -2.0013  -1.8804  -1.7729
    -1.7729  -1.6986  -1.6373  -1.6372  -1.5604  -1.5424  -1.5190  -1.4329
    -1.4032  -1.4032  -1.3929  -1.3929  -1.3024  -1.2418  -1.1846  -1.0978
    -1.0499  -1.0067  -0.9823  -0.9823  -0.9771  -0.9770  -0.9186  -0.8067
    -0.7241  -0.6181  -0.6180  -0.6016  -0.5797  -0.5797  -0.5405  -0.4187
    -0.0114   0.0072   0.0072   0.0243   0.0263   0.0280   0.0280   0.0480
     5.3332   5.6671   5.7086   5.7086   5.9608   6.0116   6.0768   6.3541
     6.3542   6.3601   6.4150   6.4150   6.6593   6.6593   6.6757   6.6766
     6.9535   7.0169   7.0558   7.1114   7.1364   7.1365   7.3812   7.4487
     7.4488   7.4527   7.7411   7.7411   7.8096   7.8097   7.8227   7.8228
     7.9764   8.1132   8.2008   8.2429   8.2429   8.2659   8.3589   8.3798
     8.4689   8.4690   8.5040   8.5040

          k = 0.0000 0.0000-0.7760 (160810 PWs)   bands (ev):

   -20.3242 -20.3242 -20.1366 -20.1364 -20.1227 -20.1227 -20.0073 -20.0071
   -19.9161 -19.9160 -19.7664 -19.7661 -19.7443 -19.7440 -19.6786 -19.6781
   -19.5888 -19.5886 -19.4189 -19.4187 -19.4021 -19.4018 -19.2460 -19.2456
   -19.1889 -19.1884 -19.1294 -19.1287 -19.1043 -19.1040 -19.0237 -19.0233
   -13.3831 -13.3826 -13.3063 -13.3057 -13.2616 -13.2613 -13.2070 -13.2066
   -12.6673 -12.6669 -12.5845 -12.5842 -12.5629 -12.5625 -12.4850 -12.4846
   -11.0045 -11.0043 -10.9979 -10.9975 -10.9626 -10.9623 -10.9232 -10.9229
    -9.3605  -9.3601  -9.2884  -9.2881  -9.2664  -9.2661  -9.2309  -9.2306
    -8.8808  -8.8806  -8.8321  -8.8315  -8.7080  -8.7076  -8.6882  -8.6881
    -7.5987  -7.5985  -7.4796  -7.4792  -7.3977  -7.3975  -7.2548  -7.2546
    -7.1827  -7.1825  -6.9931  -6.9929  -6.9926  -6.9925  -6.9883  -6.9880
    -6.9495  -6.9494  -6.6785  -6.6783  -6.5779  -6.5775  -6.4543  -6.4539
    -6.2763  -6.2761  -6.1975  -6.1972  -6.1216  -6.1212  -6.0970  -6.0965
    -5.9424  -5.9421  -5.7366  -5.7364  -5.5700  -5.5699  -5.4375  -5.4372
    -5.3054  -5.3049  -5.2795  -5.2789  -5.1017  -5.1011  -5.0840  -5.0838
    -4.7662  -4.7658  -4.6539  -4.6534  -4.5974  -4.5972  -4.3610  -4.3609
    -4.2329  -4.2325  -4.1707  -4.1705  -4.1122  -4.1119  -4.0828  -4.0824
    -3.9605  -3.9602  -3.9535  -3.9530  -3.8233  -3.8229  -3.6933  -3.6930
    -3.6732  -3.6730  -3.5178  -3.5175  -3.4079  -3.4076  -3.4005  -3.4001
    -3.3717  -3.3715  -3.2916  -3.2913  -3.2419  -3.2417  -3.0703  -3.0699
    -2.9221  -2.9218  -2.8900  -2.8893  -2.8285  -2.8281  -2.8279  -2.8275
    -2.6386  -2.6381  -2.6324  -2.6321  -2.4825  -2.4824  -2.4578  -2.4574
    -2.0148  -2.0146  -1.9325  -1.9319  -1.8705  -1.8702  -1.8369  -1.8365
    -1.6950  -1.6947  -1.6940  -1.6937  -1.6442  -1.6438  -1.4865  -1.4857
    -1.4111  -1.4108  -1.3807  -1.3805  -1.3399  -1.3395  -1.2902  -1.2898
    -1.0204  -1.0202  -1.0195  -1.0193  -0.9346  -0.9344  -0.8500  -0.8497
    -0.7046  -0.7044  -0.6052  -0.6048  -0.5546  -0.5543  -0.4794  -0.4791
    -0.0254  -0.0253  -0.0156  -0.0153   0.0016   0.0019   0.0272   0.0277
     5.4385   5.4386   5.9559   5.9563   5.9830   5.9835   6.1689   6.1691
     6.1961   6.1971   6.3934   6.3936   6.5686   6.5689   6.8543   6.8549
     6.9331   6.9334   7.1186   7.1193   7.2150   7.2155   7.2836   7.2841
     7.5198   7.5204   7.6389   7.6397   7.7252   7.7256   7.7994   7.7998
     7.8204   7.8209   8.1540   8.1543   8.2926   8.2933   8.3648   8.3653
     8.3758   8.3770   8.3982   8.3984

          k = 0.0000-0.5000 0.0000 (160850 PWs)   bands (ev):

   -20.3317 -20.3317 -20.1474 -20.1472 -20.1369 -20.1368 -19.9667 -19.9665
   -19.8798 -19.8796 -19.7789 -19.7787 -19.7562 -19.7559 -19.7222 -19.7219
   -19.5407 -19.5405 -19.4007 -19.4007 -19.3562 -19.3561 -19.3343 -19.3342
   -19.2463 -19.2463 -19.1287 -19.1284 -19.1016 -19.1013 -18.9685 -18.9683
   -13.3997 -13.3996 -13.2969 -13.2968 -13.2899 -13.2897 -13.1768 -13.1767
   -12.5884 -12.5883 -12.5668 -12.5668 -12.5615 -12.5615 -12.5261 -12.5260
   -11.1236 -11.1236 -11.0136 -11.0136 -11.0089 -11.0088 -10.9048 -10.9048
    -9.3036  -9.3036  -9.2780  -9.2779  -9.2441  -9.2439  -9.1832  -9.1832
    -8.8640  -8.8640  -8.7985  -8.7983  -8.7849  -8.7845  -8.6011  -8.6011
    -7.7319  -7.7318  -7.5338  -7.5338  -7.2835  -7.2834  -7.2118  -7.2117
    -7.1400  -7.1400  -7.1038  -7.1036  -7.0145  -7.0140  -6.9542  -6.9539
    -6.9052  -6.9051  -6.6400  -6.6398  -6.5958  -6.5956  -6.4284  -6.4283
    -6.2535  -6.2532  -6.1942  -6.1940  -6.1744  -6.1741  -6.1353  -6.1352
    -5.9307  -5.9306  -5.6358  -5.6358  -5.5918  -5.5916  -5.4144  -5.4142
    -5.3648  -5.3647  -5.3062  -5.3059  -5.2044  -5.2043  -4.9759  -4.9758
    -4.7022  -4.7018  -4.6380  -4.6379  -4.5243  -4.5242  -4.4407  -4.4406
    -4.2711  -4.2709  -4.2017  -4.2015  -4.1570  -4.1569  -4.1199  -4.1198
    -3.9602  -3.9602  -3.8801  -3.8801  -3.7965  -3.7964  -3.7358  -3.7358
    -3.5588  -3.5588  -3.5427  -3.5425  -3.5005  -3.5001  -3.4410  -3.4405
    -3.3397  -3.3396  -3.3281  -3.3278  -3.2417  -3.2412  -3.1182  -3.1181
    -3.0003  -3.0001  -2.9151  -2.9150  -2.8228  -2.8227  -2.7993  -2.7991
    -2.7193  -2.7190  -2.5286  -2.5283  -2.3480  -2.3479  -2.3134  -2.3134
    -2.2357  -2.2356  -2.1599  -2.1598  -1.9949  -1.9946  -1.8524  -1.8520
    -1.6902  -1.6901  -1.6223  -1.6223  -1.5790  -1.5786  -1.4690  -1.4690
    -1.4107  -1.4103  -1.4037  -1.4036  -1.2699  -1.2698  -1.1375  -1.1375
    -1.0469  -1.0467  -0.9812  -0.9812  -0.9708  -0.9708  -0.8312  -0.8310
    -0.7154  -0.7154  -0.6021  -0.6019  -0.5820  -0.5820  -0.4540  -0.4538
    -0.0001   0.0000   0.0148   0.0151   0.0189   0.0189   0.0438   0.0440
     5.4450   5.4453   5.8302   5.8309   5.9099   5.9103   6.1314   6.1316
     6.3886   6.3897   6.4970   6.4972   6.6198   6.6199   6.7025   6.7029
     6.9030   6.9032   7.0668   7.0670   7.2307   7.2312   7.3536   7.3538
     7.5129   7.5131   7.7203   7.7208   7.8244   7.8244   7.9607   7.9608
     8.0444   8.0449   8.1816   8.1821   8.2184   8.2190   8.4275   8.4277
     8.4704   8.4708   8.5242   8.5244

          k = 0.0000-0.5000-0.7760 (160832 PWs)   bands (ev):

   -20.3138 -20.3138 -20.1777 -20.1776 -20.1289 -20.1287 -19.9195 -19.9195
   -19.8993 -19.8993 -19.8484 -19.8483 -19.7317 -19.7317 -19.7042 -19.7041
   -19.5745 -19.5744 -19.4169 -19.4168 -19.3710 -19.3710 -19.2391 -19.2389
   -19.2181 -19.2179 -19.1510 -19.1508 -19.0757 -19.0756 -19.0270 -19.0266
   -13.3797 -13.3795 -13.3097 -13.3095 -13.2648 -13.2648 -13.2034 -13.2032
   -12.6663 -12.6663 -12.5845 -12.5844 -12.5628 -12.5627 -12.4852 -12.4851
   -11.0087 -11.0086 -10.9944 -10.9942 -10.9577 -10.9576 -10.9270 -10.9270
    -9.3542  -9.3540  -9.3038  -9.3036  -9.2526  -9.2524  -9.2356  -9.2354
    -8.8822  -8.8821  -8.8325  -8.8321  -8.7085  -8.7082  -8.6851  -8.6849
    -7.5722  -7.5722  -7.5164  -7.5163  -7.4007  -7.4006  -7.2741  -7.2740
    -7.1257  -7.1255  -7.0478  -7.0475  -6.9890  -6.9885  -6.9813  -6.9811
    -6.9013  -6.9011  -6.6997  -6.6995  -6.6081  -6.6080  -6.4173  -6.4173
    -6.2778  -6.2775  -6.2249  -6.2246  -6.1632  -6.1627  -6.0773  -6.0770
    -5.8976  -5.8971  -5.7306  -5.7305  -5.5583  -5.5582  -5.4407  -5.4404
    -5.3189  -5.3182  -5.3008  -5.3001  -5.1121  -5.1117  -5.0733  -5.0731
    -4.7466  -4.7461  -4.6848  -4.6847  -4.5392  -4.5390  -4.4033  -4.4033
    -4.2134  -4.2132  -4.2108  -4.2106  -4.0811  -4.0808  -4.0639  -4.0637
    -4.0066  -4.0063  -3.9039  -3.9037  -3.8118  -3.8116  -3.7116  -3.7114
    -3.6988  -3.6986  -3.5207  -3.5205  -3.4646  -3.4642  -3.4349  -3.4347
    -3.2812  -3.2812  -3.2642  -3.2638  -3.2438  -3.2438  -3.0821  -3.0820
    -2.9388  -2.9385  -2.9000  -2.8998  -2.8318  -2.8315  -2.7611  -2.7608
    -2.6469  -2.6469  -2.6235  -2.6230  -2.5175  -2.5174  -2.4495  -2.4494
    -2.0836  -2.0831  -1.9693  -1.9690  -1.8135  -1.8133  -1.7558  -1.7554
    -1.7180  -1.7177  -1.6801  -1.6800  -1.6690  -1.6688  -1.4890  -1.4884
    -1.4074  -1.4072  -1.3941  -1.3939  -1.3297  -1.3294  -1.2970  -1.2966
    -1.0308  -1.0305  -1.0144  -1.0143  -0.9311  -0.9309  -0.8559  -0.8559
    -0.7036  -0.7036  -0.5972  -0.5972  -0.5497  -0.5495  -0.4889  -0.4887
    -0.0304  -0.0304  -0.0118  -0.0115   0.0037   0.0040   0.0283   0.0287
     5.4874   5.4876   5.7728   5.7732   6.0805   6.0809   6.2116   6.2121
     6.2494   6.2498   6.3850   6.3854   6.4869   6.4870   6.8697   6.8699
     6.8824   6.8825   7.1536   7.1540   7.2353   7.2356   7.4342   7.4342
     7.5168   7.5173   7.5386   7.5388   7.7095   7.7096   7.8162   7.8166
     7.9903   7.9905   7.9993   7.9993   8.1530   8.1532   8.3078   8.3080
     8.3639   8.3645   8.4181   8.4189

          k =-0.5000-0.5000 0.0000 (160856 PWs)   bands (ev):

   -20.2848 -20.2848 -20.2778 -20.2778 -19.9773 -19.9773 -19.9689 -19.9689
   -19.9081 -19.9080 -19.8820 -19.8820 -19.7260 -19.7259 -19.7117 -19.7116
   -19.4887 -19.4887 -19.4515 -19.4515 -19.3523 -19.3522 -19.3054 -19.3054
   -19.2182 -19.2182 -19.2144 -19.2144 -19.0512 -19.0512 -18.9776 -18.9776
   -13.3794 -13.3794 -13.3558 -13.3558 -13.2373 -13.2373 -13.1905 -13.1905
   -12.5826 -12.5826 -12.5775 -12.5774 -12.5561 -12.5561 -12.5267 -12.5267
   -11.1178 -11.1178 -11.0329 -11.0329 -10.9983 -10.9983 -10.9015 -10.9015
    -9.3148  -9.3148  -9.2802  -9.2802  -9.2231  -9.2230  -9.1866  -9.1866
    -8.8563  -8.8562  -8.8207  -8.8206  -8.7847  -8.7847  -8.5906  -8.5906
    -7.7134  -7.7134  -7.5792  -7.5792  -7.2206  -7.2206  -7.2070  -7.2069
    -7.1442  -7.1442  -7.1193  -7.1193  -7.0212  -7.0212  -6.9617  -6.9617
    -6.8528  -6.8528  -6.8089  -6.8089  -6.4783  -6.4782  -6.3811  -6.3811
    -6.3270  -6.3270  -6.2343  -6.2342  -6.1172  -6.1172  -6.1079  -6.1079
    -5.9175  -5.9175  -5.7445  -5.7445  -5.5291  -5.5291  -5.4140  -5.4140
    -5.3636  -5.3636  -5.2938  -5.2938  -5.1924  -5.1924  -4.9826  -4.9826
    -4.6936  -4.6936  -4.6924  -4.6924  -4.4731  -4.4731  -4.4299  -4.4299
    -4.2706  -4.2705  -4.2539  -4.2539  -4.1682  -4.1682  -4.1194  -4.1194
    -3.9366  -3.9366  -3.9065  -3.9064  -3.7621  -3.7620  -3.6746  -3.6746
    -3.6267  -3.6267  -3.5630  -3.5630  -3.4590  -3.4589  -3.4041  -3.4041
    -3.3679  -3.3679  -3.2999  -3.2999  -3.2894  -3.2893  -3.1196  -3.1196
    -3.0066  -3.0066  -2.9552  -2.9551  -2.7843  -2.7843  -2.7531  -2.7531
    -2.6417  -2.6416  -2.6409  -2.6409  -2.3484  -2.3484  -2.3085  -2.3084
    -2.2762  -2.2762  -2.1455  -2.1455  -1.9508  -1.9508  -1.9007  -1.9007
    -1.6227  -1.6226  -1.6082  -1.6082  -1.5895  -1.5895  -1.5341  -1.5341
    -1.4121  -1.4121  -1.3826  -1.3826  -1.2738  -1.2738  -1.1404  -1.1404
    -1.0540  -1.0539  -0.9995  -0.9995  -0.9197  -0.9197  -0.8527  -0.8527
    -0.7069  -0.7069  -0.6513  -0.6513  -0.5112  -0.5112  -0.4799  -0.4799
    -0.0012  -0.0012   0.0051   0.0051   0.0329   0.0329   0.0404   0.0404
     5.5264   5.5264   5.6488   5.6488   6.0494   6.0494   6.2299   6.2299
     6.2892   6.2892   6.4445   6.4445   6.4954   6.4954   6.6266   6.6266
     6.9932   6.9932   7.1358   7.1358   7.4040   7.4041   7.4070   7.4070
     7.5098   7.5099   7.7768   7.7768   7.8592   7.8593   7.9362   7.9362
     8.0212   8.0213   8.0680   8.0680   8.2753   8.2754   8.3118   8.3119
     8.3414   8.3414   8.4865   8.4865

          k =-0.5000-0.5000-0.7760 (160848 PWs)   bands (ev):

   -20.2701 -20.2701 -20.2701 -20.2701 -20.0222 -20.0222 -20.0220 -20.0220
   -19.8060 -19.8060 -19.8057 -19.8057 -19.7798 -19.7798 -19.7797 -19.7796
   -19.5000 -19.5000 -19.5000 -19.4999 -19.2756 -19.2754 -19.2752 -19.2750
   -19.2027 -19.2026 -19.2024 -19.2023 -19.0428 -19.0425 -19.0424 -19.0420
   -13.3538 -13.3536 -13.3533 -13.3532 -13.2256 -13.2255 -13.2253 -13.2251
   -12.6388 -12.6387 -12.6384 -12.6384 -12.5107 -12.5107 -12.5104 -12.5103
   -11.0034 -11.0034 -11.0031 -11.0031 -10.9407 -10.9407 -10.9404 -10.9404
    -9.3322  -9.3320  -9.3320  -9.3318  -9.2415  -9.2414  -9.2412  -9.2410
    -8.8602  -8.8600  -8.8599  -8.8596  -8.6938  -8.6937  -8.6936  -8.6935
    -7.5382  -7.5381  -7.5379  -7.5379  -7.3622  -7.3622  -7.3621  -7.3621
    -7.0724  -7.0723  -7.0722  -7.0720  -6.9808  -6.9806  -6.9803  -6.9801
    -6.8194  -6.8194  -6.8192  -6.8192  -6.5087  -6.5085  -6.5083  -6.5082
    -6.2480  -6.2479  -6.2476  -6.2476  -6.1184  -6.1181  -6.1180  -6.1177
    -5.8111  -5.8111  -5.8107  -5.8107  -5.4819  -5.4819  -5.4814  -5.4814
    -5.3257  -5.3255  -5.3249  -5.3247  -5.0944  -5.0944  -5.0939  -5.0938
    -4.7127  -4.7125  -4.7122  -4.7120  -4.4760  -4.4759  -4.4757  -4.4757
    -4.2049  -4.2049  -4.2047  -4.2045  -4.0780  -4.0780  -4.0777  -4.0777
    -3.9540  -3.9539  -3.9537  -3.9536  -3.7617  -3.7615  -3.7614  -3.7613
    -3.6196  -3.6196  -3.6193  -3.6193  -3.4654  -3.4652  -3.4650  -3.4647
    -3.2601  -3.2599  -3.2597  -3.2595  -3.1540  -3.1539  -3.1537  -3.1536
    -2.9089  -2.9088  -2.9086  -2.9085  -2.7841  -2.7841  -2.7840  -2.7840
    -2.6408  -2.6408  -2.6405  -2.6404  -2.4910  -2.4909  -2.4907  -2.4906
    -2.0589  -2.0586  -2.0584  -2.0581  -1.7542  -1.7541  -1.7538  -1.7537
    -1.7187  -1.7185  -1.7182  -1.7180  -1.5551  -1.5549  -1.5546  -1.5544
    -1.4052  -1.4052  -1.4049  -1.4048  -1.3148  -1.3148  -1.3145  -1.3144
    -1.0283  -1.0283  -1.0282  -1.0281  -0.8914  -0.8914  -0.8911  -0.8911
    -0.6613  -0.6612  -0.6611  -0.6609  -0.5062  -0.5060  -0.5059  -0.5057
    -0.0219  -0.0219  -0.0217  -0.0217   0.0176   0.0177   0.0180   0.0181
     5.6560   5.6560   5.6564   5.6564   5.9782   5.9790   5.9792   5.9799
     6.4653   6.4653   6.4656   6.4656   6.6339   6.6340   6.6343   6.6344
     7.0305   7.0306   7.0308   7.0308   7.3619   7.3620   7.3623   7.3624
     7.5959   7.5959   7.5961   7.5961   7.8045   7.8048   7.8050   7.8053
     7.9370   7.9370   7.9375   7.9376   8.1179   8.1183   8.1185   8.1190
     8.4029   8.4030   8.4037   8.4039

          k =-0.5000 0.0000 0.0000 (160850 PWs)   bands (ev):

   -20.3318 -20.3317 -20.1473 -20.1473 -20.1369 -20.1368 -19.9667 -19.9665
   -19.8797 -19.8797 -19.7789 -19.7787 -19.7561 -19.7560 -19.7222 -19.7219
   -19.5406 -19.5406 -19.4007 -19.4006 -19.3563 -19.3561 -19.3344 -19.3341
   -19.2463 -19.2463 -19.1289 -19.1282 -19.1015 -19.1014 -18.9685 -18.9683
   -13.3999 -13.3994 -13.2969 -13.2969 -13.2901 -13.2893 -13.1769 -13.1766
   -12.5885 -12.5882 -12.5669 -12.5668 -12.5617 -12.5612 -12.5261 -12.5260
   -11.1237 -11.1235 -11.0136 -11.0135 -11.0089 -11.0089 -10.9048 -10.9048
    -9.3037  -9.3035  -9.2780  -9.2779  -9.2442  -9.2439  -9.1834  -9.1830
    -8.8640  -8.8640  -8.7986  -8.7982  -8.7847  -8.7847  -8.6011  -8.6010
    -7.7319  -7.7318  -7.5338  -7.5338  -7.2835  -7.2834  -7.2118  -7.2116
    -7.1401  -7.1400  -7.1037  -7.1036  -7.0144  -7.0141  -6.9540  -6.9540
    -6.9052  -6.9050  -6.6401  -6.6398  -6.5958  -6.5956  -6.4284  -6.4283
    -6.2534  -6.2532  -6.1941  -6.1940  -6.1743  -6.1743  -6.1354  -6.1350
    -5.9307  -5.9306  -5.6358  -5.6357  -5.5918  -5.5917  -5.4145  -5.4141
    -5.3651  -5.3645  -5.3060  -5.3060  -5.2045  -5.2042  -4.9759  -4.9758
    -4.7021  -4.7019  -4.6380  -4.6378  -4.5244  -4.5241  -4.4407  -4.4406
    -4.2710  -4.2710  -4.2017  -4.2014  -4.1570  -4.1568  -4.1199  -4.1198
    -3.9604  -3.9600  -3.8801  -3.8801  -3.7966  -3.7965  -3.7359  -3.7357
    -3.5590  -3.5586  -3.5426  -3.5426  -3.5004  -3.5003  -3.4407  -3.4407
    -3.3399  -3.3395  -3.3280  -3.3278  -3.2415  -3.2413  -3.1183  -3.1180
    -3.0004  -3.0001  -2.9151  -2.9149  -2.8228  -2.8227  -2.7992  -2.7992
    -2.7191  -2.7191  -2.5285  -2.5285  -2.3480  -2.3480  -2.3134  -2.3133
    -2.2356  -2.2355  -2.1599  -2.1599  -1.9950  -1.9945  -1.8524  -1.8520
    -1.6902  -1.6901  -1.6223  -1.6223  -1.5790  -1.5786  -1.4691  -1.4689
    -1.4106  -1.4104  -1.4037  -1.4036  -1.2699  -1.2698  -1.1375  -1.1375
    -1.0469  -1.0468  -0.9813  -0.9811  -0.9709  -0.9707  -0.8313  -0.8310
    -0.7154  -0.7153  -0.6021  -0.6020  -0.5821  -0.5819  -0.4540  -0.4538
    -0.0001   0.0001   0.0149   0.0150   0.0187   0.0190   0.0438   0.0440
     5.4449   5.4454   5.8304   5.8307   5.9099   5.9102   6.1314   6.1316
     6.3891   6.3893   6.4970   6.4972   6.6198   6.6199   6.7026   6.7029
     6.9030   6.9033   7.0668   7.0670   7.2310   7.2310   7.3533   7.3541
     7.5129   7.5130   7.7204   7.7206   7.8244   7.8244   7.9601   7.9613
     8.0443   8.0450   8.1818   8.1819   8.2183   8.2190   8.4275   8.4276
     8.4706   8.4707   8.5241   8.5247

          k =-0.5000 0.0000 0.7760 (160832 PWs)   bands (ev):

   -20.3138 -20.3138 -20.1777 -20.1776 -20.1288 -20.1287 -19.9195 -19.9195
   -19.8994 -19.8992 -19.8484 -19.8483 -19.7318 -19.7317 -19.7043 -19.7041
   -19.5745 -19.5744 -19.4170 -19.4166 -19.3710 -19.3710 -19.2391 -19.2389
   -19.2181 -19.2179 -19.1510 -19.1509 -19.0758 -19.0756 -19.0270 -19.0266
   -13.3798 -13.3794 -13.3098 -13.3094 -13.2650 -13.2646 -13.2035 -13.2031
   -12.6665 -12.6661 -12.5846 -12.5843 -12.5629 -12.5625 -12.4853 -12.4850
   -11.0087 -11.0086 -10.9945 -10.9941 -10.9578 -10.9576 -10.9272 -10.9268
    -9.3542  -9.3540  -9.3037  -9.3037  -9.2525  -9.2524  -9.2357  -9.2353
    -8.8822  -8.8821  -8.8325  -8.8321  -8.7084  -8.7082  -8.6850  -8.6849
    -7.5723  -7.5721  -7.5165  -7.5162  -7.4007  -7.4006  -7.2741  -7.2740
    -7.1257  -7.1255  -7.0477  -7.0476  -6.9887  -6.9887  -6.9813  -6.9811
    -6.9013  -6.9011  -6.6997  -6.6996  -6.6082  -6.6078  -6.4174  -6.4172
    -6.2777  -6.2776  -6.2249  -6.2246  -6.1630  -6.1630  -6.0774  -6.0770
    -5.8974  -5.8973  -5.7306  -5.7305  -5.5583  -5.5582  -5.4406  -5.4405
    -5.3187  -5.3184  -5.3005  -5.3003  -5.1120  -5.1117  -5.0734  -5.0730
    -4.7464  -4.7462  -4.6848  -4.6847  -4.5392  -4.5391  -4.4033  -4.4033
    -4.2134  -4.2132  -4.2107  -4.2107  -4.0810  -4.0809  -4.0639  -4.0637
    -4.0066  -4.0063  -3.9038  -3.9037  -3.8119  -3.8116  -3.7117  -3.7113
    -3.6988  -3.6987  -3.5206  -3.5206  -3.4644  -3.4644  -3.4350  -3.4346
    -3.2813  -3.2811  -3.2641  -3.2639  -3.2438  -3.2438  -3.0822  -3.0819
    -2.9388  -2.9386  -2.9001  -2.8996  -2.8317  -2.8316  -2.7611  -2.7608
    -2.6471  -2.6467  -2.6234  -2.6232  -2.5176  -2.5174  -2.4496  -2.4493
    -2.0836  -2.0831  -1.9692  -1.9690  -1.8136  -1.8131  -1.7557  -1.7555
    -1.7179  -1.7178  -1.6803  -1.6798  -1.6689  -1.6689  -1.4891  -1.4884
    -1.4074  -1.4072  -1.3941  -1.3940  -1.3296  -1.3295  -1.2968  -1.2968
    -1.0307  -1.0306  -1.0143  -1.0143  -0.9310  -0.9309  -0.8561  -0.8557
    -0.7036  -0.7035  -0.5974  -0.5970  -0.5497  -0.5496  -0.4889  -0.4887
    -0.0304  -0.0304  -0.0118  -0.0116   0.0037   0.0040   0.0285   0.0285
     5.4874   5.4876   5.7726   5.7734   6.0807   6.0807   6.2117   6.2120
     6.2493   6.2500   6.3849   6.3855   6.4869   6.4870   6.8698   6.8699
     6.8823   6.8825   7.1538   7.1539   7.2354   7.2355   7.4342   7.4342
     7.5166   7.5174   7.5386   7.5388   7.7096   7.7096   7.8164   7.8164
     7.9903   7.9905   7.9992   7.9994   8.1530   8.1532   8.3079   8.3079
     8.3637   8.3647   8.4181   8.4189

     highest occupied, lowest unoccupied level (ev):     0.0480    5.3332

!    total energy              =   -2185.38526131 Ry
     Harris-Foulkes estimate   =   -2185.38526131 Ry
     estimated scf accuracy    <          4.4E-09 Ry

     total all-electron energy =     -7979.049460 Ry

     The total energy is the sum of the following terms:

     one-electron contribution =   -1470.39834983 Ry
     hartree contribution      =     906.97657674 Ry
     xc contribution           =    -473.46708090 Ry
     ewald contribution        =    -577.61003759 Ry
     Dispersion Correction     =      -0.70966857 Ry
     one-center paw contrib.   =    -570.17670116 Ry

     convergence has been achieved in  17 iterations

     Forces acting on atoms (cartesian axes, Ry/au):

     atom    1 type  4   force =    -0.00033014   -0.00013398   -0.00029033
     atom    2 type  4   force =    -0.00053738   -0.00042942   -0.00030121
     atom    3 type  4   force =     0.00035863   -0.00051948   -0.00029307
     atom    4 type  4   force =     0.00029478   -0.00039766   -0.00031045
     atom    5 type  4   force =     0.00053738    0.00042942   -0.00030121
     atom    6 type  4   force =     0.00033014    0.00013398   -0.00029033
     atom    7 type  4   force =    -0.00029478    0.00039766   -0.00031045
     atom    8 type  4   force =    -0.00035863    0.00051948   -0.00029307
     atom    9 type  1   force =     0.00136846   -0.00134419    0.00227724
     atom   10 type  1   force =     0.00151060   -0.00095124    0.00232650
     atom   11 type  1   force =     0.00112581    0.00143668    0.00230389
     atom   12 type  1   force =     0.00105648    0.00150257    0.00232372
     atom   13 type  1   force =    -0.00151060    0.00095124    0.00232650
     atom   14 type  1   force =    -0.00136846    0.00134419    0.00227724
     atom   15 type  1   force =    -0.00105648   -0.00150257    0.00232372
     atom   16 type  1   force =    -0.00112581   -0.00143668    0.00230389
     atom   17 type  1   force =     0.00140515   -0.00007917   -0.00065825
     atom   18 type  1   force =     0.00128945   -0.00047207   -0.00065225
     atom   19 type  1   force =     0.00025551    0.00138750   -0.00063372
     atom   20 type  1   force =     0.00040131    0.00124931   -0.00069783
     atom   21 type  1   force =    -0.00128945    0.00047207   -0.00065225
     atom   22 type  1   force =    -0.00140515    0.00007917   -0.00065825
     atom   23 type  1   force =    -0.00040131   -0.00124931   -0.00069783
     atom   24 type  1   force =    -0.00025551   -0.00138750   -0.00063372
     atom   25 type  4   force =    -0.00119436    0.00098354   -0.00119413
     atom   26 type  4   force =    -0.00104375    0.00124576   -0.00118369
     atom   27 type  4   force =    -0.00112591   -0.00114461   -0.00118814
     atom   28 type  4   force =    -0.00119179   -0.00104738   -0.00118020
     atom   29 type  4   force =     0.00104375   -0.00124576   -0.00118369
     atom   30 type  4   force =     0.00119436   -0.00098354   -0.00119413
     atom   31 type  4   force =     0.00119179    0.00104738   -0.00118020
     atom   32 type  4   force =     0.00112591    0.00114461   -0.00118814
     atom   33 type  1   force =     0.00073959   -0.00050242    0.00175828
     atom   34 type  1   force =     0.00097802   -0.00054726    0.00145931
     atom   35 type  1   force =     0.00062679    0.00097186    0.00146306
     atom   36 type  1   force =     0.00042669    0.00074852    0.00174352
     atom   37 type  1   force =    -0.00097802    0.00054726    0.00145931
     atom   38 type  1   force =    -0.00073959    0.00050242    0.00175828
     atom   39 type  1   force =    -0.00042669   -0.00074852    0.00174352
     atom   40 type  1   force =    -0.00062679   -0.00097186    0.00146306
     atom   41 type  4   force =    -0.00020189    0.00003419    0.00053995
     atom   42 type  4   force =    -0.00031312    0.00026057    0.00078505
     atom   43 type  4   force =    -0.00025028   -0.00033059    0.00082094
     atom   44 type  4   force =    -0.00008051   -0.00019822    0.00054395
     atom   45 type  4   force =     0.00031312   -0.00026057    0.00078505
     atom   46 type  4   force =     0.00020189   -0.00003419    0.00053995
     atom   47 type  4   force =     0.00008051    0.00019822    0.00054395
     atom   48 type  4   force =     0.00025028    0.00033059    0.00082094
     atom   49 type  1   force =    -0.00187905    0.00096302   -0.00167004
     atom   50 type  1   force =    -0.00208510    0.00098495   -0.00155185
     atom   51 type  1   force =    -0.00098328   -0.00198914   -0.00161227
     atom   52 type  1   force =    -0.00094344   -0.00197330   -0.00162500
     atom   53 type  1   force =     0.00208510   -0.00098495   -0.00155185
     atom   54 type  1   force =     0.00187905   -0.00096302   -0.00167004
     atom   55 type  1   force =     0.00094344    0.00197330   -0.00162500
     atom   56 type  1   force =     0.00098328    0.00198914   -0.00161227
     atom   57 type  4   force =    -0.00027748   -0.00035075   -0.00012901
     atom   58 type  4   force =    -0.00019381   -0.00047789   -0.00031586
     atom   59 type  4   force =     0.00043954   -0.00024256   -0.00022401
     atom   60 type  4   force =     0.00039719   -0.00023344   -0.00021003
     atom   61 type  4   force =     0.00019381    0.00047789   -0.00031586
     atom   62 type  4   force =     0.00027748    0.00035075   -0.00012901
     atom   63 type  4   force =    -0.00039719    0.00023344   -0.00021003
     atom   64 type  4   force =    -0.00043954    0.00024256   -0.00022401
     atom   65 type  1   force =    -0.00121119    0.00074152    0.00147682
     atom   66 type  1   force =    -0.00112113    0.00077157    0.00137954
     atom   67 type  1   force =    -0.00078464   -0.00118677    0.00142615
     atom   68 type  1   force =    -0.00073247   -0.00115950    0.00143571
     atom   69 type  1   force =     0.00112113   -0.00077157    0.00137954
     atom   70 type  1   force =     0.00121119   -0.00074152    0.00147682
     atom   71 type  1   force =     0.00073247    0.00115950    0.00143571
     atom   72 type  1   force =     0.00078464    0.00118677    0.00142615
     atom   73 type  3   force =     0.00018086   -0.00022212   -0.00037637
     atom   74 type  3   force =     0.00011870   -0.00039552   -0.00039131
     atom   75 type  3   force =     0.00033849    0.00013659   -0.00038319
     atom   76 type  3   force =     0.00033157    0.00014747   -0.00039115
     atom   77 type  3   force =    -0.00011870    0.00039552   -0.00039131
     atom   78 type  3   force =    -0.00018086    0.00022212   -0.00037637
     atom   79 type  3   force =    -0.00033157   -0.00014747   -0.00039115
     atom   80 type  3   force =    -0.00033849   -0.00013659   -0.00038319
     atom   81 type  3   force =    -0.00095903   -0.00009703    0.00011482
     atom   82 type  3   force =    -0.00094671    0.00004067    0.00012942
     atom   83 type  3   force =     0.00001426   -0.00096212    0.00011848
     atom   84 type  3   force =    -0.00001109   -0.00092991    0.00012943
     atom   85 type  3   force =     0.00094671   -0.00004067    0.00012942
     atom   86 type  3   force =     0.00095903    0.00009703    0.00011482
     atom   87 type  3   force =     0.00001109    0.00092991    0.00012943
     atom   88 type  3   force =    -0.00001426    0.00096212    0.00011848
     atom   89 type  3   force =     0.00057139   -0.00091711   -0.00023962
     atom   90 type  3   force =     0.00052554   -0.00088955   -0.00006622
     atom   91 type  3   force =     0.00088756    0.00052193   -0.00007133
     atom   92 type  3   force =     0.00091970    0.00057679   -0.00023101
     atom   93 type  3   force =    -0.00052554    0.00088955   -0.00006622
     atom   94 type  3   force =    -0.00057139    0.00091711   -0.00023962
     atom   95 type  3   force =    -0.00091970   -0.00057679   -0.00023101
     atom   96 type  3   force =    -0.00088756   -0.00052193   -0.00007133
     atom   97 type  3   force =     0.00059257    0.00023571   -0.00064212
     atom   98 type  3   force =     0.00045755    0.00023762   -0.00058536
     atom   99 type  3   force =    -0.00025109    0.00046092   -0.00058337
     atom  100 type  3   force =    -0.00022560    0.00058446   -0.00064063
     atom  101 type  3   force =    -0.00045755   -0.00023762   -0.00058536
     atom  102 type  3   force =    -0.00059257   -0.00023571   -0.00064212
     atom  103 type  3   force =     0.00022560   -0.00058446   -0.00064063
     atom  104 type  3   force =     0.00025109   -0.00046092   -0.00058337
     atom  105 type  3   force =     0.00002935   -0.00041484    0.00011455
     atom  106 type  3   force =     0.00011881   -0.00041884    0.00005633
     atom  107 type  3   force =     0.00041262    0.00006694    0.00007609
     atom  108 type  3   force =     0.00041873    0.00007430    0.00009781
     atom  109 type  3   force =    -0.00011881    0.00041884    0.00005633
     atom  110 type  3   force =    -0.00002935    0.00041484    0.00011455
     atom  111 type  3   force =    -0.00041873   -0.00007430    0.00009781
     atom  112 type  3   force =    -0.00041262   -0.00006694    0.00007609
     atom  113 type  3   force =     0.00055392   -0.00009557    0.00038556
     atom  114 type  3   force =     0.00057723   -0.00010850    0.00039901
     atom  115 type  3   force =     0.00010640    0.00056932    0.00037693
     atom  116 type  3   force =     0.00009882    0.00056587    0.00041134
     atom  117 type  3   force =    -0.00057723    0.00010850    0.00039901
     atom  118 type  3   force =    -0.00055392    0.00009557    0.00038556
     atom  119 type  3   force =    -0.00009882   -0.00056587    0.00041134
     atom  120 type  3   force =    -0.00010640   -0.00056932    0.00037693
     atom  121 type  3   force =    -0.00037328    0.00004833   -0.00013597
     atom  122 type  3   force =    -0.00040692   -0.00002902   -0.00015905
     atom  123 type  3   force =    -0.00001276   -0.00037509   -0.00014923
     atom  124 type  3   force =    -0.00000549   -0.00040590   -0.00014818
     atom  125 type  3   force =     0.00040692    0.00002902   -0.00015905
     atom  126 type  3   force =     0.00037328   -0.00004833   -0.00013597
     atom  127 type  3   force =     0.00000549    0.00040590   -0.00014818
     atom  128 type  3   force =     0.00001276    0.00037509   -0.00014923
     atom  129 type  3   force =     0.00079954   -0.00037482   -0.00142872
     atom  130 type  3   force =     0.00074424   -0.00036245   -0.00139812
     atom  131 type  3   force =     0.00037143    0.00078519   -0.00140568
     atom  132 type  3   force =     0.00036579    0.00076731   -0.00142371
     atom  133 type  3   force =    -0.00074424    0.00036245   -0.00139812
     atom  134 type  3   force =    -0.00079954    0.00037482   -0.00142872
     atom  135 type  3   force =    -0.00036579   -0.00076731   -0.00142371
     atom  136 type  3   force =    -0.00037143   -0.00078519   -0.00140568
     atom  137 type  3   force =     0.00000378    0.00016665   -0.00020544
     atom  138 type  3   force =     0.00007405    0.00037539   -0.00015378
     atom  139 type  3   force =    -0.00033354    0.00006268   -0.00016229
     atom  140 type  3   force =    -0.00027412    0.00003669   -0.00018813
     atom  141 type  3   force =    -0.00007405   -0.00037539   -0.00015378
     atom  142 type  3   force =    -0.00000378   -0.00016665   -0.00020544
     atom  143 type  3   force =     0.00027412   -0.00003669   -0.00018813
     atom  144 type  3   force =     0.00033354   -0.00006268   -0.00016229
     atom  145 type  3   force =     0.00014075   -0.00022322   -0.00022246
     atom  146 type  3   force =     0.00007629   -0.00015605   -0.00008893
     atom  147 type  3   force =     0.00018230    0.00010409   -0.00015275
     atom  148 type  3   force =     0.00019687    0.00011560   -0.00016082
     atom  149 type  3   force =    -0.00007629    0.00015605   -0.00008893
     atom  150 type  3   force =    -0.00014075    0.00022322   -0.00022246
     atom  151 type  3   force =    -0.00019687   -0.00011560   -0.00016082
     atom  152 type  3   force =    -0.00018230   -0.00010409   -0.00015275
     atom  153 type  3   force =     0.00002419    0.00073646    0.00069516
     atom  154 type  3   force =     0.00010800    0.00063528    0.00049874
     atom  155 type  3   force =    -0.00062681    0.00010746    0.00048129
     atom  156 type  3   force =    -0.00072558    0.00004097    0.00068163
     atom  157 type  3   force =    -0.00010800   -0.00063528    0.00049874
     atom  158 type  3   force =    -0.00002419   -0.00073646    0.00069516
     atom  159 type  3   force =     0.00072558   -0.00004097    0.00068163
     atom  160 type  3   force =     0.00062681   -0.00010746    0.00048129
     atom  161 type  3   force =    -0.00015109    0.00004882   -0.00016049
     atom  162 type  3   force =    -0.00022426   -0.00014662   -0.00019689
     atom  163 type  3   force =     0.00005423   -0.00019786   -0.00018206
     atom  164 type  3   force =     0.00010726   -0.00019856   -0.00018451
     atom  165 type  3   force =     0.00022426    0.00014662   -0.00019689
     atom  166 type  3   force =     0.00015109   -0.00004882   -0.00016049
     atom  167 type  3   force =    -0.00010726    0.00019856   -0.00018451
     atom  168 type  3   force =    -0.00005423    0.00019786   -0.00018206

     Total force =     0.017688     Total SCF correction =     0.000138


     Computing stress (Cartesian axis) and pressure

          total   stress  (Ry/bohr**3)                   (kbar)     P=   -7.26
  -0.00005084   0.00000003   0.00000000         -7.48      0.00      0.00
   0.00000003  -0.00005077   0.00000000          0.00     -7.47      0.00
   0.00000000   0.00000000  -0.00004648          0.00      0.00     -6.84


     Writing output data file scf.save
 
     init_run     :    115.76s CPU    119.45s WALL (       1 calls)
     electrons    :   4883.59s CPU   5036.87s WALL (       1 calls)
     forces       :     56.22s CPU     56.68s WALL (       1 calls)
     stress       :    309.69s CPU    310.41s WALL (       1 calls)

     Called by init_run:
     wfcinit      :    108.89s CPU    112.36s WALL (       1 calls)
     potinit      :      2.42s CPU      2.45s WALL (       1 calls)

     Called by electrons:
     c_bands      :   4426.10s CPU   4559.62s WALL (      17 calls)
     sum_band     :    431.90s CPU    448.87s WALL (      17 calls)
     v_of_rho     :      3.61s CPU      3.92s WALL (      18 calls)
     newd         :      9.27s CPU     11.82s WALL (      18 calls)
     PAW_pot      :     11.69s CPU     11.70s WALL (      18 calls)
     mix_rho      :      0.85s CPU      0.91s WALL (      17 calls)

     Called by c_bands:
     init_us_2    :     18.04s CPU     18.34s WALL (     296 calls)
     cegterg      :   4358.06s CPU   4490.86s WALL (     136 calls)

     Called by sum_band:
     sum_band:bec :      0.18s CPU      0.18s WALL (     136 calls)
     addusdens    :      9.66s CPU     12.06s WALL (      17 calls)

     Called by *egterg:
     h_psi        :   2238.96s CPU   2342.24s WALL (     601 calls)
     s_psi        :    561.82s CPU    562.06s WALL (     601 calls)
     g_psi        :      8.68s CPU      8.68s WALL (     457 calls)
     cdiaghg      :    225.98s CPU    226.10s WALL (     593 calls)

     Called by h_psi:
     h_psi:pot    :   2225.71s CPU   2328.58s WALL (     601 calls)
     h_psi:calbec :    563.23s CPU    564.45s WALL (     601 calls)
     vloc_psi     :   1101.40s CPU   1202.84s WALL (     601 calls)
     add_vuspsi   :    561.09s CPU    561.28s WALL (     601 calls)

     General routines
     calbec       :    830.45s CPU    832.07s WALL (     777 calls)
     fft          :      5.60s CPU      6.13s WALL (     258 calls)
     fftw         :   1144.74s CPU   1259.61s WALL (  245772 calls)
 
     Parallel routines
     fft_scatter  :    264.50s CPU    379.02s WALL (  246030 calls)
 
     PWSCF        :     1h29m CPU        1h33m WALL

 
   This run was terminated on:  11:42:34   7Dec2017            

=------------------------------------------------------------------------------=
   JOB DONE.
=------------------------------------------------------------------------------=
