
     Program PWSCF v.6.1 (svn rev. 13369) starts on 22Dec2017 at  8: 1:12 

     This program is part of the open-source Quantum ESPRESSO suite
     for quantum simulation of materials; please cite
         "P. Giannozzi et al., J. Phys.:Condens. Matter 21 395502 (2009);
          URL http://www.quantum-espresso.org", 
     in publications or presentations arising from this work. More details at
     http://www.quantum-espresso.org/quote

     Parallel version (MPI), running on     8 processors
     R & G space division:  proc/nbgrp/npool/nimage =       8
     Waiting for input...
     Reading input from standard input

     Current dimensions of program PWSCF are:
     Max number of different atomic species (ntypx) = 10
     Max number of k-points (npk) =  40000
     Max angular momentum in pseudopotentials (lmaxx) =  3
               file C.pbe-n-kjpaw_psl.0.1.UPF: wavefunction(s)  2P renormalized
               file N.pbe-n-kjpaw_psl.0.1.UPF: wavefunction(s)  2P renormalized
               file H.pbe-kjpaw_psl.0.1.UPF: wavefunction(s)  1S renormalized
               file O.pbe-n-kjpaw_psl.0.1.UPF: wavefunction(s)  2P renormalized

     -------------------------------------
     Parameters for Dispersion Correction:
     -------------------------------------
       atom      VdW radius       C_6     

        C          2.744         60.710
        N          2.640         42.670
        H          1.892          4.857
        O          2.536         24.284

     Subspace diagonalization in iterative solution of the eigenvalue problem:
     a serial algorithm will be used

 
     Parallelization info
     --------------------
     sticks:   dense  smooth     PW     G-vecs:    dense   smooth      PW
     Min        1177    1177    312                85592    85592   11729
     Max        1178    1178    313                85594    85594   11733
     Sum        9419    9419   2501               684745   684745   93847
 


     bravais-lattice index     =            0
     lattice parameter (alat)  =      25.2093  a.u.
     unit-cell volume          =    5068.9016 (a.u.)^3
     number of atoms/cell      =           76
     number of atomic types    =            4
     number of electrons       =       280.00
     number of Kohn-Sham states=          168
     kinetic-energy cutoff     =     100.0000  Ry
     charge density cutoff     =     400.0000  Ry
     convergence threshold     =      1.0E-08
     mixing beta               =       0.5000
     number of iterations used =            8  plain     mixing
     Exchange-correlation      =  SLA  PW   PBX  PBC ( 1  4  3  4 0 0)

     celldm(1)=  25.209325  celldm(2)=   0.000000  celldm(3)=   0.000000
     celldm(4)=   0.000000  celldm(5)=   0.000000  celldm(6)=   0.000000

     crystal axes: (cart. coord. in units of alat)
               a(1) = (   1.000000   0.000000   0.000000 )  
               a(2) = (   0.000000   0.464888   0.000000 )  
               a(3) = (  -0.200681   0.000000   0.680584 )  

     reciprocal axes: (cart. coord. in units 2 pi/alat)
               b(1) = (  1.000000  0.000000  0.294866 )  
               b(2) = (  0.000000  2.151055  0.000000 )  
               b(3) = (  0.000000  0.000000  1.469326 )  


     PseudoPot. # 1 for  C read from file:
     /scratch/ahofstet/pseudo/C.pbe-n-kjpaw_psl.0.1.UPF
     MD5 check sum: 430fe95172b1e11ef3f8ed03bac87931
     Pseudo is Projector augmented-wave + core cor, Zval =  4.0
     Generated using "atomic" code by A. Dal Corso  v.5.0.99 svn rev. 10869
     Shape of augmentation charge: BESSEL
     Using radial grid of 1073 points,  4 beta functions with: 
                l(1) =   0
                l(2) =   0
                l(3) =   1
                l(4) =   1
     Q(r) pseudized with 0 coefficients 


     PseudoPot. # 2 for  N read from file:
     /scratch/ahofstet/pseudo/N.pbe-n-kjpaw_psl.0.1.UPF
     MD5 check sum: f73187c8b701007e77325f868c9291d7
     Pseudo is Projector augmented-wave + core cor, Zval =  5.0
     Generated using "atomic" code by A. Dal Corso  v.5.0.99 svn rev. 10869
     Shape of augmentation charge: PSQ
     Using radial grid of 1085 points,  4 beta functions with: 
                l(1) =   0
                l(2) =   0
                l(3) =   1
                l(4) =   1
     Q(r) pseudized with 0 coefficients 


     PseudoPot. # 3 for  H read from file:
     /scratch/ahofstet/pseudo/H.pbe-kjpaw_psl.0.1.UPF
     MD5 check sum: 94e484f906d9e9773b2f6e52662335b2
     Pseudo is Projector augmented-wave, Zval =  1.0
     Generated using "atomic" code by A. Dal Corso  v.5.0.99 svn rev. 10869
     Shape of augmentation charge: PSQ
     Using radial grid of  929 points,  2 beta functions with: 
                l(1) =   0
                l(2) =   0
     Q(r) pseudized with 0 coefficients 


     PseudoPot. # 4 for  O read from file:
     /scratch/ahofstet/pseudo/O.pbe-n-kjpaw_psl.0.1.UPF
     MD5 check sum: 3f94a2996a3169367d6eb21d9b593f20
     Pseudo is Projector augmented-wave + core cor, Zval =  6.0
     Generated using "atomic" code by A. Dal Corso  v.5.0.99 svn rev. 10869
     Shape of augmentation charge: BESSEL
     Using radial grid of 1095 points,  4 beta functions with: 
                l(1) =   0
                l(2) =   0
                l(3) =   1
                l(4) =   1
     Q(r) pseudized with 0 coefficients 


     atomic species   valence    mass     pseudopotential
        C              4.00    12.01070      C( 1.00)
        N              5.00    14.00670      N( 1.00)
        H              1.00     1.00794      H( 1.00)
        O              6.00    15.99940      O( 1.00)

      2 Sym. Ops., with inversion, found
          (note:  2 additional sym.ops. were found but ignored
           their fractional translations are incommensurate with FFT grid)


   Cartesian axes

     site n.     atom                  positions (alat units)
         1           O   tau(   1) = (   0.2455009   0.2013892   0.3404271  )
         2           O   tau(   2) = (   0.4534773   0.4338332   0.6804491  )
         3           O   tau(   3) = (   0.5538179   0.2634989   0.3401570  )
         4           O   tau(   4) = (   0.3458415   0.0310549   0.0001351  )
         5           O   tau(   5) = (   0.0945162   0.1999878   0.2749806  )
         6           O   tau(   6) = (   0.8051432   0.4324319   0.0653115  )
         7           O   tau(   7) = (   0.7048027   0.2649002   0.4056036  )
         8           O   tau(   8) = (  -0.0058244   0.0324562   0.6152727  )
         9           O   tau(   9) = (   0.1008434   0.3107966   0.0422843  )
        10           O   tau(  10) = (   0.7988161   0.0783525   0.2980078  )
        11           O   tau(  11) = (   0.6984755   0.1540915   0.6382998  )
        12           O   tau(  12) = (   0.0005028   0.3865355   0.3825764  )
        13           O   tau(  13) = (   0.2406185   0.2418983   0.0933081  )
        14           O   tau(  14) = (   0.6590409   0.0094543   0.2469840  )
        15           O   tau(  15) = (   0.5587003   0.2229898   0.5872761  )
        16           O   tau(  16) = (   0.1402779   0.4554338   0.4336001  )
        17           N   tau(  17) = (   0.2910952   0.4112001   0.1996696  )
        18           N   tau(  18) = (   0.6085642   0.1787561   0.1406224  )
        19           N   tau(  19) = (   0.5082236   0.0536880   0.4809145  )
        20           N   tau(  20) = (   0.1907546   0.2861320   0.5399617  )
        21           N   tau(  21) = (   0.2913714   0.0299604   0.2529912  )
        22           N   tau(  22) = (   0.6082880   0.2624044   0.0873009  )
        23           N   tau(  23) = (   0.5079474   0.4349277   0.4275929  )
        24           N   tau(  24) = (   0.1910308   0.2024837   0.5932833  )
        25           N   tau(  25) = (   0.1785893   0.1626785   0.2885795  )
        26           N   tau(  26) = (   0.7210701   0.3951225   0.0517126  )
        27           N   tau(  27) = (   0.6207295   0.3022096   0.3920046  )
        28           N   tau(  28) = (   0.0782488   0.0697656   0.6288716  )
        29           N   tau(  29) = (   0.1790381   0.3118652   0.0916253  )
        30           N   tau(  30) = (   0.7206213   0.0794211   0.2486667  )
        31           N   tau(  31) = (   0.6202807   0.1530229   0.5889588  )
        32           N   tau(  32) = (   0.0786975   0.3854669   0.4319174  )
        33           C   tau(  33) = (   0.3809599   0.3493179   0.2011165  )
        34           C   tau(  34) = (   0.5186995   0.1168739   0.1391756  )
        35           C   tau(  35) = (   0.4183589   0.1155702   0.4794676  )
        36           C   tau(  36) = (   0.2806193   0.3480142   0.5414086  )
        37           H   tau(  37) = (   0.4352426   0.3889869   0.2479930  )
        38           H   tau(  38) = (   0.4644168   0.1565429   0.0922991  )
        39           H   tau(  39) = (   0.3640762   0.0759012   0.4325912  )
        40           H   tau(  40) = (   0.3349020   0.3083452   0.5882850  )
        41           H   tau(  41) = (   0.4092524   0.3384477   0.1247476  )
        42           H   tau(  42) = (   0.4904070   0.1060036   0.2155445  )
        43           H   tau(  43) = (   0.3900664   0.1264404   0.5558365  )
        44           H   tau(  44) = (   0.3089118   0.3588844   0.4650397  )
        45           H   tau(  45) = (   0.3635387   0.2763814   0.2350921  )
        46           H   tau(  46) = (   0.5361208   0.0439374   0.1052000  )
        47           H   tau(  47) = (   0.4357802   0.1885066   0.4454921  )
        48           H   tau(  48) = (   0.2631981   0.4209507   0.5753842  )
        49           C   tau(  49) = (   0.0320662   0.0345098   0.1457915  )
        50           C   tau(  50) = (   0.8675932   0.2669539   0.1945006  )
        51           C   tau(  51) = (   0.7672526   0.4303782   0.5347927  )
        52           C   tau(  52) = (  -0.0682744   0.1979342   0.4860836  )
        53           H   tau(  53) = (   0.0015485   0.4396821   0.0990711  )
        54           H   tau(  54) = (   0.8981109   0.2072381   0.2412210  )
        55           H   tau(  55) = (   0.7977703   0.0252060   0.5815131  )
        56           H   tau(  56) = (  -0.0987921   0.2576500   0.4393631  )
        57           H   tau(  57) = (   0.0283114   0.1055919   0.1045163  )
        58           H   tau(  58) = (   0.8713480   0.3380360   0.2357758  )
        59           H   tau(  59) = (   0.7710075   0.3592962   0.5760678  )
        60           H   tau(  60) = (  -0.0720292   0.1268521   0.4448084  )
        61           H   tau(  61) = (  -0.0143994   0.0440466   0.2131884  )
        62           H   tau(  62) = (   0.9140588   0.2764906   0.1271037  )
        63           H   tau(  63) = (   0.8137182   0.4208415   0.4673957  )
        64           H   tau(  64) = (  -0.1147400   0.1883975   0.5534805  )
        65           C   tau(  65) = (   0.2002057   0.0696648   0.2399525  )
        66           C   tau(  66) = (   0.6994537   0.3021088   0.1003396  )
        67           C   tau(  67) = (   0.5991131   0.3952233   0.4406317  )
        68           C   tau(  68) = (   0.0998651   0.1627792   0.5802445  )
        69           C   tau(  69) = (   0.1371868   0.0136806   0.1758742  )
        70           C   tau(  70) = (   0.7624726   0.2461247   0.1644179  )
        71           C   tau(  71) = (   0.6621320   0.4512074   0.5047099  )
        72           C   tau(  72) = (   0.0368462   0.2187634   0.5161663  )
        73           C   tau(  73) = (   0.2006021   0.3983582   0.1517403  )
        74           C   tau(  74) = (   0.6990573   0.1659142   0.1885518  )
        75           C   tau(  75) = (   0.5987167   0.0665299   0.5288439  )
        76           C   tau(  76) = (   0.1002615   0.2989739   0.4920323  )

     number of k points=     8
                       cart. coord. in units 2pi/alat
        k(    1) = (   0.0000000   0.0000000   0.0000000), wk =   0.1666667
        k(    2) = (   0.0000000   0.0000000  -0.7346630), wk =   0.1666667
        k(    3) = (   0.0000000   0.7170185   0.0000000), wk =   0.3333333
        k(    4) = (   0.0000000   0.7170185  -0.7346630), wk =   0.3333333
        k(    5) = (  -0.5000000   0.0000000  -0.1474330), wk =   0.1666667
        k(    6) = (  -0.5000000   0.0000000  -0.8820961), wk =   0.1666667
        k(    7) = (  -0.5000000   0.7170185  -0.1474330), wk =   0.3333333
        k(    8) = (  -0.5000000   0.7170185  -0.8820961), wk =   0.3333333

     Dense  grid:   684745 G-vectors     FFT dimensions: ( 162,  75, 120)

     Estimated max dynamical RAM per process >     607.69MB

     Estimated total allocated dynamical RAM >    4861.51MB

     Check: negative/imaginary core charge=   -0.000002    0.000000

     Initial potential from superposition of free atoms

     starting charge  279.99880, renormalised to  280.00000
     Starting wfc are  232 randomized atomic wfcs
     Checking if some PAW data can be deallocated... 

     total cpu time spent up to now is       36.0 secs

     per-process dynamical memory:   418.6 Mb

     Self-consistent Calculation

     iteration #  1     ecut=   100.00 Ry     beta=0.50
     Davidson diagonalization with overlap
     ethr =  1.00E-02,  avg # of iterations =  3.2

     total cpu time spent up to now is      131.5 secs

     total energy              =   -1511.82381496 Ry
     Harris-Foulkes estimate   =   -1516.19782094 Ry
     estimated scf accuracy    <       7.95222688 Ry

     iteration #  2     ecut=   100.00 Ry     beta=0.50
     Davidson diagonalization with overlap
     ethr =  2.84E-03,  avg # of iterations =  4.2

     total cpu time spent up to now is      200.4 secs

     total energy              =   -1513.05551002 Ry
     Harris-Foulkes estimate   =   -1514.10034001 Ry
     estimated scf accuracy    <       2.21336901 Ry

     iteration #  3     ecut=   100.00 Ry     beta=0.50
     Davidson diagonalization with overlap
     ethr =  7.90E-04,  avg # of iterations =  5.8

     total cpu time spent up to now is      276.5 secs

     total energy              =   -1513.49835910 Ry
     Harris-Foulkes estimate   =   -1513.78284236 Ry
     estimated scf accuracy    <       0.66131178 Ry

     iteration #  4     ecut=   100.00 Ry     beta=0.50
     Davidson diagonalization with overlap
     ethr =  2.36E-04,  avg # of iterations =  9.6

     total cpu time spent up to now is      352.5 secs

     total energy              =   -1513.55023607 Ry
     Harris-Foulkes estimate   =   -1513.76125414 Ry
     estimated scf accuracy    <       0.72291712 Ry

     iteration #  5     ecut=   100.00 Ry     beta=0.50
     Davidson diagonalization with overlap
     ethr =  2.36E-04,  avg # of iterations =  2.5

     total cpu time spent up to now is      403.8 secs

     total energy              =   -1513.65226500 Ry
     Harris-Foulkes estimate   =   -1513.66224885 Ry
     estimated scf accuracy    <       0.03255689 Ry

     iteration #  6     ecut=   100.00 Ry     beta=0.50
     Davidson diagonalization with overlap
     ethr =  1.16E-05,  avg # of iterations =  7.5

     total cpu time spent up to now is      514.0 secs

     total energy              =   -1513.66551426 Ry
     Harris-Foulkes estimate   =   -1513.67270350 Ry
     estimated scf accuracy    <       0.02294261 Ry

     iteration #  7     ecut=   100.00 Ry     beta=0.50
     Davidson diagonalization with overlap
     ethr =  8.19E-06,  avg # of iterations =  2.0

     total cpu time spent up to now is      565.9 secs

     total energy              =   -1513.66708849 Ry
     Harris-Foulkes estimate   =   -1513.66866231 Ry
     estimated scf accuracy    <       0.00477795 Ry

     iteration #  8     ecut=   100.00 Ry     beta=0.50
     Davidson diagonalization with overlap
     ethr =  1.71E-06,  avg # of iterations =  3.0

     total cpu time spent up to now is      628.6 secs

     total energy              =   -1513.66812351 Ry
     Harris-Foulkes estimate   =   -1513.66827283 Ry
     estimated scf accuracy    <       0.00049201 Ry

     iteration #  9     ecut=   100.00 Ry     beta=0.50
     Davidson diagonalization with overlap
     ethr =  1.76E-07,  avg # of iterations =  4.0

     total cpu time spent up to now is      705.2 secs

     total energy              =   -1513.66823110 Ry
     Harris-Foulkes estimate   =   -1513.66833136 Ry
     estimated scf accuracy    <       0.00033400 Ry

     iteration # 10     ecut=   100.00 Ry     beta=0.50
     Davidson diagonalization with overlap
     ethr =  1.19E-07,  avg # of iterations =  1.9

     total cpu time spent up to now is      754.6 secs

     total energy              =   -1513.66825734 Ry
     Harris-Foulkes estimate   =   -1513.66826860 Ry
     estimated scf accuracy    <       0.00002251 Ry

     iteration # 11     ecut=   100.00 Ry     beta=0.50
     Davidson diagonalization with overlap
     ethr =  8.04E-09,  avg # of iterations =  4.0

     total cpu time spent up to now is      849.7 secs

     total energy              =   -1513.66827681 Ry
     Harris-Foulkes estimate   =   -1513.66828604 Ry
     estimated scf accuracy    <       0.00002781 Ry

     iteration # 12     ecut=   100.00 Ry     beta=0.50
     Davidson diagonalization with overlap
     ethr =  8.04E-09,  avg # of iterations =  1.6

     total cpu time spent up to now is      898.5 secs

     total energy              =   -1513.66827787 Ry
     Harris-Foulkes estimate   =   -1513.66827942 Ry
     estimated scf accuracy    <       0.00000583 Ry

     iteration # 13     ecut=   100.00 Ry     beta=0.50
     Davidson diagonalization with overlap
     ethr =  2.08E-09,  avg # of iterations =  4.0

     total cpu time spent up to now is      964.6 secs

     total energy              =   -1513.66827968 Ry
     Harris-Foulkes estimate   =   -1513.66827991 Ry
     estimated scf accuracy    <       0.00000072 Ry

     iteration # 14     ecut=   100.00 Ry     beta=0.50
     Davidson diagonalization with overlap
     ethr =  2.58E-10,  avg # of iterations =  4.2

     total cpu time spent up to now is     1037.2 secs

     total energy              =   -1513.66827990 Ry
     Harris-Foulkes estimate   =   -1513.66827997 Ry
     estimated scf accuracy    <       0.00000023 Ry

     iteration # 15     ecut=   100.00 Ry     beta=0.50
     Davidson diagonalization with overlap
     ethr =  8.16E-11,  avg # of iterations =  3.1

     total cpu time spent up to now is     1088.9 secs

     total energy              =   -1513.66827989 Ry
     Harris-Foulkes estimate   =   -1513.66827992 Ry
     estimated scf accuracy    <       0.00000009 Ry

     iteration # 16     ecut=   100.00 Ry     beta=0.50
     Davidson diagonalization with overlap
     ethr =  3.08E-11,  avg # of iterations =  3.0

     total cpu time spent up to now is     1148.5 secs

     End of self-consistent calculation

          k = 0.0000 0.0000 0.0000 ( 85617 PWs)   bands (ev):

   -24.0893 -24.0882 -24.0674 -24.0667 -23.9063 -23.9061 -23.8910 -23.8908
   -20.6300 -20.6282 -20.6271 -20.6198 -19.5627 -19.5598 -19.5519 -19.5490
   -19.4244 -19.4244 -19.4227 -19.4222 -15.1949 -15.1944 -15.1243 -15.1171
   -14.4194 -14.4185 -14.3804 -14.3633 -12.4068 -12.3565 -12.3528 -12.3520
   -11.9702 -11.9171 -11.8963 -11.8847 -10.7330 -10.7127 -10.6686 -10.6187
    -9.5807  -9.4562  -9.4442  -9.3679  -8.1814  -8.0683  -8.0168  -8.0127
    -7.4774  -7.4592  -7.3562  -7.3121  -6.9332  -6.9250  -6.9118  -6.7504
    -6.7099  -6.6897  -6.6086  -6.5887  -6.4710  -6.4588  -6.1949  -6.1825
    -5.9838  -5.9307  -5.9275  -5.8868  -5.7504  -5.6955  -5.6903  -5.5531
    -5.5337  -5.4845  -5.3445  -5.2895  -5.2332  -5.2229  -5.1249  -4.9518
    -4.9334  -4.8740  -4.8178  -4.7801  -3.5689  -3.5088  -3.5022  -3.4251
    -3.3375  -3.2565  -3.2435  -3.1487  -3.1326  -2.8876  -2.8714  -2.7198
    -2.6702  -2.6479  -2.5554  -2.5084  -2.4672  -2.4543  -2.2335  -2.1349
    -0.9721  -0.9402  -0.9381  -0.9077  -0.9050  -0.8963  -0.8734  -0.8357
    -0.7542  -0.7535  -0.7472  -0.7430  -0.7429  -0.7067  -0.6567  -0.5819
    -0.3918  -0.3881  -0.2893  -0.2788  -0.0244  -0.0048   0.0000   0.0105
     0.0184   0.0312   0.0929   0.1642   0.1736   0.2191   0.2199   0.2554
     0.3387   0.3450   0.3723   0.5208   3.2940   3.3361   3.3427   3.4617
     3.5882   3.6092   3.6410   3.6608   6.2722   6.3293   6.3334   6.4188
     7.3542   7.3873   7.4166   7.4274   7.5703   7.8456   7.9206   8.6280
     8.6394   8.6936   8.9213   8.9405   8.9683   9.0041   9.1335   9.1790

          k = 0.0000 0.0000-0.7347 ( 85642 PWs)   bands (ev):

   -24.0788 -24.0788 -24.0780 -24.0780 -23.8982 -23.8982 -23.8980 -23.8980
   -20.6289 -20.6289 -20.6236 -20.6236 -19.5572 -19.5572 -19.5544 -19.5544
   -19.4237 -19.4237 -19.4233 -19.4233 -15.1615 -15.1615 -15.1559 -15.1559
   -14.4004 -14.4004 -14.3886 -14.3886 -12.3869 -12.3869 -12.3459 -12.3459
   -11.9496 -11.9496 -11.8865 -11.8865 -10.7283 -10.7283 -10.6368 -10.6368
    -9.5277  -9.5277  -9.3994  -9.3994  -8.1370  -8.1370  -8.0057  -8.0057
    -7.4229  -7.4229  -7.3733  -7.3733  -6.9213  -6.9213  -6.8303  -6.8303
    -6.7036  -6.7036  -6.6797  -6.6797  -6.2983  -6.2983  -6.2933  -6.2933
    -5.9592  -5.9592  -5.9268  -5.9268  -5.7452  -5.7452  -5.6202  -5.6202
    -5.4739  -5.4739  -5.3268  -5.3268  -5.1108  -5.1108  -5.0437  -5.0437
    -4.9488  -4.9488  -4.8286  -4.8286  -3.5704  -3.5704  -3.4370  -3.4370
    -3.2954  -3.2954  -3.1962  -3.1962  -3.0415  -3.0415  -2.7481  -2.7481
    -2.6891  -2.6891  -2.5519  -2.5519  -2.4401  -2.4401  -2.1943  -2.1943
    -1.0030  -1.0030  -0.9198  -0.9198  -0.8885  -0.8885  -0.8041  -0.8041
    -0.7622  -0.7622  -0.7367  -0.7367  -0.6360  -0.6360  -0.5911  -0.5911
    -0.4338  -0.4337  -0.3995  -0.3995  -0.0324  -0.0324   0.0221   0.0221
     0.0795   0.0795   0.1062   0.1062   0.2092   0.2092   0.2444   0.2445
     0.3378   0.3378   0.4378   0.4378   3.2986   3.2986   3.3907   3.3907
     3.6111   3.6111   3.6616   3.6616   6.3029   6.3029   6.3642   6.3642
     7.3608   7.3608   7.4914   7.4914   8.0000   8.0000   8.2997   8.2997
     8.4912   8.4912   8.8485   8.8485   8.8902   8.8902   8.9964   8.9964

          k = 0.0000 0.7170 0.0000 ( 85581 PWs)   bands (ev):

   -24.0781 -24.0774 -24.0676 -24.0670 -23.9070 -23.9069 -23.9000 -23.8999
   -20.6313 -20.6309 -20.6258 -20.6226 -19.5602 -19.5593 -19.5543 -19.5535
   -19.4278 -19.4278 -19.4246 -19.4243 -15.1486 -15.1472 -15.1135 -15.1077
   -14.4263 -14.4240 -14.4036 -14.3944 -12.4247 -12.4020 -12.3775 -12.3711
   -11.9417 -11.8981 -11.8948 -11.8835 -10.7175 -10.6857 -10.6839 -10.6392
    -9.5119  -9.4356  -9.4093  -9.3654  -8.1368  -8.0419  -8.0399  -8.0199
    -7.5155  -7.4555  -7.4457  -7.4107  -7.0814  -6.9792  -6.9035  -6.8162
    -6.7915  -6.7627  -6.7206  -6.6885  -6.2735  -6.2588  -6.1185  -6.1115
    -5.9732  -5.9554  -5.9423  -5.9232  -5.6940  -5.6859  -5.6152  -5.6119
    -5.4622  -5.4400  -5.3022  -5.2874  -5.1347  -5.1320  -5.0392  -5.0200
    -4.9661  -4.8896  -4.8204  -4.8140  -3.5417  -3.4978  -3.4876  -3.4461
    -3.3655  -3.3235  -3.2677  -3.2285  -3.0823  -2.8766  -2.8719  -2.7528
    -2.6608  -2.6109  -2.5714  -2.4819  -2.4158  -2.3489  -2.2489  -2.1715
    -0.9759  -0.9706  -0.9490  -0.9332  -0.9046  -0.8936  -0.8088  -0.7904
    -0.7716  -0.7707  -0.7486  -0.7302  -0.6566  -0.6462  -0.6202  -0.5587
    -0.4643  -0.4517  -0.4134  -0.3857  -0.0381  -0.0326   0.0013   0.0095
     0.0112   0.0560   0.0832   0.1012   0.1542   0.1729   0.2114   0.2210
     0.3226   0.3830   0.4488   0.5208   3.3388   3.3767   3.3881   3.3966
     3.5423   3.5647   3.6030   3.6162   6.3595   6.3839   6.4366   6.4708
     7.3570   7.3771   7.4281   7.4474   7.7359   8.0506   8.0671   8.4583
     8.5392   8.6216   8.7253   8.7877   8.8690   9.1306   9.1958   9.2612

          k = 0.0000 0.7170-0.7347 ( 85528 PWs)   bands (ev):

   -24.0730 -24.0730 -24.0723 -24.0723 -23.9034 -23.9034 -23.9033 -23.9033
   -20.6300 -20.6300 -20.6253 -20.6253 -19.5580 -19.5580 -19.5557 -19.5557
   -19.4268 -19.4268 -19.4255 -19.4255 -15.1318 -15.1317 -15.1273 -15.1273
   -14.4175 -14.4175 -14.4062 -14.4062 -12.4106 -12.4106 -12.3776 -12.3776
   -11.9237 -11.9237 -11.8847 -11.8847 -10.7125 -10.7125 -10.6507 -10.6507
    -9.4678  -9.4678  -9.3945  -9.3945  -8.0976  -8.0976  -8.0175  -8.0175
    -7.4850  -7.4850  -7.4410  -7.4410  -6.9827  -6.9826  -6.9155  -6.9155
    -6.7566  -6.7566  -6.7394  -6.7394  -6.1869  -6.1869  -6.1718  -6.1718
    -5.9642  -5.9642  -5.9316  -5.9316  -5.6911  -5.6911  -5.5758  -5.5758
    -5.4657  -5.4657  -5.3003  -5.3003  -5.1270  -5.1270  -5.0224  -5.0224
    -4.9163  -4.9163  -4.8498  -4.8498  -3.5466  -3.5466  -3.4413  -3.4413
    -3.3134  -3.3134  -3.2572  -3.2572  -3.0172  -3.0172  -2.8015  -2.8015
    -2.6484  -2.6484  -2.5195  -2.5195  -2.3834  -2.3834  -2.1963  -2.1963
    -1.0009  -1.0009  -0.9560  -0.9560  -0.8808  -0.8808  -0.7963  -0.7963
    -0.7676  -0.7676  -0.7476  -0.7476  -0.6623  -0.6623  -0.6313  -0.6312
    -0.3794  -0.3794  -0.3620  -0.3620  -0.0451  -0.0451  -0.0313  -0.0313
     0.0362   0.0362   0.0774   0.0774   0.1797   0.1797   0.2026   0.2026
     0.3951   0.3951   0.4519   0.4519   3.3442   3.3442   3.3875   3.3875
     3.5790   3.5790   3.6056   3.6056   6.3724   6.3724   6.4309   6.4309
     7.3785   7.3785   7.4418   7.4418   8.1727   8.1727   8.3582   8.3582
     8.5567   8.5567   8.8457   8.8457   8.8687   8.8687   9.0843   9.0844

          k =-0.5000 0.0000-0.1474 ( 85554 PWs)   bands (ev):

   -24.0891 -24.0884 -24.0674 -24.0667 -23.9063 -23.9061 -23.8910 -23.8908
   -20.6300 -20.6283 -20.6270 -20.6198 -19.5626 -19.5599 -19.5519 -19.5490
   -19.4248 -19.4240 -19.4225 -19.4224 -15.1948 -15.1946 -15.1248 -15.1166
   -14.4206 -14.4173 -14.3809 -14.3628 -12.4090 -12.3582 -12.3513 -12.3507
   -11.9670 -11.9126 -11.8998 -11.8873 -10.7266 -10.6943 -10.6642 -10.6556
    -9.5369  -9.4590  -9.4354  -9.4116  -8.1885  -8.0893  -7.9986  -7.9936
    -7.5318  -7.4190  -7.3411  -7.3297  -6.9651  -6.8781  -6.8566  -6.8059
    -6.7106  -6.7009  -6.6031  -6.5886  -6.4700  -6.4587  -6.1902  -6.1867
    -5.9707  -5.9374  -5.9261  -5.8899  -5.7828  -5.6954  -5.6334  -5.6222
    -5.4993  -5.4412  -5.3682  -5.2977  -5.2335  -5.2304  -5.1102  -4.9764
    -4.9209  -4.8867  -4.8318  -4.7680  -3.6109  -3.5413  -3.4749  -3.3401
    -3.3171  -3.2721  -3.2356  -3.1691  -3.0579  -2.9698  -2.8751  -2.7221
    -2.6509  -2.6017  -2.5908  -2.5626  -2.4412  -2.4183  -2.3249  -2.0991
    -0.9832  -0.9133  -0.9074  -0.9056  -0.8991  -0.8973  -0.8946  -0.8192
    -0.7625  -0.7566  -0.7561  -0.7369  -0.7171  -0.7102  -0.6699  -0.6140
    -0.3976  -0.3791  -0.2856  -0.2829  -0.0228  -0.0225   0.0057   0.0116
     0.0199   0.0281   0.1103   0.1400   0.2040   0.2061   0.2064   0.2545
     0.3433   0.3459   0.4255   0.4747   3.2960   3.3318   3.3363   3.4671
     3.5920   3.6214   3.6414   3.6487   6.2817   6.3184   6.3513   6.3983
     7.3430   7.3914   7.4256   7.5698   7.5767   7.5956   8.1085   8.5496
     8.5920   8.6719   8.9175   8.9537   8.9604   8.9623   9.0873   9.1596

          k =-0.5000 0.0000-0.8821 ( 85606 PWs)   bands (ev):

   -24.0788 -24.0788 -24.0779 -24.0779 -23.8982 -23.8982 -23.8980 -23.8980
   -20.6289 -20.6289 -20.6236 -20.6236 -19.5573 -19.5573 -19.5543 -19.5543
   -19.4238 -19.4238 -19.4232 -19.4232 -15.1614 -15.1614 -15.1559 -15.1559
   -14.3995 -14.3995 -14.3896 -14.3896 -12.3881 -12.3881 -12.3450 -12.3450
   -11.9468 -11.9468 -11.8886 -11.8886 -10.7037 -10.7037 -10.6649 -10.6649
    -9.5236  -9.5236  -9.3975  -9.3975  -8.1532  -8.1532  -7.9923  -7.9923
    -7.4277  -7.4277  -7.3636  -7.3636  -6.9345  -6.9345  -6.8251  -6.8250
    -6.6999  -6.6999  -6.6810  -6.6810  -6.3024  -6.3024  -6.2890  -6.2890
    -5.9655  -5.9655  -5.9227  -5.9226  -5.7373  -5.7373  -5.6139  -5.6139
    -5.5005  -5.5005  -5.3027  -5.3027  -5.1072  -5.1072  -5.0402  -5.0402
    -4.9633  -4.9633  -4.8345  -4.8345  -3.5766  -3.5766  -3.4136  -3.4136
    -3.2733  -3.2733  -3.2038  -3.2038  -3.0928  -3.0928  -2.7534  -2.7534
    -2.6344  -2.6344  -2.5736  -2.5736  -2.4123  -2.4123  -2.2280  -2.2280
    -0.9805  -0.9805  -0.9316  -0.9316  -0.8977  -0.8977  -0.8041  -0.8041
    -0.7578  -0.7578  -0.7393  -0.7393  -0.6550  -0.6550  -0.5760  -0.5760
    -0.4319  -0.4318  -0.3986  -0.3986  -0.0454  -0.0454   0.0276   0.0276
     0.0797   0.0798   0.1050   0.1050   0.2033   0.2033   0.2605   0.2605
     0.3686   0.3686   0.4050   0.4050   3.3005   3.3005   3.3887   3.3887
     3.6182   3.6182   3.6563   3.6563   6.3177   6.3177   6.3461   6.3461
     7.3737   7.3737   7.4836   7.4836   8.1045   8.1045   8.1775   8.1775
     8.4549   8.4549   8.8470   8.8470   8.9006   8.9006   8.9976   8.9976

          k =-0.5000 0.7170-0.1474 ( 85612 PWs)   bands (ev):

   -24.0781 -24.0775 -24.0676 -24.0670 -23.9069 -23.9069 -23.9000 -23.8999
   -20.6313 -20.6308 -20.6258 -20.6225 -19.5601 -19.5594 -19.5543 -19.5535
   -19.4280 -19.4275 -19.4245 -19.4244 -15.1487 -15.1471 -15.1138 -15.1074
   -14.4285 -14.4225 -14.4048 -14.3924 -12.4251 -12.4011 -12.3788 -12.3706
   -11.9395 -11.9003 -11.8917 -11.8852 -10.7194 -10.7055 -10.6578 -10.6485
    -9.4802  -9.4212  -9.4196  -9.3967  -8.1383  -8.0536  -8.0327  -8.0139
    -7.4965  -7.4852  -7.4695  -7.3889  -7.0501  -6.9906  -6.8854  -6.8061
    -6.8032  -6.7703  -6.7147  -6.7103  -6.2731  -6.2623  -6.1130  -6.1125
    -5.9697  -5.9590  -5.9405  -5.9199  -5.7571  -5.6648  -5.5869  -5.5687
    -5.4737  -5.4603  -5.3185  -5.2988  -5.1338  -5.1312  -5.0306  -5.0116
    -4.9702  -4.8938  -4.8137  -4.8105  -3.5846  -3.5175  -3.4830  -3.3714
    -3.3414  -3.3127  -3.2536  -3.2345  -3.0623  -2.9261  -2.9103  -2.7887
    -2.6239  -2.5999  -2.5715  -2.5186  -2.3840  -2.3290  -2.2967  -2.1421
    -0.9806  -0.9697  -0.9554  -0.9501  -0.8866  -0.8419  -0.8144  -0.8019
    -0.7803  -0.7720  -0.7494  -0.7466  -0.6671  -0.6469  -0.6077  -0.5646
    -0.4802  -0.4413  -0.4134  -0.3760  -0.0381  -0.0252   0.0008   0.0067
     0.0116   0.0485   0.0844   0.1044   0.1514   0.1783   0.2206   0.2284
     0.3206   0.3733   0.4748   0.4889   3.3244   3.3844   3.3851   3.4176
     3.5315   3.5705   3.6042   3.6100   6.3686   6.3756   6.4448   6.4636
     7.3632   7.3839   7.3884   7.4849   7.7767   7.8280   8.3193   8.3355
     8.4963   8.6784   8.7368   8.9899   9.0365   9.0576   9.0791   9.2014

          k =-0.5000 0.7170-0.8821 ( 85554 PWs)   bands (ev):

   -24.0730 -24.0730 -24.0722 -24.0722 -23.9034 -23.9034 -23.9033 -23.9033
   -20.6299 -20.6299 -20.6253 -20.6253 -19.5580 -19.5580 -19.5557 -19.5557
   -19.4269 -19.4268 -19.4254 -19.4254 -15.1317 -15.1317 -15.1273 -15.1273
   -14.4152 -14.4152 -14.4086 -14.4086 -12.4103 -12.4103 -12.3781 -12.3781
   -11.9215 -11.9215 -11.8863 -11.8863 -10.6970 -10.6970 -10.6685 -10.6685
    -9.4766  -9.4766  -9.3809  -9.3809  -8.1077  -8.1077  -8.0146  -8.0146
    -7.4877  -7.4877  -7.4238  -7.4238  -7.0072  -7.0072  -6.9063  -6.9063
    -6.7799  -6.7799  -6.7100  -6.7099  -6.1891  -6.1891  -6.1715  -6.1715
    -5.9638  -5.9638  -5.9319  -5.9319  -5.6653  -5.6653  -5.6175  -5.6175
    -5.4515  -5.4515  -5.3058  -5.3058  -5.1178  -5.1178  -5.0188  -5.0188
    -4.9224  -4.9224  -4.8482  -4.8482  -3.5389  -3.5389  -3.4388  -3.4388
    -3.2916  -3.2916  -3.2680  -3.2680  -3.0685  -3.0685  -2.7871  -2.7870
    -2.6093  -2.6093  -2.5519  -2.5519  -2.3526  -2.3526  -2.2201  -2.2201
    -0.9962  -0.9962  -0.9617  -0.9617  -0.8796  -0.8796  -0.8075  -0.8075
    -0.7761  -0.7761  -0.7411  -0.7411  -0.6496  -0.6496  -0.6261  -0.6261
    -0.3928  -0.3928  -0.3533  -0.3533  -0.0488  -0.0488  -0.0282  -0.0282
     0.0447   0.0447   0.0735   0.0735   0.1782   0.1782   0.2046   0.2047
     0.4123   0.4123   0.4318   0.4318   3.3442   3.3442   3.3897   3.3897
     3.5743   3.5743   3.6081   3.6081   6.3940   6.3940   6.4086   6.4086
     7.3594   7.3594   7.4584   7.4584   8.1508   8.1508   8.3726   8.3726
     8.5542   8.5542   8.7225   8.7225   8.9636   8.9636   9.1712   9.1712

     highest occupied, lowest unoccupied level (ev):     0.5208    3.2940

!    total energy              =   -1513.66827991 Ry
     Harris-Foulkes estimate   =   -1513.66827991 Ry
     estimated scf accuracy    <          3.0E-09 Ry

     total all-electron energy =     -5711.281301 Ry

     The total energy is the sum of the following terms:

     one-electron contribution =    -844.13591254 Ry
     hartree contribution      =     533.78534965 Ry
     xc contribution           =    -304.18257986 Ry
     ewald contribution        =    -480.90043267 Ry
     Dispersion Correction     =      -0.35329918 Ry
     one-center paw contrib.   =    -417.88140531 Ry

     convergence has been achieved in  16 iterations

     Forces acting on atoms (cartesian axes, Ry/au):

     atom    1 type  4   force =    -0.00465917    0.00224732    0.00075059
     atom    2 type  4   force =     0.00464665    0.00225452   -0.00075772
     atom    3 type  4   force =     0.00465917   -0.00224732   -0.00075059
     atom    4 type  4   force =    -0.00464665   -0.00225452    0.00075772
     atom    5 type  4   force =     0.00360150   -0.00072973    0.00060793
     atom    6 type  4   force =    -0.00360562   -0.00072639   -0.00060915
     atom    7 type  4   force =    -0.00360150    0.00072973   -0.00060793
     atom    8 type  4   force =     0.00360562    0.00072639    0.00060915
     atom    9 type  4   force =    -0.00119322    0.00004571    0.00111586
     atom   10 type  4   force =     0.00119096    0.00005169   -0.00111644
     atom   11 type  4   force =     0.00119322   -0.00004571   -0.00111586
     atom   12 type  4   force =    -0.00119096   -0.00005169    0.00111644
     atom   13 type  4   force =     0.00229501   -0.00113219    0.00037563
     atom   14 type  4   force =    -0.00229825   -0.00113000   -0.00037733
     atom   15 type  4   force =    -0.00229501    0.00113219   -0.00037563
     atom   16 type  4   force =     0.00229825    0.00113000    0.00037733
     atom   17 type  2   force =     0.00161013    0.00239620    0.00910340
     atom   18 type  2   force =    -0.00161116    0.00239619   -0.00910467
     atom   19 type  2   force =    -0.00161013   -0.00239620   -0.00910340
     atom   20 type  2   force =     0.00161116   -0.00239619    0.00910467
     atom   21 type  2   force =     0.00602419   -0.00754244   -0.00307453
     atom   22 type  2   force =    -0.00602202   -0.00754147    0.00307302
     atom   23 type  2   force =    -0.00602419    0.00754244    0.00307453
     atom   24 type  2   force =     0.00602202    0.00754147   -0.00307302
     atom   25 type  2   force =    -0.00123242    0.00265007    0.00062344
     atom   26 type  2   force =     0.00122811    0.00264818   -0.00062476
     atom   27 type  2   force =     0.00123242   -0.00265007   -0.00062344
     atom   28 type  2   force =    -0.00122811   -0.00264818    0.00062476
     atom   29 type  2   force =     0.00117407    0.00249417    0.00079156
     atom   30 type  2   force =    -0.00116896    0.00249917   -0.00079038
     atom   31 type  2   force =    -0.00117407   -0.00249417   -0.00079156
     atom   32 type  2   force =     0.00116896   -0.00249917    0.00079038
     atom   33 type  1   force =     0.00331754   -0.00595999   -0.00011557
     atom   34 type  1   force =    -0.00331781   -0.00596689    0.00011561
     atom   35 type  1   force =    -0.00331754    0.00595999    0.00011557
     atom   36 type  1   force =     0.00331781    0.00596689   -0.00011561
     atom   37 type  3   force =     0.00111820   -0.00043533   -0.00060648
     atom   38 type  3   force =    -0.00111804   -0.00043564    0.00060683
     atom   39 type  3   force =    -0.00111820    0.00043533    0.00060648
     atom   40 type  3   force =     0.00111804    0.00043564   -0.00060683
     atom   41 type  3   force =    -0.00023506    0.00068971    0.00019293
     atom   42 type  3   force =     0.00023539    0.00068966   -0.00019322
     atom   43 type  3   force =     0.00023506   -0.00068971   -0.00019293
     atom   44 type  3   force =    -0.00023539   -0.00068966    0.00019322
     atom   45 type  3   force =     0.00168691    0.00348699   -0.00317540
     atom   46 type  3   force =    -0.00168684    0.00348736    0.00317551
     atom   47 type  3   force =    -0.00168691   -0.00348699    0.00317540
     atom   48 type  3   force =     0.00168684   -0.00348736   -0.00317551
     atom   49 type  1   force =     0.00168673   -0.00032326    0.00264727
     atom   50 type  1   force =    -0.00168737   -0.00032018   -0.00264735
     atom   51 type  1   force =    -0.00168673    0.00032326   -0.00264727
     atom   52 type  1   force =     0.00168737    0.00032018    0.00264735
     atom   53 type  3   force =     0.00047161    0.00011527    0.00011412
     atom   54 type  3   force =    -0.00047196    0.00011598   -0.00011478
     atom   55 type  3   force =    -0.00047161   -0.00011527   -0.00011412
     atom   56 type  3   force =     0.00047196   -0.00011598    0.00011478
     atom   57 type  3   force =     0.00023548    0.00230787   -0.00161725
     atom   58 type  3   force =    -0.00023549    0.00230714    0.00161668
     atom   59 type  3   force =    -0.00023548   -0.00230787    0.00161725
     atom   60 type  3   force =     0.00023549   -0.00230714   -0.00161668
     atom   61 type  3   force =     0.00028054   -0.00042295   -0.00029794
     atom   62 type  3   force =    -0.00028098   -0.00042269    0.00029820
     atom   63 type  3   force =    -0.00028054    0.00042295    0.00029794
     atom   64 type  3   force =     0.00028098    0.00042269   -0.00029820
     atom   65 type  1   force =    -0.00850700    0.00215616   -0.00932342
     atom   66 type  1   force =     0.00850573    0.00212966    0.00932113
     atom   67 type  1   force =     0.00850700   -0.00215616    0.00932342
     atom   68 type  1   force =    -0.00850573   -0.00212966   -0.00932113
     atom   69 type  1   force =     0.00330859   -0.00217104    0.00239216
     atom   70 type  1   force =    -0.00330721   -0.00219074   -0.00239168
     atom   71 type  1   force =    -0.00330859    0.00217104   -0.00239216
     atom   72 type  1   force =     0.00330721    0.00219074    0.00239168
     atom   73 type  1   force =    -0.01096507   -0.00025627    0.00031023
     atom   74 type  1   force =     0.01096709   -0.00027453   -0.00031026
     atom   75 type  1   force =     0.01096507    0.00025627   -0.00031023
     atom   76 type  1   force =    -0.01096709    0.00027453    0.00031026

     Total force =     0.051373     Total SCF correction =     0.000099


     Computing stress (Cartesian axis) and pressure

          total   stress  (Ry/bohr**3)                   (kbar)     P=   -0.43
  -0.00000766  -0.00000000  -0.00001703         -1.13     -0.00     -2.51
  -0.00000000   0.00000613   0.00000000         -0.00      0.90      0.00
  -0.00001703   0.00000000  -0.00000729         -2.51      0.00     -1.07


     Writing output data file scf.save
 
     init_run     :     34.11s CPU     35.36s WALL (       1 calls)
     electrons    :   1066.45s CPU   1112.64s WALL (       1 calls)
     forces       :     17.51s CPU     17.62s WALL (       1 calls)
     stress       :     65.67s CPU     65.84s WALL (       1 calls)

     Called by init_run:
     wfcinit      :     25.59s CPU     26.72s WALL (       1 calls)
     potinit      :      3.01s CPU      3.03s WALL (       1 calls)

     Called by electrons:
     c_bands      :    953.66s CPU    993.09s WALL (      16 calls)
     sum_band     :    101.76s CPU    107.75s WALL (      16 calls)
     v_of_rho     :      1.62s CPU      1.81s WALL (      17 calls)
     newd         :      3.69s CPU      4.26s WALL (      17 calls)
     PAW_pot      :      5.30s CPU      5.30s WALL (      17 calls)
     mix_rho      :      0.39s CPU      0.42s WALL (      16 calls)

     Called by c_bands:
     init_us_2    :      5.38s CPU      5.40s WALL (     280 calls)
     cegterg      :    931.36s CPU    970.70s WALL (     128 calls)

     Called by sum_band:
     sum_band:bec :      0.07s CPU      0.07s WALL (     128 calls)
     addusdens    :      3.74s CPU      4.27s WALL (      16 calls)

     Called by *egterg:
     h_psi        :    513.05s CPU    543.98s WALL (     646 calls)
     s_psi        :    105.95s CPU    105.97s WALL (     646 calls)
     g_psi        :      2.53s CPU      2.54s WALL (     510 calls)
     cdiaghg      :     62.02s CPU     62.03s WALL (     638 calls)

     Called by h_psi:
     h_psi:pot    :    509.24s CPU    540.10s WALL (     646 calls)
     h_psi:calbec :    106.04s CPU    106.29s WALL (     646 calls)
     vloc_psi     :    297.02s CPU    327.62s WALL (     646 calls)
     add_vuspsi   :    106.18s CPU    106.18s WALL (     646 calls)

     General routines
     calbec       :    155.05s CPU    155.42s WALL (     814 calls)
     fft          :      1.11s CPU      1.41s WALL (     245 calls)
     fftw         :    323.11s CPU    356.83s WALL (  139782 calls)
 
     Parallel routines
     fft_scatter  :     74.84s CPU    101.48s WALL (  140027 calls)
 
     PWSCF        : 19m52.13s CPU    21m28.46s WALL

 
   This run was terminated on:   8:22:40  22Dec2017            

=------------------------------------------------------------------------------=
   JOB DONE.
=------------------------------------------------------------------------------=
