
     Program PWSCF v.6.1 (svn rev. 13369) starts on 21Dec2017 at 14:38:15 

     This program is part of the open-source Quantum ESPRESSO suite
     for quantum simulation of materials; please cite
         "P. Giannozzi et al., J. Phys.:Condens. Matter 21 395502 (2009);
          URL http://www.quantum-espresso.org", 
     in publications or presentations arising from this work. More details at
     http://www.quantum-espresso.org/quote

     Parallel version (MPI), running on     8 processors
     R & G space division:  proc/nbgrp/npool/nimage =       8
     Waiting for input...
     Reading input from standard input

     Current dimensions of program PWSCF are:
     Max number of different atomic species (ntypx) = 10
     Max number of k-points (npk) =  40000
     Max angular momentum in pseudopotentials (lmaxx) =  3
               file C.pbe-n-kjpaw_psl.0.1.UPF: wavefunction(s)  2P renormalized
               file N.pbe-n-kjpaw_psl.0.1.UPF: wavefunction(s)  2P renormalized
               file H.pbe-kjpaw_psl.0.1.UPF: wavefunction(s)  1S renormalized
               file O.pbe-n-kjpaw_psl.0.1.UPF: wavefunction(s)  2P renormalized

     -------------------------------------
     Parameters for Dispersion Correction:
     -------------------------------------
       atom      VdW radius       C_6     

        C          2.744         60.710
        N          2.640         42.670
        H          1.892          4.857
        O          2.536         24.284

     Subspace diagonalization in iterative solution of the eigenvalue problem:
     a serial algorithm will be used

 
     Parallelization info
     --------------------
     sticks:   dense  smooth     PW     G-vecs:    dense   smooth      PW
     Min         791     791    208               127281   127281   17168
     Max         792     792    209               127286   127286   17173
     Sum        6329    6329   1669              1018269  1018269  137367
 


     bravais-lattice index     =            0
     lattice parameter (alat)  =      12.3059  a.u.
     unit-cell volume          =    7538.1458 (a.u.)^3
     number of atoms/cell      =          112
     number of atomic types    =            4
     number of electrons       =       424.00
     number of Kohn-Sham states=          254
     kinetic-energy cutoff     =     100.0000  Ry
     charge density cutoff     =     400.0000  Ry
     convergence threshold     =      1.0E-08
     mixing beta               =       0.5000
     number of iterations used =            8  plain     mixing
     Exchange-correlation      =  SLA  PW   PBX  PBC ( 1  4  3  4 0 0)

     celldm(1)=  12.305897  celldm(2)=   0.000000  celldm(3)=   0.000000
     celldm(4)=   0.000000  celldm(5)=   0.000000  celldm(6)=   0.000000

     crystal axes: (cart. coord. in units of alat)
               a(1) = (   1.000000   0.000000   0.000000 )  
               a(2) = (   0.000000   1.312346   0.000000 )  
               a(3) = (   0.000000   0.000000   3.082310 )  

     reciprocal axes: (cart. coord. in units 2 pi/alat)
               b(1) = (  1.000000  0.000000  0.000000 )  
               b(2) = (  0.000000  0.761994  0.000000 )  
               b(3) = (  0.000000  0.000000  0.324432 )  


     PseudoPot. # 1 for  C read from file:
     /scratch/ahofstet/pseudo/C.pbe-n-kjpaw_psl.0.1.UPF
     MD5 check sum: 430fe95172b1e11ef3f8ed03bac87931
     Pseudo is Projector augmented-wave + core cor, Zval =  4.0
     Generated using "atomic" code by A. Dal Corso  v.5.0.99 svn rev. 10869
     Shape of augmentation charge: BESSEL
     Using radial grid of 1073 points,  4 beta functions with: 
                l(1) =   0
                l(2) =   0
                l(3) =   1
                l(4) =   1
     Q(r) pseudized with 0 coefficients 


     PseudoPot. # 2 for  N read from file:
     /scratch/ahofstet/pseudo/N.pbe-n-kjpaw_psl.0.1.UPF
     MD5 check sum: f73187c8b701007e77325f868c9291d7
     Pseudo is Projector augmented-wave + core cor, Zval =  5.0
     Generated using "atomic" code by A. Dal Corso  v.5.0.99 svn rev. 10869
     Shape of augmentation charge: PSQ
     Using radial grid of 1085 points,  4 beta functions with: 
                l(1) =   0
                l(2) =   0
                l(3) =   1
                l(4) =   1
     Q(r) pseudized with 0 coefficients 


     PseudoPot. # 3 for  H read from file:
     /scratch/ahofstet/pseudo/H.pbe-kjpaw_psl.0.1.UPF
     MD5 check sum: 94e484f906d9e9773b2f6e52662335b2
     Pseudo is Projector augmented-wave, Zval =  1.0
     Generated using "atomic" code by A. Dal Corso  v.5.0.99 svn rev. 10869
     Shape of augmentation charge: PSQ
     Using radial grid of  929 points,  2 beta functions with: 
                l(1) =   0
                l(2) =   0
     Q(r) pseudized with 0 coefficients 


     PseudoPot. # 4 for  O read from file:
     /scratch/ahofstet/pseudo/O.pbe-n-kjpaw_psl.0.1.UPF
     MD5 check sum: 3f94a2996a3169367d6eb21d9b593f20
     Pseudo is Projector augmented-wave + core cor, Zval =  6.0
     Generated using "atomic" code by A. Dal Corso  v.5.0.99 svn rev. 10869
     Shape of augmentation charge: BESSEL
     Using radial grid of 1095 points,  4 beta functions with: 
                l(1) =   0
                l(2) =   0
                l(3) =   1
                l(4) =   1
     Q(r) pseudized with 0 coefficients 


     atomic species   valence    mass     pseudopotential
        C              4.00    12.01070      C( 1.00)
        N              5.00    14.00670      N( 1.00)
        H              1.00     1.00794      H( 1.00)
        O              6.00    15.99940      O( 1.00)

      2 Sym. Ops. (no inversion) found ( 1 have fractional translation)
          (note:  2 additional sym.ops. were found but ignored
           their fractional translations are incommensurate with FFT grid)


   Cartesian axes

     site n.     atom                  positions (alat units)
         1           O   tau(   1) = (   0.3389824   1.2418177   1.4348475  )
         2           O   tau(   2) = (   0.1610176   0.0705287   2.9760023  )
         3           O   tau(   3) = (   0.8389824   0.7267020   1.6474621  )
         4           O   tau(   4) = (   0.6610176   0.5856445   0.1063073  )
         5           O   tau(   5) = (   0.0046380   0.0799078   1.0722837  )
         6           O   tau(   6) = (   0.4953620   1.2324386   2.6134385  )
         7           O   tau(   7) = (   0.5046380   0.5762654   2.0100259  )
         8           O   tau(   8) = (   0.9953620   0.7360810   0.4688711  )
         9           O   tau(   9) = (   1.0051910   0.3151393   1.3313379  )
        10           O   tau(  10) = (   0.4948090   0.9972071   2.8724927  )
        11           O   tau(  11) = (   0.5051910   0.3410339   1.7509717  )
        12           O   tau(  12) = (  -0.0051910   0.9713125   0.2098169  )
        13           O   tau(  13) = (   0.3203089   0.6283608   1.1263361  )
        14           O   tau(  14) = (   0.1796911   0.6839857   2.6674909  )
        15           O   tau(  15) = (   0.8203089   0.0278124   1.9559735  )
        16           O   tau(  16) = (   0.6796911   1.2845340   0.4148187  )
        17           O   tau(  17) = (   0.1636666   0.5157936   0.8512917  )
        18           O   tau(  18) = (   0.3363334   0.7965528   2.3924465  )
        19           O   tau(  19) = (   0.6636666   0.1403796   2.2310178  )
        20           O   tau(  20) = (   0.8363334   1.1719669   0.6898631  )
        21           O   tau(  21) = (   0.7505573   0.4300172   0.8183145  )
        22           O   tau(  22) = (   0.7494427   0.8823293   2.3594693  )
        23           O   tau(  23) = (   0.2505573   0.2261560   2.2639951  )
        24           O   tau(  24) = (   0.2494427   1.0861904   0.7228403  )
        25           O   tau(  25) = (   0.5850897   0.6915539   0.6867271  )
        26           O   tau(  26) = (   0.9149103   0.6207925   2.2278818  )
        27           O   tau(  27) = (   0.0850897   1.2769658   2.3955825  )
        28           O   tau(  28) = (   0.4149103   0.0353807   0.8544277  )
        29           N   tau(  29) = (   0.8332888   0.9996971   1.1823099  )
        30           N   tau(  30) = (   0.6667112   0.3126494   2.7234647  )
        31           N   tau(  31) = (   0.3332888   0.9688226   1.8999997  )
        32           N   tau(  32) = (   0.1667112   0.3435238   0.3588449  )
        33           N   tau(  33) = (   0.0144087   0.9011499   1.1866209  )
        34           N   tau(  34) = (   0.4855913   0.4111965   2.7277757  )
        35           N   tau(  35) = (   0.5144087   1.0673698   1.8956887  )
        36           N   tau(  36) = (   0.9855913   0.2449767   0.3545339  )
        37           N   tau(  37) = (   0.1715997   0.6208963   1.0079920  )
        38           N   tau(  38) = (   0.3284003   0.6914501   2.5491468  )
        39           N   tau(  39) = (   0.6715997   0.0352769   2.0743175  )
        40           N   tau(  40) = (   0.8284003   1.2770695   0.5331628  )
        41           N   tau(  41) = (   0.7055609   0.6136266   0.8114446  )
        42           N   tau(  42) = (   0.7944391   0.6987198   2.3525993  )
        43           N   tau(  43) = (   0.2055609   0.0425466   2.2708650  )
        44           N   tau(  44) = (   0.2944391   1.2697998   0.7297102  )
        45           C   tau(  45) = (   0.8027913   1.1865354   1.3078602  )
        46           C   tau(  46) = (   0.6972087   0.1258110   2.8490150  )
        47           C   tau(  47) = (   0.3027913   0.7819842   1.7744494  )
        48           C   tau(  48) = (   0.1972087   0.5303622   0.2332946  )
        49           C   tau(  49) = (   0.9713669   1.2030024   1.4718469  )
        50           C   tau(  50) = (   0.5286331   0.1093440   3.0130017  )
        51           C   tau(  51) = (   0.4713669   0.7655173   1.6104627  )
        52           C   tau(  52) = (   0.0286331   0.5468292   0.0693079  )
        53           C   tau(  53) = (   0.1665186   1.2972021   1.3857375  )
        54           C   tau(  54) = (   0.3334814   0.0151443   2.9268923  )
        55           C   tau(  55) = (   0.6665186   0.6713175   1.6965721  )
        56           C   tau(  56) = (   0.8334814   0.6410289   0.1554173  )
        57           C   tau(  57) = (   0.1266258   0.1605887   1.2326090  )
        58           C   tau(  58) = (   0.3733742   1.1517577   2.7737638  )
        59           C   tau(  59) = (   0.6266258   0.4955845   1.8497005  )
        60           C   tau(  60) = (   0.8733742   0.8167619   0.3085457  )
        61           C   tau(  61) = (   0.8062035   0.0634549   1.1674954  )
        62           C   tau(  62) = (   0.6937965   1.2488916   2.7086502  )
        63           C   tau(  63) = (   0.3062035   0.5927183   1.9148141  )
        64           C   tau(  64) = (   0.1937965   0.7196281   0.3736594  )
        65           C   tau(  65) = (   0.7921077   0.2609031   1.2962305  )
        66           C   tau(  66) = (   0.7078923   1.0514433   2.8373853  )
        67           C   tau(  67) = (   0.2921077   0.3952701   1.7860790  )
        68           C   tau(  68) = (   0.2078923   0.9170764   0.2449243  )
        69           C   tau(  69) = (  -0.0059444   0.7478323   1.0538131  )
        70           C   tau(  70) = (   0.5059444   0.5645141   2.5949679  )
        71           C   tau(  71) = (   0.4940556   1.2206873   2.0284965  )
        72           C   tau(  72) = (   1.0059444   0.0916591   0.4873417  )
        73           C   tau(  73) = (   0.7970027   0.7499312   0.9604566  )
        74           C   tau(  74) = (   0.7029973   0.5624153   2.5016114  )
        75           C   tau(  75) = (   0.2970027   1.2185885   2.1218529  )
        76           C   tau(  76) = (   0.2029973   0.0937580   0.5806981  )
        77           C   tau(  77) = (   0.6985638   0.9179240   1.0468353  )
        78           C   tau(  78) = (   0.8014362   0.3944224   2.5879900  )
        79           C   tau(  79) = (   0.1985638   1.0505956   2.0354743  )
        80           C   tau(  80) = (   0.3014362   0.2617508   0.4943195  )
        81           H   tau(  81) = (   0.6491411   1.1778412   1.3787501  )
        82           H   tau(  82) = (   0.8508589   0.1345052   2.9199049  )
        83           H   tau(  83) = (   0.1491411   0.7906784   1.7035595  )
        84           H   tau(  84) = (   0.3508589   0.5216680   0.1624047  )
        85           H   tau(  85) = (   0.9140696   1.3065891   1.5923496  )
        86           H   tau(  86) = (   0.5859304   0.0057574   0.0511949  )
        87           H   tau(  87) = (   0.4140696   0.6619306   1.4899599  )
        88           H   tau(  88) = (   0.0859304   0.6504159   3.0311147  )
        89           H   tau(  89) = (   1.0025391   1.0539390   1.5426271  )
        90           H   tau(  90) = (   0.4974609   0.2584075   3.0837819  )
        91           H   tau(  91) = (   0.5025391   0.9145807   1.5396825  )
        92           H   tau(  92) = (  -0.0025391   0.3977658  -0.0014723  )
        93           H   tau(  93) = (   0.2676870   0.2271846   1.1698020  )
        94           H   tau(  94) = (   0.2323130   1.0851619   2.7109568  )
        95           H   tau(  95) = (   0.7676870   0.4289886   1.9125076  )
        96           H   tau(  96) = (   0.7323130   0.8833578   0.3713528  )
        97           H   tau(  97) = (   0.6919226   0.0523010   1.0453192  )
        98           H   tau(  98) = (   0.8080774   1.2600454   2.5864740  )
        99           H   tau(  99) = (   0.1919226   0.6038722   2.0369903  )
       100           H   tau( 100) = (   0.3080774   0.7084743   0.4958356  )
       101           H   tau( 101) = (   0.7125730   0.2376808   1.4434379  )
       102           H   tau( 102) = (   0.7874270   1.0746656   2.9845927  )
       103           H   tau( 103) = (   0.2125730   0.4184924   1.6388717  )
       104           H   tau( 104) = (   0.2874270   0.8938540   0.0977169  )
       105           H   tau( 105) = (   0.7176485   0.3849267   1.2097401  )
       106           H   tau( 106) = (   0.7823515   0.9274197   2.7508949  )
       107           H   tau( 107) = (   0.2176485   0.2712465   1.8725694  )
       108           H   tau( 108) = (   0.2823515   1.0410999   0.3314146  )
       109           H   tau( 109) = (   0.5466675   0.9800540   1.0190017  )
       110           H   tau( 110) = (   0.9533325   0.3322924   2.5601565  )
       111           H   tau( 111) = (   0.0466675   0.9884656   2.0633079  )
       112           H   tau( 112) = (   0.4533325   0.3238808   0.5221531  )

     number of k points=     4
                       cart. coord. in units 2pi/alat
        k(    1) = (   0.0000000   0.0000000   0.0000000), wk =   0.3333333
        k(    2) = (   0.0000000  -0.3809970   0.0000000), wk =   0.3333333
        k(    3) = (   0.3333333   0.0000000   0.0000000), wk =   0.6666667
        k(    4) = (   0.3333333  -0.3809970   0.0000000), wk =   0.6666667

     Dense  grid:  1018269 G-vectors     FFT dimensions: (  80, 108, 243)

     Estimated max dynamical RAM per process >    1082.08MB

     Estimated total allocated dynamical RAM >    8656.64MB

     Check: negative/imaginary core charge=   -0.000002    0.000000

     Initial potential from superposition of free atoms

     starting charge  423.99804, renormalised to  424.00000
     Starting wfc are  352 randomized atomic wfcs
     Checking if some PAW data can be deallocated... 

     total cpu time spent up to now is       37.7 secs

     per-process dynamical memory:   628.5 Mb

     Self-consistent Calculation

     iteration #  1     ecut=   100.00 Ry     beta=0.50
     Davidson diagonalization with overlap
     ethr =  1.00E-02,  avg # of iterations =  3.8

     total cpu time spent up to now is      147.1 secs

     total energy              =   -2315.58041851 Ry
     Harris-Foulkes estimate   =   -2320.91462143 Ry
     estimated scf accuracy    <      10.21250706 Ry

     iteration #  2     ecut=   100.00 Ry     beta=0.50
     Davidson diagonalization with overlap
     ethr =  2.41E-03,  avg # of iterations =  3.0

     total cpu time spent up to now is      217.9 secs

     total energy              =   -2316.88472644 Ry
     Harris-Foulkes estimate   =   -2318.05991232 Ry
     estimated scf accuracy    <       2.49771323 Ry

     iteration #  3     ecut=   100.00 Ry     beta=0.50
     Davidson diagonalization with overlap
     ethr =  5.89E-04,  avg # of iterations =  7.0

     total cpu time spent up to now is      316.7 secs

     total energy              =   -2317.53679201 Ry
     Harris-Foulkes estimate   =   -2317.75479548 Ry
     estimated scf accuracy    <       0.55085200 Ry

     iteration #  4     ecut=   100.00 Ry     beta=0.50
     Davidson diagonalization with overlap
     ethr =  1.30E-04,  avg # of iterations =  2.0

     total cpu time spent up to now is      373.8 secs

     total energy              =   -2317.58439644 Ry
     Harris-Foulkes estimate   =   -2317.60870850 Ry
     estimated scf accuracy    <       0.06469083 Ry

     iteration #  5     ecut=   100.00 Ry     beta=0.50
     Davidson diagonalization with overlap
     ethr =  1.53E-05,  avg # of iterations =  7.2

     total cpu time spent up to now is      503.7 secs

     total energy              =   -2317.61544456 Ry
     Harris-Foulkes estimate   =   -2317.64051511 Ry
     estimated scf accuracy    <       0.07598862 Ry

     iteration #  6     ecut=   100.00 Ry     beta=0.50
     Davidson diagonalization with overlap
     ethr =  1.53E-05,  avg # of iterations =  2.0

     total cpu time spent up to now is      561.5 secs

     total energy              =   -2317.61744568 Ry
     Harris-Foulkes estimate   =   -2317.62467068 Ry
     estimated scf accuracy    <       0.02128533 Ry

     iteration #  7     ecut=   100.00 Ry     beta=0.50
     Davidson diagonalization with overlap
     ethr =  5.02E-06,  avg # of iterations =  6.5

     total cpu time spent up to now is      640.2 secs

     total energy              =   -2317.62216605 Ry
     Harris-Foulkes estimate   =   -2317.62284963 Ry
     estimated scf accuracy    <       0.00177145 Ry

     iteration #  8     ecut=   100.00 Ry     beta=0.50
     Davidson diagonalization with overlap
     ethr =  4.18E-07,  avg # of iterations =  8.5

     total cpu time spent up to now is      756.5 secs

     total energy              =   -2317.62276815 Ry
     Harris-Foulkes estimate   =   -2317.62318537 Ry
     estimated scf accuracy    <       0.00109736 Ry

     iteration #  9     ecut=   100.00 Ry     beta=0.50
     Davidson diagonalization with overlap
     ethr =  2.59E-07,  avg # of iterations =  1.0

     total cpu time spent up to now is      810.6 secs

     total energy              =   -2317.62278594 Ry
     Harris-Foulkes estimate   =   -2317.62289409 Ry
     estimated scf accuracy    <       0.00023841 Ry

     iteration # 10     ecut=   100.00 Ry     beta=0.50
     Davidson diagonalization with overlap
     ethr =  5.62E-08,  avg # of iterations =  4.0

     total cpu time spent up to now is      910.6 secs

     total energy              =   -2317.62293164 Ry
     Harris-Foulkes estimate   =   -2317.62296069 Ry
     estimated scf accuracy    <       0.00012681 Ry

     iteration # 11     ecut=   100.00 Ry     beta=0.50
     Davidson diagonalization with overlap
     ethr =  2.99E-08,  avg # of iterations =  1.5

     total cpu time spent up to now is      965.6 secs

     total energy              =   -2317.62292527 Ry
     Harris-Foulkes estimate   =   -2317.62294239 Ry
     estimated scf accuracy    <       0.00005127 Ry

     iteration # 12     ecut=   100.00 Ry     beta=0.50
     Davidson diagonalization with overlap
     ethr =  1.21E-08,  avg # of iterations =  3.5

     total cpu time spent up to now is     1027.8 secs

     total energy              =   -2317.62292974 Ry
     Harris-Foulkes estimate   =   -2317.62293208 Ry
     estimated scf accuracy    <       0.00000721 Ry

     iteration # 13     ecut=   100.00 Ry     beta=0.50
     Davidson diagonalization with overlap
     ethr =  1.70E-09,  avg # of iterations =  4.0

     total cpu time spent up to now is     1126.1 secs

     total energy              =   -2317.62293289 Ry
     Harris-Foulkes estimate   =   -2317.62293318 Ry
     estimated scf accuracy    <       0.00000093 Ry

     iteration # 14     ecut=   100.00 Ry     beta=0.50
     Davidson diagonalization with overlap
     ethr =  2.19E-10,  avg # of iterations =  2.0

     total cpu time spent up to now is     1184.8 secs

     total energy              =   -2317.62293294 Ry
     Harris-Foulkes estimate   =   -2317.62293304 Ry
     estimated scf accuracy    <       0.00000022 Ry

     iteration # 15     ecut=   100.00 Ry     beta=0.50
     Davidson diagonalization with overlap
     ethr =  5.11E-11,  avg # of iterations =  3.5

     total cpu time spent up to now is     1275.9 secs

     total energy              =   -2317.62293301 Ry
     Harris-Foulkes estimate   =   -2317.62293307 Ry
     estimated scf accuracy    <       0.00000021 Ry

     iteration # 16     ecut=   100.00 Ry     beta=0.50
     Davidson diagonalization with overlap
     ethr =  4.90E-11,  avg # of iterations =  2.0

     total cpu time spent up to now is     1334.6 secs

     total energy              =   -2317.62293303 Ry
     Harris-Foulkes estimate   =   -2317.62293304 Ry
     estimated scf accuracy    <       0.00000002 Ry

     iteration # 17     ecut=   100.00 Ry     beta=0.50
     Davidson diagonalization with overlap
     ethr =  5.14E-12,  avg # of iterations =  3.2

     total cpu time spent up to now is     1421.3 secs

     End of self-consistent calculation

          k = 0.0000 0.0000 0.0000 (127409 PWs)   bands (ev):

   -23.8770 -23.8770 -23.8684 -23.8684 -23.7457 -23.7457 -23.7433 -23.7433
   -20.6535 -20.6513 -20.6451 -20.6429 -20.2777 -20.2773 -20.2730 -20.2725
   -19.3789 -19.3788 -19.3741 -19.3741 -19.2951 -19.2950 -19.2938 -19.2938
   -19.1292 -19.1292 -19.1277 -19.1276 -18.0336 -18.0331 -18.0204 -18.0200
   -15.1796 -15.1746 -15.1730 -15.1679 -13.9919 -13.9899 -13.9740 -13.9718
   -13.2077 -13.2067 -13.1947 -13.1940 -12.2236 -12.2155 -12.1893 -12.1817
   -11.7864 -11.7849 -11.7840 -11.7825 -10.9958 -10.9924 -10.9456 -10.9434
    -9.3976  -9.3685  -9.3555  -9.3370  -9.0278  -9.0249  -9.0146  -9.0083
    -8.3619  -8.3039  -8.3014  -8.2614  -8.0253  -7.9890  -7.9807  -7.9626
    -7.3151  -7.3013  -7.2962  -7.2908  -7.2101  -7.1631  -7.0482  -7.0241
    -6.8710  -6.8115  -6.7603  -6.7321  -6.3554  -6.3400  -6.3051  -6.2670
    -6.2334  -6.2289  -6.1902  -6.1777  -6.0503  -6.0403  -6.0093  -5.9853
    -5.9546  -5.9479  -5.8506  -5.8372  -5.6319  -5.5942  -5.5577  -5.5182
    -5.5174  -5.4687  -5.4237  -5.4086  -5.4018  -5.3072  -5.2726  -5.2122
    -5.0684  -5.0498  -4.9970  -4.9710  -4.4037  -4.4009  -4.3751  -4.3600
    -4.1287  -4.1209  -4.1191  -4.0909  -3.9985  -3.9368  -3.9040  -3.8647
    -3.8286  -3.8212  -3.7854  -3.7612  -3.5783  -3.5769  -3.5592  -3.5582
    -3.3539  -3.3254  -3.3195  -3.3168  -3.1931  -3.1907  -3.0028  -3.0002
    -2.6030  -2.5908  -2.4684  -2.4633  -2.3184  -2.3040  -2.1404  -2.1188
    -1.8707  -1.8694  -1.8095  -1.8080  -1.4991  -1.4444  -1.4422  -1.4160
    -1.2793  -1.2642  -1.2237  -1.1660  -0.8846  -0.8830  -0.7952  -0.7794
    -0.7661  -0.7503  -0.7188  -0.6981  -0.5885  -0.5880  -0.5371  -0.5332
    -0.4438  -0.4405  -0.3996  -0.3872  -0.3012  -0.2791  -0.2755  -0.2534
    -0.1362  -0.1228  -0.0895  -0.0831  -0.0630  -0.0559  -0.0544  -0.0209
     0.0861   0.1079   0.1478   0.1620   0.3085   0.3365   0.3727   0.4004
     0.5366   0.5683   0.6147   0.6255   0.6615   0.6659   0.6920   0.7171
     1.5655   1.5718   1.6572   1.6630   3.3855   3.3879   3.4688   3.4822
     4.2389   4.2413   4.2541   4.2611   5.0458   5.0494   5.0795   5.0949
     5.9419   5.9518   6.0035   6.0148   7.3754   7.5334   7.5624   7.5692
     7.6841   7.7832   7.8361   7.8512   7.9106   7.9703   8.1277   8.1481
     8.1633   8.2659   8.2864   8.4915   8.6572   8.7257   8.8243   9.1216
     9.1340   9.2473   9.2527   9.2884   9.3558   9.4045

          k = 0.0000-0.3810 0.0000 (127276 PWs)   bands (ev):

   -23.8726 -23.8726 -23.8726 -23.8726 -23.7446 -23.7446 -23.7446 -23.7446
   -20.6503 -20.6503 -20.6461 -20.6461 -20.2763 -20.2762 -20.2751 -20.2751
   -19.3764 -19.3764 -19.3763 -19.3763 -19.2943 -19.2943 -19.2943 -19.2943
   -19.1321 -19.1321 -19.1247 -19.1247 -18.0320 -18.0320 -18.0188 -18.0188
   -15.1809 -15.1809 -15.1743 -15.1742 -13.9830 -13.9830 -13.9809 -13.9809
   -13.1968 -13.1968 -13.1930 -13.1929 -12.1977 -12.1977 -12.1901 -12.1901
   -11.8038 -11.8038 -11.7978 -11.7977 -10.9648 -10.9648 -10.9601 -10.9601
    -9.3647  -9.3647  -9.3522  -9.3522  -9.0938  -9.0937  -9.0194  -9.0194
    -8.2985  -8.2984  -8.2526  -8.2526  -8.0116  -8.0115  -7.9730  -7.9730
    -7.3193  -7.3193  -7.3099  -7.3099  -7.1406  -7.1406  -7.1075  -7.1075
    -6.7330  -6.7330  -6.6291  -6.6291  -6.3943  -6.3943  -6.3596  -6.3595
    -6.2495  -6.2495  -6.2165  -6.2165  -6.0261  -6.0261  -6.0113  -6.0113
    -5.9402  -5.9402  -5.9128  -5.9128  -5.5876  -5.5876  -5.5511  -5.5511
    -5.5238  -5.5238  -5.4418  -5.4418  -5.3296  -5.3296  -5.2469  -5.2469
    -4.9959  -4.9959  -4.8971  -4.8971  -4.4638  -4.4638  -4.3355  -4.3355
    -4.1466  -4.1465  -4.0847  -4.0847  -3.9470  -3.9470  -3.9178  -3.9178
    -3.8438  -3.8438  -3.7489  -3.7489  -3.6519  -3.6519  -3.6373  -3.6373
    -3.3438  -3.3438  -3.3127  -3.3127  -3.1337  -3.1337  -3.0403  -3.0403
    -2.5371  -2.5371  -2.3869  -2.3869  -2.3172  -2.3172  -2.1145  -2.1145
    -1.8623  -1.8622  -1.8284  -1.8284  -1.4816  -1.4816  -1.4305  -1.4305
    -1.2292  -1.2292  -1.2089  -1.2089  -0.8425  -0.8425  -0.8244  -0.8243
    -0.7521  -0.7521  -0.7490  -0.7490  -0.5557  -0.5557  -0.5537  -0.5537
    -0.4178  -0.4178  -0.4125  -0.4125  -0.2473  -0.2473  -0.2408  -0.2408
    -0.1067  -0.1067  -0.0896  -0.0896  -0.0765  -0.0765  -0.0381  -0.0381
     0.0049   0.0049   0.0821   0.0821   0.3722   0.3722   0.3921   0.3921
     0.5254   0.5254   0.5941   0.5941   0.6947   0.6947   0.7277   0.7277
     1.5261   1.5261   1.6607   1.6608   3.4293   3.4293   3.4345   3.4345
     4.2392   4.2392   4.2475   4.2475   5.0318   5.0318   5.0958   5.0959
     6.0014   6.0014   6.0155   6.0155   7.5737   7.5737   7.6017   7.6018
     7.7619   7.7619   7.8523   7.8523   8.0185   8.0185   8.1048   8.1048
     8.2684   8.2684   8.4539   8.4539   8.4811   8.4811   8.8737   8.8737
     9.0464   9.0464   9.1022   9.1022   9.3067   9.3069

          k = 0.3333 0.0000 0.0000 (127247 PWs)   bands (ev):

   -23.8600 -23.8600 -23.8535 -23.8534 -23.7645 -23.7645 -23.7577 -23.7577
   -20.6496 -20.6477 -20.6453 -20.6435 -20.2774 -20.2772 -20.2732 -20.2730
   -19.3813 -19.3813 -19.3780 -19.3779 -19.2982 -19.2981 -19.2856 -19.2856
   -19.1300 -19.1299 -19.1292 -19.1291 -18.0304 -18.0299 -18.0238 -18.0233
   -15.1812 -15.1779 -15.1775 -15.1741 -13.9875 -13.9866 -13.9658 -13.9644
   -13.2193 -13.2186 -13.2139 -13.2133 -12.2278 -12.2113 -12.2001 -12.1828
   -11.7927 -11.7916 -11.7823 -11.7816 -10.9743 -10.9729 -10.9464 -10.9446
    -9.3617  -9.3484  -9.3410  -9.3310  -8.9961  -8.9924  -8.9890  -8.9865
    -8.3455  -8.3162  -8.2456  -8.2187  -7.9765  -7.9635  -7.9422  -7.9265
    -7.4522  -7.4484  -7.3691  -7.3680  -7.0278  -7.0247  -6.9731  -6.9511
    -6.8300  -6.7798  -6.7769  -6.7170  -6.3367  -6.3366  -6.2937  -6.2802
    -6.2435  -6.2094  -6.1810  -6.1619  -6.0293  -6.0191  -5.9625  -5.9579
    -5.9322  -5.9313  -5.8089  -5.7901  -5.5971  -5.5834  -5.5097  -5.5019
    -5.4945  -5.4814  -5.4489  -5.3889  -5.3691  -5.3448  -5.2536  -5.2307
    -5.0980  -5.0853  -5.0794  -5.0507  -4.7069  -4.6891  -4.6876  -4.6669
    -4.2500  -4.2430  -4.2183  -4.2052  -4.0027  -3.9900  -3.9597  -3.9420
    -3.9008  -3.8897  -3.8851  -3.8810  -3.5221  -3.5192  -3.4889  -3.4856
    -3.3042  -3.3023  -3.2975  -3.2880  -3.0578  -3.0347  -3.0088  -2.9869
    -2.5605  -2.5413  -2.5245  -2.5000  -2.1471  -2.1392  -2.0279  -2.0189
    -1.9025  -1.8994  -1.8205  -1.8086  -1.4763  -1.4491  -1.4181  -1.4174
    -1.2800  -1.2627  -1.2426  -1.1874  -0.8806  -0.8747  -0.8352  -0.8292
    -0.7840  -0.7837  -0.6929  -0.6912  -0.6351  -0.6249  -0.4909  -0.4877
    -0.3813  -0.3801  -0.3361  -0.3318  -0.2495  -0.2433  -0.2098  -0.2093
    -0.1742  -0.1680  -0.1211  -0.1083  -0.0834  -0.0795  -0.0298  -0.0275
     0.0763   0.1140   0.1240   0.1350   0.3480   0.3555   0.3643   0.3715
     0.5501   0.5810   0.6246   0.6432   0.6629   0.6832   0.7210   0.7235
     1.6580   1.6677   1.7065   1.7147   3.4866   3.4874   3.5402   3.5458
     4.1230   4.1313   4.1324   4.1435   5.0200   5.0309   5.0367   5.0514
     5.9798   5.9827   6.1131   6.1204   7.4624   7.4990   7.6154   7.6434
     7.6489   7.7914   7.7978   7.8216   7.9510   8.0038   8.0710   8.1398
     8.3593   8.4353   8.5568   8.6330   8.6763   8.7318   8.7613   8.9143
     9.0874   9.1359   9.2789   9.2842   9.3212   9.3325

          k = 0.3333-0.3810 0.0000 (127328 PWs)   bands (ev):

   -23.8566 -23.8566 -23.8566 -23.8566 -23.7611 -23.7611 -23.7611 -23.7611
   -20.6476 -20.6476 -20.6455 -20.6454 -20.2761 -20.2761 -20.2755 -20.2755
   -19.3797 -19.3797 -19.3797 -19.3797 -19.2916 -19.2916 -19.2916 -19.2916
   -19.1314 -19.1314 -19.1277 -19.1277 -18.0287 -18.0287 -18.0221 -18.0221
   -15.1834 -15.1834 -15.1800 -15.1800 -13.9771 -13.9770 -13.9759 -13.9759
   -13.2085 -13.2085 -13.2068 -13.2068 -12.1982 -12.1982 -12.1932 -12.1932
   -11.8105 -11.8105 -11.8064 -11.8064 -10.9572 -10.9572 -10.9547 -10.9547
    -9.3370  -9.3370  -9.3332  -9.3332  -9.0321  -9.0321  -8.9938  -8.9938
    -8.2743  -8.2743  -8.2613  -8.2613  -7.9583  -7.9583  -7.9337  -7.9337
    -7.4183  -7.4183  -7.4114  -7.4114  -7.0555  -7.0555  -7.0358  -7.0358
    -6.6778  -6.6778  -6.6187  -6.6187  -6.4040  -6.4040  -6.3805  -6.3805
    -6.2156  -6.2156  -6.1962  -6.1962  -6.0193  -6.0193  -6.0006  -6.0006
    -5.8638  -5.8638  -5.8504  -5.8504  -5.5635  -5.5635  -5.5184  -5.5184
    -5.4901  -5.4901  -5.4465  -5.4465  -5.3370  -5.3370  -5.2747  -5.2747
    -5.0281  -5.0281  -5.0093  -5.0093  -4.6919  -4.6919  -4.6584  -4.6583
    -4.2945  -4.2945  -4.1882  -4.1881  -4.0354  -4.0354  -3.9919  -3.9919
    -3.9255  -3.9255  -3.8529  -3.8529  -3.5322  -3.5322  -3.5013  -3.5013
    -3.3013  -3.3013  -3.2926  -3.2926  -3.0684  -3.0684  -3.0278  -3.0278
    -2.4804  -2.4804  -2.4346  -2.4346  -2.1402  -2.1402  -2.0269  -2.0269
    -1.8803  -1.8803  -1.8306  -1.8306  -1.4548  -1.4548  -1.4265  -1.4265
    -1.2442  -1.2442  -1.2315  -1.2315  -0.8641  -0.8641  -0.8477  -0.8477
    -0.7417  -0.7417  -0.7348  -0.7348  -0.5797  -0.5797  -0.5748  -0.5748
    -0.3700  -0.3700  -0.3578  -0.3578  -0.2055  -0.2055  -0.1942  -0.1942
    -0.1474  -0.1474  -0.1289  -0.1289  -0.0473  -0.0473  -0.0297  -0.0297
     0.0278   0.0278   0.0475   0.0475   0.3644   0.3644   0.3748   0.3748
     0.5714   0.5714   0.6178   0.6178   0.7100   0.7100   0.7268   0.7268
     1.6290   1.6290   1.6954   1.6955   3.5125   3.5125   3.5163   3.5163
     4.1324   4.1324   4.1388   4.1388   5.0204   5.0204   5.0462   5.0462
     6.0663   6.0663   6.0768   6.0768   7.5419   7.5419   7.5547   7.5547
     7.8453   7.8454   7.9105   7.9106   8.0611   8.0611   8.1849   8.1850
     8.3513   8.3513   8.5868   8.5868   8.7319   8.7319   8.7798   8.7798
     8.9364   8.9364   9.1076   9.1076   9.2549   9.2549

     highest occupied, lowest unoccupied level (ev):     1.7147    3.3855

!    total energy              =   -2317.62293303 Ry
     Harris-Foulkes estimate   =   -2317.62293304 Ry
     estimated scf accuracy    <          6.2E-09 Ry

     total all-electron energy =     -8745.624251 Ry

     The total energy is the sum of the following terms:

     one-electron contribution =   -1269.99319777 Ry
     hartree contribution      =     810.36984826 Ry
     xc contribution           =    -464.79539073 Ry
     ewald contribution        =    -754.14325313 Ry
     Dispersion Correction     =      -0.52721989 Ry
     one-center paw contrib.   =    -638.53371977 Ry

     convergence has been achieved in  17 iterations

     Forces acting on atoms (cartesian axes, Ry/au):

     atom    1 type  4   force =    -0.00664125    0.00669956   -0.00051033
     atom    2 type  4   force =     0.00664398   -0.00670070   -0.00051118
     atom    3 type  4   force =    -0.00664125   -0.00669956    0.00051033
     atom    4 type  4   force =     0.00664398    0.00670070    0.00051118
     atom    5 type  4   force =     0.00264149    0.00082545   -0.00061979
     atom    6 type  4   force =    -0.00264034   -0.00082509   -0.00061704
     atom    7 type  4   force =     0.00264149   -0.00082545    0.00061979
     atom    8 type  4   force =    -0.00264034    0.00082509    0.00061704
     atom    9 type  4   force =     0.00347011    0.00096501   -0.00186295
     atom   10 type  4   force =    -0.00346911   -0.00096339   -0.00186034
     atom   11 type  4   force =     0.00347011   -0.00096501    0.00186295
     atom   12 type  4   force =    -0.00346911    0.00096339    0.00186034
     atom   13 type  4   force =     0.00048560    0.00079065    0.00216095
     atom   14 type  4   force =    -0.00047557   -0.00079061    0.00215246
     atom   15 type  4   force =     0.00048560   -0.00079065   -0.00216095
     atom   16 type  4   force =    -0.00047557    0.00079061   -0.00215246
     atom   17 type  4   force =     0.00067922   -0.00058652   -0.00097594
     atom   18 type  4   force =    -0.00067888    0.00059232   -0.00098643
     atom   19 type  4   force =     0.00067922    0.00058652    0.00097594
     atom   20 type  4   force =    -0.00067888   -0.00059232    0.00098643
     atom   21 type  4   force =    -0.00245418   -0.00071682    0.00012645
     atom   22 type  4   force =     0.00245220    0.00072269    0.00012554
     atom   23 type  4   force =    -0.00245418    0.00071682   -0.00012645
     atom   24 type  4   force =     0.00245220   -0.00072269   -0.00012554
     atom   25 type  4   force =    -0.00044259    0.00131519    0.00093572
     atom   26 type  4   force =     0.00044222   -0.00131479    0.00093418
     atom   27 type  4   force =    -0.00044259   -0.00131519   -0.00093572
     atom   28 type  4   force =     0.00044222    0.00131479   -0.00093418
     atom   29 type  2   force =     0.00180227    0.00200082    0.00528812
     atom   30 type  2   force =    -0.00180308   -0.00200091    0.00528767
     atom   31 type  2   force =     0.00180227   -0.00200082   -0.00528812
     atom   32 type  2   force =    -0.00180308    0.00200091   -0.00528767
     atom   33 type  2   force =     0.00028933    0.00199757   -0.00142447
     atom   34 type  2   force =    -0.00028681   -0.00199749   -0.00142572
     atom   35 type  2   force =     0.00028933   -0.00199757    0.00142447
     atom   36 type  2   force =    -0.00028681    0.00199749    0.00142572
     atom   37 type  2   force =    -0.00224185    0.00257235    0.00252375
     atom   38 type  2   force =     0.00223861   -0.00257487    0.00252869
     atom   39 type  2   force =    -0.00224185   -0.00257235   -0.00252375
     atom   40 type  2   force =     0.00223861    0.00257487   -0.00252869
     atom   41 type  2   force =     0.00328740    0.00083854    0.00198093
     atom   42 type  2   force =    -0.00328919   -0.00084013    0.00198279
     atom   43 type  2   force =     0.00328740   -0.00083854   -0.00198093
     atom   44 type  2   force =    -0.00328919    0.00084013   -0.00198279
     atom   45 type  1   force =    -0.00636067   -0.00580782   -0.00026355
     atom   46 type  1   force =     0.00635998    0.00580778   -0.00027313
     atom   47 type  1   force =    -0.00636067    0.00580782    0.00026355
     atom   48 type  1   force =     0.00635998   -0.00580778    0.00027313
     atom   49 type  1   force =     0.00321613    0.00024227   -0.00432727
     atom   50 type  1   force =    -0.00321623   -0.00024216   -0.00432900
     atom   51 type  1   force =     0.00321613   -0.00024227    0.00432727
     atom   52 type  1   force =    -0.00321623    0.00024216    0.00432900
     atom   53 type  1   force =     0.00229402   -0.00387411    0.00566334
     atom   54 type  1   force =    -0.00229479    0.00387418    0.00564845
     atom   55 type  1   force =     0.00229402    0.00387411   -0.00566334
     atom   56 type  1   force =    -0.00229479   -0.00387418   -0.00564845
     atom   57 type  1   force =    -0.00453403   -0.00105982    0.00469399
     atom   58 type  1   force =     0.00453369    0.00106010    0.00467431
     atom   59 type  1   force =    -0.00453403    0.00105982   -0.00469399
     atom   60 type  1   force =     0.00453369   -0.00106010   -0.00467431
     atom   61 type  1   force =    -0.00068899    0.00098390    0.00089186
     atom   62 type  1   force =     0.00068808   -0.00098341    0.00088917
     atom   63 type  1   force =    -0.00068899   -0.00098390   -0.00089186
     atom   64 type  1   force =     0.00068808    0.00098341   -0.00088917
     atom   65 type  1   force =    -0.00125871   -0.00088356   -0.00262386
     atom   66 type  1   force =     0.00125727    0.00088350   -0.00263432
     atom   67 type  1   force =    -0.00125871    0.00088356    0.00262386
     atom   68 type  1   force =     0.00125727   -0.00088350    0.00263432
     atom   69 type  1   force =    -0.00036314   -0.00376813   -0.00381486
     atom   70 type  1   force =     0.00036209    0.00376898   -0.00381972
     atom   71 type  1   force =    -0.00036314    0.00376813    0.00381486
     atom   72 type  1   force =     0.00036209   -0.00376898    0.00381972
     atom   73 type  1   force =     0.00277158    0.00177002   -0.00097382
     atom   74 type  1   force =    -0.00277123   -0.00176838   -0.00095959
     atom   75 type  1   force =     0.00277158   -0.00177002    0.00097382
     atom   76 type  1   force =    -0.00277123    0.00176838    0.00095959
     atom   77 type  1   force =    -0.00002500   -0.00491923   -0.00112390
     atom   78 type  1   force =     0.00002537    0.00491784   -0.00112061
     atom   79 type  1   force =    -0.00002500    0.00491923    0.00112390
     atom   80 type  1   force =     0.00002537   -0.00491784    0.00112061
     atom   81 type  3   force =     0.00862850   -0.00384839   -0.00349775
     atom   82 type  3   force =    -0.00862963    0.00384834   -0.00349809
     atom   83 type  3   force =     0.00862850    0.00384839    0.00349775
     atom   84 type  3   force =    -0.00862963   -0.00384834    0.00349809
     atom   85 type  3   force =    -0.00149592    0.00040401    0.00119467
     atom   86 type  3   force =     0.00149550   -0.00040401    0.00119494
     atom   87 type  3   force =    -0.00149592   -0.00040401   -0.00119467
     atom   88 type  3   force =     0.00149550    0.00040401   -0.00119494
     atom   89 type  3   force =     0.00041816   -0.00004516    0.00051031
     atom   90 type  3   force =    -0.00041852    0.00004500    0.00051020
     atom   91 type  3   force =     0.00041816    0.00004516   -0.00051031
     atom   92 type  3   force =    -0.00041852   -0.00004500   -0.00051020
     atom   93 type  3   force =     0.00341034    0.00112807   -0.00029725
     atom   94 type  3   force =    -0.00341107   -0.00112818   -0.00029708
     atom   95 type  3   force =     0.00341034   -0.00112807    0.00029725
     atom   96 type  3   force =    -0.00341107    0.00112818    0.00029708
     atom   97 type  3   force =    -0.00064247    0.00062658   -0.00061095
     atom   98 type  3   force =     0.00064205   -0.00062644   -0.00061079
     atom   99 type  3   force =    -0.00064247   -0.00062658    0.00061095
     atom  100 type  3   force =     0.00064205    0.00062644    0.00061079
     atom  101 type  3   force =     0.00000123    0.00011231   -0.00059705
     atom  102 type  3   force =    -0.00000207   -0.00011249   -0.00059742
     atom  103 type  3   force =     0.00000123   -0.00011231    0.00059705
     atom  104 type  3   force =    -0.00000207    0.00011249    0.00059742
     atom  105 type  3   force =     0.00132991    0.00113962   -0.00049947
     atom  106 type  3   force =    -0.00133048   -0.00113967   -0.00049948
     atom  107 type  3   force =     0.00132991   -0.00113962    0.00049947
     atom  108 type  3   force =    -0.00133048    0.00113967    0.00049948
     atom  109 type  3   force =    -0.00189934    0.00123236    0.00007451
     atom  110 type  3   force =     0.00189883   -0.00123257    0.00007495
     atom  111 type  3   force =    -0.00189934   -0.00123236   -0.00007451
     atom  112 type  3   force =     0.00189883    0.00123257   -0.00007495

     Total force =     0.049429     Total SCF correction =     0.000172


     Computing stress (Cartesian axis) and pressure

          total   stress  (Ry/bohr**3)                   (kbar)     P=   -4.10
  -0.00001293   0.00000000   0.00000000         -1.90      0.00      0.00
   0.00000000  -0.00002897   0.00000000          0.00     -4.26      0.00
   0.00000000   0.00000000  -0.00004176          0.00      0.00     -6.14


     Writing output data file scf.save
 
     init_run     :     35.82s CPU     37.03s WALL (       1 calls)
     electrons    :   1333.81s CPU   1383.75s WALL (       1 calls)
     forces       :     19.01s CPU     19.27s WALL (       1 calls)
     stress       :    143.13s CPU    143.53s WALL (       1 calls)

     Called by init_run:
     wfcinit      :     27.82s CPU     28.84s WALL (       1 calls)
     potinit      :      2.87s CPU      2.91s WALL (       1 calls)

     Called by electrons:
     c_bands      :   1190.95s CPU   1232.64s WALL (      17 calls)
     sum_band     :    124.65s CPU    130.76s WALL (      17 calls)
     v_of_rho     :      2.82s CPU      3.07s WALL (      18 calls)
     newd         :      5.83s CPU      7.74s WALL (      18 calls)
     PAW_pot      :      8.65s CPU      8.66s WALL (      18 calls)
     mix_rho      :      0.79s CPU      0.85s WALL (      17 calls)

     Called by c_bands:
     init_us_2    :      8.11s CPU      8.17s WALL (     148 calls)
     cegterg      :   1160.15s CPU   1201.78s WALL (      68 calls)

     Called by sum_band:
     sum_band:bec :      0.08s CPU      0.08s WALL (      68 calls)
     addusdens    :      6.53s CPU      8.32s WALL (      17 calls)

     Called by *egterg:
     h_psi        :    624.54s CPU    653.05s WALL (     331 calls)
     s_psi        :    130.42s CPU    130.48s WALL (     331 calls)
     g_psi        :      4.13s CPU      4.14s WALL (     259 calls)
     cdiaghg      :     89.42s CPU     89.45s WALL (     327 calls)

     Called by h_psi:
     h_psi:pot    :    618.60s CPU    646.99s WALL (     331 calls)
     h_psi:calbec :    124.50s CPU    124.90s WALL (     331 calls)
     vloc_psi     :    363.75s CPU    391.65s WALL (     331 calls)
     add_vuspsi   :    130.35s CPU    130.44s WALL (     331 calls)

     General routines
     calbec       :    180.02s CPU    180.53s WALL (     419 calls)
     fft          :      1.66s CPU      2.05s WALL (     258 calls)
     fftw         :    383.59s CPU    414.62s WALL (  115536 calls)
 
     Parallel routines
     fft_scatter  :     66.56s CPU     92.46s WALL (  115794 calls)
 
     PWSCF        : 25m40.95s CPU    27m 2.87s WALL

 
   This run was terminated on:  15: 5:18  21Dec2017            

=------------------------------------------------------------------------------=
   JOB DONE.
=------------------------------------------------------------------------------=
