
     Program PWSCF v.6.1 (svn rev. 13369) starts on  7Dec2017 at  0:36:53 

     This program is part of the open-source Quantum ESPRESSO suite
     for quantum simulation of materials; please cite
         "P. Giannozzi et al., J. Phys.:Condens. Matter 21 395502 (2009);
          URL http://www.quantum-espresso.org", 
     in publications or presentations arising from this work. More details at
     http://www.quantum-espresso.org/quote

     Parallel version (MPI), running on     8 processors
     R & G space division:  proc/nbgrp/npool/nimage =       8
     Waiting for input...
     Reading input from standard input

     Current dimensions of program PWSCF are:
     Max number of different atomic species (ntypx) = 10
     Max number of k-points (npk) =  40000
     Max angular momentum in pseudopotentials (lmaxx) =  3
               file C.pbe-n-kjpaw_psl.0.1.UPF: wavefunction(s)  2P renormalized
               file N.pbe-n-kjpaw_psl.0.1.UPF: wavefunction(s)  2P renormalized
               file H.pbe-kjpaw_psl.0.1.UPF: wavefunction(s)  1S renormalized
               file O.pbe-n-kjpaw_psl.0.1.UPF: wavefunction(s)  2P renormalized

     -------------------------------------
     Parameters for Dispersion Correction:
     -------------------------------------
       atom      VdW radius       C_6     

        C          2.744         60.710
        N          2.640         42.670
        H          1.892          4.857
        O          2.536         24.284

     Subspace diagonalization in iterative solution of the eigenvalue problem:
     a serial algorithm will be used

 
     Parallelization info
     --------------------
     sticks:   dense  smooth     PW     G-vecs:    dense   smooth      PW
     Min         826     826    218               104836   104836   14239
     Max         827     827    219               104840   104840   14243
     Sum        6615    6615   1745               838709   838709  113929
 


     bravais-lattice index     =            0
     lattice parameter (alat)  =      15.8353  a.u.
     unit-cell volume          =    6207.1748 (a.u.)^3
     number of atoms/cell      =           92
     number of atomic types    =            4
     number of electrons       =       336.00
     number of Kohn-Sham states=          201
     kinetic-energy cutoff     =     100.0000  Ry
     charge density cutoff     =     400.0000  Ry
     convergence threshold     =      1.0E-08
     mixing beta               =       0.5000
     number of iterations used =            8  plain     mixing
     Exchange-correlation      =  SLA  PW   PBX  PBC ( 1  4  3  4 0 0)

     celldm(1)=  15.835338  celldm(2)=   0.000000  celldm(3)=   0.000000
     celldm(4)=   0.000000  celldm(5)=   0.000000  celldm(6)=   0.000000

     crystal axes: (cart. coord. in units of alat)
               a(1) = (   1.000000   0.000000   0.000000 )  
               a(2) = (   0.000000   0.827166   0.000000 )  
               a(3) = (  -0.142428   0.000000   1.889816 )  

     reciprocal axes: (cart. coord. in units 2 pi/alat)
               b(1) = (  1.000000  0.000000  0.075366 )  
               b(2) = (  0.000000  1.208948  0.000000 )  
               b(3) = (  0.000000  0.000000  0.529152 )  


     PseudoPot. # 1 for  C read from file:
     /scratch/ahofstet/pseudo/C.pbe-n-kjpaw_psl.0.1.UPF
     MD5 check sum: 430fe95172b1e11ef3f8ed03bac87931
     Pseudo is Projector augmented-wave + core cor, Zval =  4.0
     Generated using "atomic" code by A. Dal Corso  v.5.0.99 svn rev. 10869
     Shape of augmentation charge: BESSEL
     Using radial grid of 1073 points,  4 beta functions with: 
                l(1) =   0
                l(2) =   0
                l(3) =   1
                l(4) =   1
     Q(r) pseudized with 0 coefficients 


     PseudoPot. # 2 for  N read from file:
     /scratch/ahofstet/pseudo/N.pbe-n-kjpaw_psl.0.1.UPF
     MD5 check sum: f73187c8b701007e77325f868c9291d7
     Pseudo is Projector augmented-wave + core cor, Zval =  5.0
     Generated using "atomic" code by A. Dal Corso  v.5.0.99 svn rev. 10869
     Shape of augmentation charge: PSQ
     Using radial grid of 1085 points,  4 beta functions with: 
                l(1) =   0
                l(2) =   0
                l(3) =   1
                l(4) =   1
     Q(r) pseudized with 0 coefficients 


     PseudoPot. # 3 for  H read from file:
     /scratch/ahofstet/pseudo/H.pbe-kjpaw_psl.0.1.UPF
     MD5 check sum: 94e484f906d9e9773b2f6e52662335b2
     Pseudo is Projector augmented-wave, Zval =  1.0
     Generated using "atomic" code by A. Dal Corso  v.5.0.99 svn rev. 10869
     Shape of augmentation charge: PSQ
     Using radial grid of  929 points,  2 beta functions with: 
                l(1) =   0
                l(2) =   0
     Q(r) pseudized with 0 coefficients 


     PseudoPot. # 4 for  O read from file:
     /scratch/ahofstet/pseudo/O.pbe-n-kjpaw_psl.0.1.UPF
     MD5 check sum: 3f94a2996a3169367d6eb21d9b593f20
     Pseudo is Projector augmented-wave + core cor, Zval =  6.0
     Generated using "atomic" code by A. Dal Corso  v.5.0.99 svn rev. 10869
     Shape of augmentation charge: BESSEL
     Using radial grid of 1095 points,  4 beta functions with: 
                l(1) =   0
                l(2) =   0
                l(3) =   1
                l(4) =   1
     Q(r) pseudized with 0 coefficients 


     atomic species   valence    mass     pseudopotential
        C              4.00    12.01070      C( 1.00)
        N              5.00    14.00670      N( 1.00)
        H              1.00     1.00794      H( 1.00)
        O              6.00    15.99940      O( 1.00)

      4 Sym. Ops., with inversion, found ( 2 have fractional translation)



   Cartesian axes

     site n.     atom                  positions (alat units)
         1           O   tau(   1) = (   0.4102813   0.0776838   1.1035273  )
         2           O   tau(   2) = (   0.3760772   0.4912667   1.7311963  )
         3           O   tau(   3) = (   0.4472911   0.7494818   0.7862885  )
         4           O   tau(   4) = (   0.4814951   0.3358990   0.1586194  )
         5           O   tau(   5) = (   0.2353272   0.0296518   1.2924770  )
         6           O   tau(   6) = (   0.5510313   0.4432346   1.5422467  )
         7           O   tau(   7) = (   0.6222451   0.7975139   0.5973388  )
         8           O   tau(   8) = (   0.3065411   0.3839311   0.3475691  )
         9           O   tau(   9) = (   0.3663964   0.2558345   1.2890232  )
        10           O   tau(  10) = (   0.4199621   0.6694173   1.5457004  )
        11           O   tau(  11) = (   0.4911759   0.5713311   0.6007925  )
        12           O   tau(  12) = (   0.4376102   0.1577483   0.3441153  )
        13           N   tau(  13) = (   0.3357758   0.1185632   1.2291286  )
        14           N   tau(  14) = (   0.4505827   0.5321460   1.6055950  )
        15           N   tau(  15) = (   0.5217965   0.7086025   0.6606871  )
        16           N   tau(  16) = (   0.4069896   0.2950196   0.2842207  )
        17           N   tau(  17) = (   0.1963266   0.0430197   0.5234016  )
        18           N   tau(  18) = (   0.7324595   0.4566025   0.4215062  )
        19           N   tau(  19) = (   0.6612457   0.7841459   1.3664141  )
        20           N   tau(  20) = (   0.1251128   0.3705631   1.4683095  )
        21           C   tau(  21) = (   0.1492893   0.2029161   0.7729605  )
        22           C   tau(  22) = (   0.7794968   0.6164989   0.1719473  )
        23           C   tau(  23) = (   0.7082830   0.6242496   1.1168552  )
        24           C   tau(  24) = (   0.0780755   0.2106667   1.7178684  )
        25           C   tau(  25) = (   0.1811533   0.4637695   0.9816714  )
        26           C   tau(  26) = (   0.6052052   0.0501866   1.8530522  )
        27           C   tau(  27) = (   0.6764190   0.3633962   0.9081444  )
        28           C   tau(  28) = (   0.2523671   0.7769790   0.0367635  )
        29           N   tau(  29) = (   0.2520997   0.4593721   0.8350412  )
        30           N   tau(  30) = (   0.6766864   0.0457893   0.1098666  )
        31           N   tau(  31) = (   0.6054726   0.3677935   1.0547745  )
        32           N   tau(  32) = (   0.1808859   0.7813764   1.7799491  )
        33           C   tau(  33) = (   0.0924032   0.3276258   1.0288917  )
        34           C   tau(  34) = (   0.6939553   0.7412087   1.8058320  )
        35           C   tau(  35) = (   0.7651691   0.4995398   0.8609241  )
        36           C   tau(  36) = (   0.1636170   0.0859570   0.0839838  )
        37           C   tau(  37) = (   0.1240552   0.0697346   0.6643421  )
        38           C   tau(  38) = (   0.8047310   0.4833174   0.2805657  )
        39           C   tau(  39) = (   0.7335172   0.7574311   1.2254736  )
        40           C   tau(  40) = (   0.0528413   0.3438483   1.6092500  )
        41           N   tau(  41) = (   0.0208696   0.7777253   0.6897030  )
        42           N   tau(  42) = (   0.9079166   0.3641424   0.2552048  )
        43           N   tau(  43) = (   0.8367027   0.0494404   1.2001127  )
        44           N   tau(  44) = (  -0.0503442   0.4630232   1.6346109  )
        45           N   tau(  45) = (   0.1967834   0.5934710   1.0723352  )
        46           N   tau(  46) = (   0.5895751   0.1798882   1.7623884  )
        47           N   tau(  47) = (   0.6607890   0.2336946   0.8174805  )
        48           N   tau(  48) = (   0.2679972   0.6472774   0.1274273  )
        49           C   tau(  49) = (   0.0787911   0.2000467   0.9272061  )
        50           C   tau(  50) = (   0.8499951   0.6136295   0.0177018  )
        51           C   tau(  51) = (   0.7787813   0.6271189   0.9626097  )
        52           C   tau(  52) = (   0.0075772   0.2135361   1.8721139  )
        53           N   tau(  53) = (   0.1372539   0.7345916   0.4606079  )
        54           N   tau(  54) = (   0.7915323   0.3210088   0.4843000  )
        55           N   tau(  55) = (   0.7203185   0.0925740   1.4292078  )
        56           N   tau(  56) = (   0.0660400   0.5061569   1.4055158  )
        57           C   tau(  57) = (   0.2363005   0.3361262   0.7312495  )
        58           C   tau(  58) = (   0.6924857   0.7497091   0.2136584  )
        59           C   tau(  59) = (   0.6212719   0.4910394   1.1585662  )
        60           C   tau(  60) = (   0.1650866   0.0774566   1.6761574  )
        61           N   tau(  61) = (   0.0320424   0.6802300   0.5616901  )
        62           N   tau(  62) = (   0.8967438   0.2666471   0.3832178  )
        63           N   tau(  63) = (   0.8255300   0.1469357   1.3281257  )
        64           N   tau(  64) = (  -0.0391715   0.5605185   1.5065979  )
        65           H   tau(  65) = (   0.2696623   0.6867323   1.0427014  )
        66           H   tau(  66) = (   0.5166962   0.2731495   1.7920222  )
        67           H   tau(  67) = (   0.5879100   0.1404333   0.8471143  )
        68           H   tau(  68) = (   0.3408762   0.5540161   0.0977936  )
        69           H   tau(  69) = (   0.1517442   0.5920587   1.1862814  )
        70           H   tau(  70) = (   0.6346143   0.1784758   1.6484422  )
        71           H   tau(  71) = (   0.7058281   0.2351070   0.7035343  )
        72           H   tau(  72) = (   0.2229581   0.6486898   0.2413736  )
        73           H   tau(  73) = (   0.2886247   0.1032825   0.4625092  )
        74           H   tau(  74) = (   0.6401615   0.5168653   0.4823986  )
        75           H   tau(  75) = (   0.5689477   0.7238831   1.4273065  )
        76           H   tau(  76) = (   0.2174109   0.3103003   1.4074171  )
        77           H   tau(  77) = (   0.0354562   0.3261470   1.1456142  )
        78           H   tau(  78) = (   0.7509023   0.7397299   1.6891095  )
        79           H   tau(  79) = (   0.8221162   0.5010186   0.7442016  )
        80           H   tau(  80) = (   0.1066700   0.0874358   0.2007063  )
        81           H   tau(  81) = (   0.0102432   0.0970908   0.9669202  )
        82           H   tau(  82) = (   0.7761153   0.5106736   1.8678035  )
        83           H   tau(  83) = (   0.8473291   0.7300749   0.9228956  )
        84           H   tau(  84) = (   0.0814571   0.3164921   0.0220123  )
        85           H   tau(  85) = (   0.2926318   0.3540225   0.6153648  )
        86           H   tau(  86) = (   0.6361544   0.7676053   0.3295431  )
        87           H   tau(  87) = (   0.5649405   0.4731431   1.2744509  )
        88           H   tau(  88) = (   0.2214180   0.0595603   1.5602727  )
        89           H   tau(  89) = (   0.3203617   0.5567429   0.7998640  )
        90           H   tau(  90) = (   0.6084244   0.1431600   0.1450439  )
        91           H   tau(  91) = (   0.5372106   0.2704228   1.0899518  )
        92           H   tau(  92) = (   0.2491479   0.6840056   1.7447719  )

     number of k points=     8
                       cart. coord. in units 2pi/alat
        k(    1) = (   0.0000000   0.0000000   0.0000000), wk =   0.1666667
        k(    2) = (   0.0000000   0.0000000  -0.2645761), wk =   0.1666667
        k(    3) = (   0.0000000   0.4029826   0.0000000), wk =   0.3333333
        k(    4) = (   0.0000000   0.4029826  -0.2645761), wk =   0.3333333
        k(    5) = (  -0.5000000   0.0000000  -0.0376829), wk =   0.1666667
        k(    6) = (  -0.5000000   0.0000000  -0.3022590), wk =   0.1666667
        k(    7) = (  -0.5000000   0.4029826  -0.0376829), wk =   0.3333333
        k(    8) = (  -0.5000000   0.4029826  -0.3022590), wk =   0.3333333

     Dense  grid:   838709 G-vectors     FFT dimensions: ( 108,  90, 192)

     Estimated max dynamical RAM per process >     880.96MB

     Estimated total allocated dynamical RAM >    7047.70MB

     Check: negative/imaginary core charge=   -0.000002    0.000000

     Initial potential from superposition of free atoms

     starting charge  335.99851, renormalised to  336.00000
     Starting wfc are  284 randomized atomic wfcs
     Checking if some PAW data can be deallocated... 

     total cpu time spent up to now is       43.6 secs

     per-process dynamical memory:   609.2 Mb

     Self-consistent Calculation

     iteration #  1     ecut=   100.00 Ry     beta=0.50
     Davidson diagonalization with overlap
     ethr =  1.00E-02,  avg # of iterations =  3.2

     total cpu time spent up to now is      156.2 secs

     total energy              =   -1763.08730648 Ry
     Harris-Foulkes estimate   =   -1767.89858526 Ry
     estimated scf accuracy    <       9.02786608 Ry

     iteration #  2     ecut=   100.00 Ry     beta=0.50
     Davidson diagonalization with overlap
     ethr =  2.69E-03,  avg # of iterations =  3.0

     total cpu time spent up to now is      233.6 secs

     total energy              =   -1764.34358354 Ry
     Harris-Foulkes estimate   =   -1765.22378881 Ry
     estimated scf accuracy    <       1.85750907 Ry

     iteration #  3     ecut=   100.00 Ry     beta=0.50
     Davidson diagonalization with overlap
     ethr =  5.53E-04,  avg # of iterations =  7.4

     total cpu time spent up to now is      341.9 secs

     total energy              =   -1764.88011405 Ry
     Harris-Foulkes estimate   =   -1765.04064179 Ry
     estimated scf accuracy    <       0.40439950 Ry

     iteration #  4     ecut=   100.00 Ry     beta=0.50
     Davidson diagonalization with overlap
     ethr =  1.20E-04,  avg # of iterations =  3.9

     total cpu time spent up to now is      414.4 secs

     total energy              =   -1764.92444386 Ry
     Harris-Foulkes estimate   =   -1764.94589270 Ry
     estimated scf accuracy    <       0.05696443 Ry

     iteration #  5     ecut=   100.00 Ry     beta=0.50
     Davidson diagonalization with overlap
     ethr =  1.70E-05,  avg # of iterations =  9.2

     total cpu time spent up to now is      552.7 secs

     total energy              =   -1764.94505165 Ry
     Harris-Foulkes estimate   =   -1764.95983637 Ry
     estimated scf accuracy    <       0.04257993 Ry

     iteration #  6     ecut=   100.00 Ry     beta=0.50
     Davidson diagonalization with overlap
     ethr =  1.27E-05,  avg # of iterations =  2.1

     total cpu time spent up to now is      617.8 secs

     total energy              =   -1764.94843681 Ry
     Harris-Foulkes estimate   =   -1764.95097943 Ry
     estimated scf accuracy    <       0.00480707 Ry

     iteration #  7     ecut=   100.00 Ry     beta=0.50
     Davidson diagonalization with overlap
     ethr =  1.43E-06,  avg # of iterations =  8.8

     total cpu time spent up to now is      746.6 secs

     total energy              =   -1764.95058327 Ry
     Harris-Foulkes estimate   =   -1764.95118241 Ry
     estimated scf accuracy    <       0.00169078 Ry

     iteration #  8     ecut=   100.00 Ry     beta=0.50
     Davidson diagonalization with overlap
     ethr =  5.03E-07,  avg # of iterations =  1.0

     total cpu time spent up to now is      805.3 secs

     total energy              =   -1764.95051789 Ry
     Harris-Foulkes estimate   =   -1764.95072133 Ry
     estimated scf accuracy    <       0.00044072 Ry

     iteration #  9     ecut=   100.00 Ry     beta=0.50
     Davidson diagonalization with overlap
     ethr =  1.31E-07,  avg # of iterations =  4.0

     total cpu time spent up to now is      903.4 secs

     total energy              =   -1764.95075925 Ry
     Harris-Foulkes estimate   =   -1764.95078789 Ry
     estimated scf accuracy    <       0.00009354 Ry

     iteration # 10     ecut=   100.00 Ry     beta=0.50
     Davidson diagonalization with overlap
     ethr =  2.78E-08,  avg # of iterations =  1.0

     total cpu time spent up to now is      962.1 secs

     total energy              =   -1764.95074907 Ry
     Harris-Foulkes estimate   =   -1764.95076512 Ry
     estimated scf accuracy    <       0.00003345 Ry

     iteration # 11     ecut=   100.00 Ry     beta=0.50
     Davidson diagonalization with overlap
     ethr =  9.95E-09,  avg # of iterations =  4.0

     total cpu time spent up to now is     1055.4 secs

     total energy              =   -1764.95076448 Ry
     Harris-Foulkes estimate   =   -1764.95076594 Ry
     estimated scf accuracy    <       0.00000483 Ry

     iteration # 12     ecut=   100.00 Ry     beta=0.50
     Davidson diagonalization with overlap
     ethr =  1.44E-09,  avg # of iterations =  1.1

     total cpu time spent up to now is     1113.8 secs

     total energy              =   -1764.95076393 Ry
     Harris-Foulkes estimate   =   -1764.95076483 Ry
     estimated scf accuracy    <       0.00000193 Ry

     iteration # 13     ecut=   100.00 Ry     beta=0.50
     Davidson diagonalization with overlap
     ethr =  5.74E-10,  avg # of iterations =  3.2

     total cpu time spent up to now is     1202.5 secs

     total energy              =   -1764.95076469 Ry
     Harris-Foulkes estimate   =   -1764.95076471 Ry
     estimated scf accuracy    <       0.00000016 Ry

     iteration # 14     ecut=   100.00 Ry     beta=0.50
     Davidson diagonalization with overlap
     ethr =  4.71E-11,  avg # of iterations =  2.0

     total cpu time spent up to now is     1267.2 secs

     total energy              =   -1764.95076466 Ry
     Harris-Foulkes estimate   =   -1764.95076471 Ry
     estimated scf accuracy    <       0.00000010 Ry

     iteration # 15     ecut=   100.00 Ry     beta=0.50
     Davidson diagonalization with overlap
     ethr =  2.87E-11,  avg # of iterations =  3.0

     total cpu time spent up to now is     1343.7 secs

     End of self-consistent calculation

          k = 0.0000 0.0000 0.0000 (104863 PWs)   bands (ev):

   -24.0840 -24.0813 -24.0739 -24.0713 -21.3033 -21.3030 -21.2860 -21.2859
   -18.7714 -18.7588 -18.7505 -18.7366 -18.5536 -18.5514 -18.5138 -18.5074
   -18.4193 -18.4129 -18.4039 -18.3971 -16.2228 -16.2123 -16.1929 -16.1849
   -16.1724 -16.1535 -16.1299 -16.1122 -15.1517 -15.1126 -15.1037 -15.0993
   -13.6425 -13.6352 -13.6153 -13.6079 -12.3594 -12.3345 -12.3011 -12.2865
   -10.1706 -10.1656 -10.1519 -10.1229  -9.7713  -9.7585  -9.7186  -9.7151
    -9.0799  -9.0568  -9.0537  -9.0161  -8.9327  -8.8893  -8.8416  -8.7393
    -8.2836  -8.2086  -7.9898  -7.8825  -7.7832  -7.6569  -7.5864  -7.2654
    -6.9380  -6.8522  -6.8086  -6.8053  -6.4588  -6.4340  -6.4096  -6.3958
    -6.2164  -6.1951  -6.1445  -6.1434  -6.0751  -6.0694  -5.9422  -5.8696
    -5.8148  -5.7801  -5.7656  -5.5541  -5.4736  -5.4285  -5.4025  -5.3549
    -4.9913  -4.9839  -4.9560  -4.9131  -4.8668  -4.8516  -4.7611  -4.7382
    -4.7118  -4.6827  -4.6720  -4.6164  -4.5206  -4.5101  -4.3214  -4.2479
    -4.2364  -4.1834  -4.0556  -4.0519  -3.3418  -3.2944  -3.2402  -3.2044
    -2.5390  -2.4384  -2.2437  -2.1920  -2.1032  -2.0242  -1.9676  -1.9344
    -1.8516  -1.7672  -1.7546  -1.7373  -1.2253  -1.2125  -1.0260  -1.0024
    -0.9175  -0.8788  -0.7530  -0.7451  -0.7359  -0.7308  -0.6986  -0.6658
    -0.5078  -0.5036  -0.4689  -0.4058  -0.3975  -0.3409  -0.3025  -0.1984
    -0.1831  -0.1261  -0.1185  -0.0970  -0.0331  -0.0267  -0.0192   0.0125
     0.0272   0.0709   0.0929   0.0955   0.3389   0.3642   0.4697   0.4778
     1.1450   1.1468   1.1604   1.1649   1.2086   1.2748   1.3833   1.4241
     4.4895   4.5149   4.5802   4.5910   4.6771   4.8452   4.9144   4.9917
     5.0084   5.0185   5.2175   5.2197   5.7401   5.8116   5.9321   5.9643
     6.9752   7.0332   7.1592   7.2837   7.3192   7.7771   8.1464   8.9243
     8.9831   8.9928   9.0206   9.1417   9.1983   9.2261   9.2746   9.3454
     9.3763

          k = 0.0000 0.0000-0.2646 (104816 PWs)   bands (ev):

   -24.0828 -24.0828 -24.0724 -24.0724 -21.3031 -21.3031 -21.2860 -21.2860
   -18.7669 -18.7669 -18.7417 -18.7417 -18.5526 -18.5526 -18.5105 -18.5105
   -18.4167 -18.4167 -18.3998 -18.3998 -16.2114 -16.2114 -16.2043 -16.2043
   -16.1457 -16.1457 -16.1292 -16.1292 -15.1345 -15.1345 -15.0991 -15.0991
   -13.6389 -13.6389 -13.6115 -13.6115 -12.3470 -12.3470 -12.2937 -12.2937
   -10.1684 -10.1684 -10.1374 -10.1374  -9.7665  -9.7665  -9.7158  -9.7158
    -9.0651  -9.0651  -9.0342  -9.0342  -8.8863  -8.8863  -8.8242  -8.8242
    -8.2505  -8.2505  -7.9505  -7.9505  -7.7125  -7.7125  -7.4111  -7.4111
    -6.9032  -6.9032  -6.8020  -6.8020  -6.4443  -6.4443  -6.4016  -6.4016
    -6.2127  -6.2127  -6.1283  -6.1283  -6.0763  -6.0763  -5.9077  -5.9077
    -5.8109  -5.8109  -5.6666  -5.6666  -5.4331  -5.4331  -5.3799  -5.3799
    -5.0042  -5.0042  -4.8904  -4.8904  -4.8864  -4.8864  -4.7392  -4.7392
    -4.6907  -4.6907  -4.6549  -4.6549  -4.5247  -4.5247  -4.2848  -4.2848
    -4.2045  -4.2045  -4.0536  -4.0536  -3.2957  -3.2957  -3.2446  -3.2446
    -2.5031  -2.5031  -2.1750  -2.1750  -2.1303  -2.1303  -1.8788  -1.8788
    -1.8214  -1.8214  -1.7694  -1.7694  -1.2185  -1.2185  -1.0114  -1.0114
    -0.9052  -0.9052  -0.7474  -0.7474  -0.7326  -0.7326  -0.6790  -0.6790
    -0.5046  -0.5046  -0.4311  -0.4311  -0.3888  -0.3888  -0.2521  -0.2521
    -0.1360  -0.1360  -0.0920  -0.0920  -0.0452  -0.0452  -0.0252  -0.0252
     0.0677   0.0677   0.0897   0.0897   0.3522   0.3522   0.4753   0.4753
     1.1406   1.1406   1.1675   1.1675   1.2388   1.2388   1.4070   1.4070
     4.5009   4.5009   4.5874   4.5874   4.7410   4.7410   4.9755   4.9755
     5.0092   5.0092   5.2177   5.2177   5.7767   5.7767   5.9502   5.9502
     6.9989   6.9989   7.2241   7.2241   7.4791   7.4791   8.6148   8.6148
     8.9787   8.9787   9.0037   9.0037   9.2560   9.2566   9.2863   9.2864
     9.3466

          k = 0.0000 0.4030 0.0000 (104838 PWs)   bands (ev):

   -24.0813 -24.0788 -24.0763 -24.0738 -21.2988 -21.2986 -21.2902 -21.2901
   -18.7682 -18.7554 -18.7527 -18.7435 -18.5477 -18.5453 -18.5188 -18.5164
   -18.4172 -18.4144 -18.4014 -18.3977 -16.2219 -16.2159 -16.1894 -16.1786
   -16.1776 -16.1661 -16.1226 -16.1167 -15.1408 -15.1167 -15.1083 -15.1015
   -13.6494 -13.6468 -13.6017 -13.5998 -12.3444 -12.3305 -12.3022 -12.2934
   -10.1777 -10.1711 -10.1469 -10.1294  -9.7658  -9.7638  -9.6800  -9.6791
    -9.0693  -9.0549  -9.0480  -9.0379  -8.9219  -8.8876  -8.8198  -8.7616
    -8.2234  -8.1125  -8.0971  -7.9451  -7.7567  -7.5974  -7.5090  -7.4275
    -6.9911  -6.9768  -6.8030  -6.7476  -6.4697  -6.4542  -6.4165  -6.3923
    -6.2390  -6.2018  -6.1931  -6.1635  -6.0741  -6.0314  -5.9872  -5.9017
    -5.8022  -5.7646  -5.6627  -5.5408  -5.5288  -5.4284  -5.3636  -5.3571
    -5.0194  -4.9986  -4.9766  -4.9719  -4.9314  -4.8597  -4.7811  -4.7312
    -4.7121  -4.6708  -4.6611  -4.6493  -4.4653  -4.4400  -4.2760  -4.2475
    -4.2271  -4.1998  -4.0133  -4.0109  -3.3072  -3.3058  -3.2184  -3.2140
    -2.5156  -2.4655  -2.1330  -2.1255  -2.0406  -2.0095  -1.9235  -1.9187
    -1.8009  -1.7550  -1.7406  -1.7382  -1.2641  -1.2631  -1.0727  -1.0698
    -0.8895  -0.8252  -0.7922  -0.7593  -0.7004  -0.6861  -0.6818  -0.6562
    -0.5576  -0.5233  -0.4625  -0.4374  -0.3582  -0.3404  -0.3097  -0.2744
    -0.2141  -0.1646  -0.1424  -0.0872  -0.0671  -0.0230  -0.0137  -0.0009
     0.0098   0.0540   0.1109   0.1210   0.3434   0.3577   0.4671   0.4673
     1.1190   1.1223   1.1729   1.1810   1.1938   1.2311   1.4018   1.4201
     4.4580   4.4620   4.5074   4.5199   4.8059   4.8625   4.9017   4.9030
     4.9733   5.0309   5.1114   5.1677   5.8551   5.9201   5.9476   5.9808
     6.9523   6.9599   7.2444   7.2865   7.6183   7.9906   8.2906   8.5377
     8.7225   8.7941   8.8264   8.9826   9.1685   9.1875   9.2540   9.3505
     9.3520

          k = 0.0000 0.4030-0.2646 (104770 PWs)   bands (ev):

   -24.0804 -24.0804 -24.0747 -24.0747 -21.2987 -21.2987 -21.2901 -21.2901
   -18.7638 -18.7638 -18.7461 -18.7461 -18.5466 -18.5466 -18.5175 -18.5175
   -18.4160 -18.4160 -18.3994 -18.3994 -16.2118 -16.2118 -16.2046 -16.2046
   -16.1496 -16.1496 -16.1286 -16.1286 -15.1258 -15.1258 -15.1078 -15.1078
   -13.6478 -13.6478 -13.6010 -13.6010 -12.3352 -12.3352 -12.3001 -12.3001
   -10.1724 -10.1724 -10.1420 -10.1420  -9.7613  -9.7613  -9.6791  -9.6791
    -9.0650  -9.0650  -9.0463  -9.0463  -8.8827  -8.8827  -8.8148  -8.8148
    -8.1735  -8.1735  -8.0253  -8.0253  -7.6520  -7.6520  -7.4854  -7.4854
    -6.9167  -6.9167  -6.8442  -6.8442  -6.4537  -6.4537  -6.4154  -6.4154
    -6.2302  -6.2302  -6.1668  -6.1668  -6.0406  -6.0406  -5.9417  -5.9417
    -5.7758  -5.7758  -5.6441  -5.6441  -5.4522  -5.4522  -5.3591  -5.3591
    -5.0009  -5.0009  -4.9730  -4.9730  -4.9027  -4.9027  -4.7519  -4.7519
    -4.6999  -4.6999  -4.6478  -4.6478  -4.4589  -4.4589  -4.2519  -4.2519
    -4.2234  -4.2234  -4.0092  -4.0092  -3.2808  -3.2808  -3.2400  -3.2400
    -2.4960  -2.4960  -2.1110  -2.1110  -2.0641  -2.0641  -1.8638  -1.8638
    -1.8032  -1.8032  -1.7475  -1.7475  -1.2630  -1.2630  -1.0720  -1.0720
    -0.8602  -0.8602  -0.7748  -0.7748  -0.6927  -0.6927  -0.6654  -0.6654
    -0.5432  -0.5432  -0.4402  -0.4402  -0.3572  -0.3572  -0.2994  -0.2994
    -0.1829  -0.1829  -0.1233  -0.1233  -0.0301  -0.0301  -0.0085  -0.0085
     0.0231   0.0231   0.1212   0.1212   0.3484   0.3484   0.4695   0.4695
     1.1195   1.1195   1.1762   1.1762   1.2128   1.2128   1.4118   1.4118
     4.4598   4.4598   4.5159   4.5159   4.8469   4.8469   4.8802   4.8802
     5.0009   5.0009   5.1457   5.1457   5.8882   5.8882   5.9665   5.9665
     6.9600   6.9600   7.2625   7.2625   7.7473   7.7473   8.5413   8.5413
     8.7298   8.7298   8.8654   8.8654   9.1369   9.1369   9.2548   9.2549
     9.3315

          k =-0.5000 0.0000-0.0377 (104772 PWs)   bands (ev):

   -24.0839 -24.0813 -24.0739 -24.0713 -21.3043 -21.3040 -21.2852 -21.2851
   -18.7704 -18.7594 -18.7495 -18.7371 -18.5462 -18.5439 -18.5218 -18.5152
   -18.4191 -18.4128 -18.4039 -18.3971 -16.2287 -16.2038 -16.1932 -16.1775
   -16.1711 -16.1620 -16.1298 -16.1149 -15.1524 -15.1147 -15.1031 -15.0973
   -13.6443 -13.6356 -13.6130 -13.6072 -12.3431 -12.3179 -12.3176 -12.3027
   -10.1675 -10.1630 -10.1554 -10.1237  -9.7822  -9.7631  -9.7128  -9.7082
    -9.0782  -9.0725  -9.0546  -9.0189  -8.9447  -8.8484  -8.8129  -8.7849
    -8.2741  -8.2213  -7.9915  -7.8757  -7.8006  -7.6369  -7.5514  -7.3097
    -6.9280  -6.8558  -6.8091  -6.7979  -6.4565  -6.4485  -6.4089  -6.3939
    -6.2130  -6.1847  -6.1507  -6.1319  -6.0927  -6.0599  -5.8924  -5.8895
    -5.8340  -5.8185  -5.7634  -5.5665  -5.4833  -5.3697  -5.3655  -5.3446
    -5.0358  -4.9888  -4.9720  -4.8823  -4.8519  -4.8449  -4.7408  -4.7369
    -4.7125  -4.6852  -4.6574  -4.6470  -4.3976  -4.3960  -4.2808  -4.2729
    -4.2555  -4.2382  -4.2252  -4.2077  -3.3450  -3.2963  -3.2300  -3.2169
    -2.6032  -2.3916  -2.1346  -2.1241  -2.0620  -2.0023  -2.0018  -1.9447
    -1.8933  -1.8933  -1.7533  -1.7468  -1.2771  -1.2378  -0.9371  -0.9217
    -0.8679  -0.8260  -0.7746  -0.7452  -0.7073  -0.6965  -0.6847  -0.6834
    -0.5157  -0.4981  -0.4197  -0.4133  -0.3888  -0.3359  -0.3041  -0.2533
    -0.2418  -0.1842  -0.1596  -0.0736  -0.0723  -0.0340   0.0205   0.0223
     0.0498   0.0506   0.0920   0.1581   0.3452   0.3505   0.4596   0.4739
     1.1373   1.1591   1.1672   1.1678   1.2811   1.2880   1.3131   1.3665
     4.5399   4.5490   4.5694   4.6450   4.6999   4.7645   4.8011   4.8092
     5.0021   5.1846   5.2076   5.2893   5.7373   5.8055   5.9302   5.9590
     7.0331   7.0556   7.1247   7.1564   7.7137   8.1509   8.2616   8.4276
     8.6345   8.7797   8.9670   9.0994   9.1731   9.2198   9.2995   9.3177
     9.3664

          k =-0.5000 0.0000-0.3023 (104868 PWs)   bands (ev):

   -24.0828 -24.0828 -24.0724 -24.0724 -21.3041 -21.3041 -21.2852 -21.2852
   -18.7664 -18.7664 -18.7419 -18.7419 -18.5452 -18.5452 -18.5183 -18.5183
   -18.4167 -18.4167 -18.3998 -18.3998 -16.2173 -16.2173 -16.1944 -16.1944
   -16.1471 -16.1471 -16.1317 -16.1317 -15.1354 -15.1354 -15.0982 -15.0982
   -13.6400 -13.6400 -13.6101 -13.6101 -12.3308 -12.3308 -12.3099 -12.3099
   -10.1672 -10.1672 -10.1383 -10.1383  -9.7721  -9.7721  -9.7113  -9.7113
    -9.0570  -9.0570  -9.0401  -9.0401  -8.9075  -8.9075  -8.8072  -8.8072
    -8.2511  -8.2511  -7.9450  -7.9450  -7.7121  -7.7121  -7.4171  -7.4171
    -6.8960  -6.8960  -6.8045  -6.8045  -6.4602  -6.4602  -6.3915  -6.3915
    -6.2120  -6.2120  -6.1260  -6.1260  -6.0581  -6.0581  -5.9064  -5.9064
    -5.8316  -5.8316  -5.6803  -5.6803  -5.4130  -5.4130  -5.3532  -5.3532
    -5.0216  -5.0216  -4.9046  -4.9046  -4.8777  -4.8777  -4.7181  -4.7181
    -4.6872  -4.6872  -4.6638  -4.6638  -4.3993  -4.3993  -4.2723  -4.2723
    -4.2632  -4.2632  -4.2040  -4.2040  -3.2806  -3.2806  -3.2617  -3.2617
    -2.5239  -2.5239  -2.1177  -2.1177  -2.0342  -2.0342  -1.9645  -1.9645
    -1.8374  -1.8374  -1.7990  -1.7990  -1.2587  -1.2587  -0.9258  -0.9258
    -0.8546  -0.8546  -0.7560  -0.7560  -0.7007  -0.7007  -0.6860  -0.6860
    -0.5115  -0.5115  -0.4107  -0.4107  -0.3683  -0.3683  -0.2759  -0.2759
    -0.2068  -0.2068  -0.1160  -0.1160  -0.0522  -0.0522   0.0189   0.0189
     0.0350   0.0350   0.1398   0.1398   0.3453   0.3453   0.4676   0.4676
     1.1473   1.1473   1.1677   1.1677   1.2823   1.2823   1.3434   1.3434
     4.5447   4.5447   4.6060   4.6060   4.7487   4.7487   4.7768   4.7768
     5.0882   5.0882   5.2647   5.2647   5.7719   5.7719   5.9467   5.9467
     7.0513   7.0513   7.1356   7.1356   7.8360   7.8360   8.4960   8.4960
     8.7106   8.7106   8.9501   8.9502   9.1477   9.1477   9.3552   9.3552
     9.4212

          k =-0.5000 0.4030-0.0377 (104834 PWs)   bands (ev):

   -24.0813 -24.0788 -24.0763 -24.0738 -21.2994 -21.2991 -21.2898 -21.2897
   -18.7671 -18.7542 -18.7531 -18.7438 -18.5412 -18.5387 -18.5263 -18.5234
   -18.4174 -18.4144 -18.4014 -18.3975 -16.2241 -16.2126 -16.1871 -16.1820
   -16.1703 -16.1680 -16.1246 -16.1203 -15.1408 -15.1170 -15.1091 -15.1002
   -13.6510 -13.6486 -13.6001 -13.5979 -12.3364 -12.3207 -12.3111 -12.3014
   -10.1790 -10.1729 -10.1469 -10.1271  -9.7619  -9.7527  -9.6884  -9.6859
    -9.0760  -9.0561  -9.0402  -9.0399  -8.9158  -8.8865  -8.8052  -8.7848
    -8.2280  -8.1068  -8.1065  -7.9522  -7.7183  -7.6399  -7.5268  -7.4014
    -6.9878  -6.9846  -6.7974  -6.7566  -6.4667  -6.4400  -6.4174  -6.3864
    -6.2239  -6.1962  -6.1776  -6.1556  -6.0962  -6.0036  -5.9727  -5.9322
    -5.8245  -5.7580  -5.6587  -5.5310  -5.5217  -5.4122  -5.3615  -5.3408
    -5.0194  -4.9971  -4.9948  -4.9512  -4.9282  -4.8794  -4.7973  -4.7373
    -4.7060  -4.6967  -4.6713  -4.6199  -4.3451  -4.3365  -4.2875  -4.2543
    -4.2442  -4.2224  -4.1725  -4.1644  -3.3239  -3.2885  -3.2146  -3.2046
    -2.5334  -2.4201  -2.1040  -2.0988  -2.0262  -1.9558  -1.9365  -1.9142
    -1.8771  -1.8421  -1.7456  -1.7309  -1.3172  -1.2956  -0.9711  -0.9618
    -0.8343  -0.7952  -0.7574  -0.7533  -0.6999  -0.6815  -0.6741  -0.6654
    -0.5546  -0.5275  -0.4580  -0.4469  -0.3818  -0.3539  -0.3333  -0.2559
    -0.2496  -0.1560  -0.1542  -0.1037  -0.0739  -0.0511   0.0050   0.0244
     0.0340   0.0526   0.0837   0.1095   0.3492   0.3545   0.4706   0.4734
     1.1296   1.1443   1.1727   1.1818   1.2694   1.2774   1.3067   1.3288
     4.4431   4.4443   4.5903   4.5939   4.7164   4.8309   4.8829   4.8880
     4.9531   5.0756   5.1094   5.1840   5.8527   5.9123   5.9488   5.9816
     6.9617   6.9871   7.1887   7.2001   8.0079   8.2392   8.4562   8.5766
     8.6359   8.7794   8.8985   8.9741   9.0263   9.1021   9.1244   9.1997
     9.2432

          k =-0.5000 0.4030-0.3023 (104850 PWs)   bands (ev):

   -24.0803 -24.0803 -24.0747 -24.0747 -21.2993 -21.2993 -21.2898 -21.2898
   -18.7628 -18.7628 -18.7463 -18.7463 -18.5400 -18.5400 -18.5248 -18.5248
   -18.4161 -18.4161 -18.3993 -18.3993 -16.2132 -16.2132 -16.2018 -16.2018
   -16.1431 -16.1431 -16.1365 -16.1365 -15.1261 -15.1261 -15.1073 -15.1073
   -13.6495 -13.6495 -13.5992 -13.5992 -12.3243 -12.3243 -12.3105 -12.3105
   -10.1738 -10.1738 -10.1410 -10.1410  -9.7556  -9.7556  -9.6846  -9.6846
    -9.0659  -9.0659  -9.0467  -9.0467  -8.8771  -8.8771  -8.8206  -8.8206
    -8.1723  -8.1723  -8.0348  -8.0348  -7.6512  -7.6512  -7.4831  -7.4831
    -6.9289  -6.9289  -6.8352  -6.8352  -6.4433  -6.4433  -6.4187  -6.4187
    -6.2154  -6.2154  -6.1582  -6.1582  -6.0481  -6.0481  -5.9413  -5.9413
    -5.7737  -5.7737  -5.6461  -5.6461  -5.4324  -5.4324  -5.3551  -5.3551
    -5.0053  -5.0053  -4.9777  -4.9777  -4.9022  -4.9022  -4.7688  -4.7688
    -4.6969  -4.6969  -4.6438  -4.6438  -4.3464  -4.3464  -4.2766  -4.2766
    -4.2325  -4.2325  -4.1632  -4.1632  -3.2801  -3.2801  -3.2327  -3.2327
    -2.4849  -2.4849  -2.1227  -2.1227  -1.9666  -1.9666  -1.9048  -1.9048
    -1.8216  -1.8216  -1.7947  -1.7947  -1.3048  -1.3048  -0.9678  -0.9678
    -0.8214  -0.8214  -0.7424  -0.7424  -0.7009  -0.7009  -0.6683  -0.6683
    -0.5471  -0.5471  -0.4374  -0.4374  -0.3690  -0.3690  -0.3073  -0.3073
    -0.1992  -0.1992  -0.1222  -0.1222  -0.0621  -0.0621   0.0148   0.0148
     0.0384   0.0384   0.1002   0.1002   0.3507   0.3507   0.4724   0.4724
     1.1366   1.1366   1.1781   1.1781   1.2746   1.2746   1.3165   1.3165
     4.4441   4.4441   4.5924   4.5924   4.7680   4.7680   4.8774   4.8774
     5.0157   5.0157   5.1567   5.1567   5.8825   5.8825   5.9675   5.9675
     6.9780   6.9780   7.1903   7.1903   8.0982   8.0982   8.5073   8.5073
     8.8050   8.8050   8.9202   8.9202   8.9994   8.9994   9.1465   9.1465
     9.2643

     highest occupied, lowest unoccupied level (ev):     1.4241    4.4431

!    total energy              =   -1764.95076469 Ry
     Harris-Foulkes estimate   =   -1764.95076469 Ry
     estimated scf accuracy    <          3.8E-09 Ry

     total all-electron energy =     -6733.818218 Ry

     The total energy is the sum of the following terms:

     one-electron contribution =    -863.27517183 Ry
     hartree contribution      =     566.98131038 Ry
     xc contribution           =    -359.19235524 Ry
     ewald contribution        =    -603.26337695 Ry
     Dispersion Correction     =      -0.43374448 Ry
     one-center paw contrib.   =    -505.76742658 Ry

     convergence has been achieved in  15 iterations

     Forces acting on atoms (cartesian axes, Ry/au):

     atom    1 type  4   force =    -0.00009135    0.00000653    0.00052928
     atom    2 type  4   force =     0.00009135    0.00000653   -0.00052928
     atom    3 type  4   force =     0.00009135   -0.00000653   -0.00052928
     atom    4 type  4   force =    -0.00009135   -0.00000653    0.00052928
     atom    5 type  4   force =     0.00015181    0.00077191   -0.00078835
     atom    6 type  4   force =    -0.00015181    0.00077191    0.00078835
     atom    7 type  4   force =    -0.00015181   -0.00077191    0.00078835
     atom    8 type  4   force =     0.00015181   -0.00077191   -0.00078835
     atom    9 type  4   force =    -0.00044630    0.00045432    0.00033944
     atom   10 type  4   force =     0.00044630    0.00045432   -0.00033944
     atom   11 type  4   force =     0.00044630   -0.00045432   -0.00033944
     atom   12 type  4   force =    -0.00044630   -0.00045432    0.00033944
     atom   13 type  2   force =    -0.00053639   -0.00013703   -0.00157048
     atom   14 type  2   force =     0.00053639   -0.00013703    0.00157048
     atom   15 type  2   force =     0.00053639    0.00013703    0.00157048
     atom   16 type  2   force =    -0.00053639    0.00013703   -0.00157048
     atom   17 type  2   force =    -0.00011459   -0.00024860   -0.00057794
     atom   18 type  2   force =     0.00011459   -0.00024860    0.00057794
     atom   19 type  2   force =     0.00011459    0.00024860    0.00057794
     atom   20 type  2   force =    -0.00011459    0.00024860   -0.00057794
     atom   21 type  1   force =    -0.00182291   -0.00298792   -0.00070488
     atom   22 type  1   force =     0.00182291   -0.00298792    0.00070488
     atom   23 type  1   force =     0.00182291    0.00298792    0.00070488
     atom   24 type  1   force =    -0.00182291    0.00298792   -0.00070488
     atom   25 type  1   force =     0.00121750    0.00158472    0.00092449
     atom   26 type  1   force =    -0.00121750    0.00158472   -0.00092449
     atom   27 type  1   force =    -0.00121750   -0.00158472   -0.00092449
     atom   28 type  1   force =     0.00121750   -0.00158472    0.00092449
     atom   29 type  2   force =    -0.00044751    0.00025991   -0.00062466
     atom   30 type  2   force =     0.00044751    0.00025991    0.00062466
     atom   31 type  2   force =     0.00044751   -0.00025991    0.00062466
     atom   32 type  2   force =    -0.00044751   -0.00025991   -0.00062466
     atom   33 type  1   force =    -0.00217606   -0.00141877   -0.00202546
     atom   34 type  1   force =     0.00217606   -0.00141877    0.00202546
     atom   35 type  1   force =     0.00217606    0.00141877    0.00202546
     atom   36 type  1   force =    -0.00217606    0.00141877   -0.00202546
     atom   37 type  1   force =     0.00046144    0.00100771    0.00300100
     atom   38 type  1   force =    -0.00046144    0.00100771   -0.00300100
     atom   39 type  1   force =    -0.00046144   -0.00100771   -0.00300100
     atom   40 type  1   force =     0.00046144   -0.00100771    0.00300100
     atom   41 type  2   force =     0.00019251   -0.00155593    0.00052841
     atom   42 type  2   force =    -0.00019251   -0.00155593   -0.00052841
     atom   43 type  2   force =    -0.00019251    0.00155593   -0.00052841
     atom   44 type  2   force =     0.00019251    0.00155593    0.00052841
     atom   45 type  2   force =     0.00250875   -0.00062823    0.00185838
     atom   46 type  2   force =    -0.00250875   -0.00062823   -0.00185838
     atom   47 type  2   force =    -0.00250875    0.00062823   -0.00185838
     atom   48 type  2   force =     0.00250875    0.00062823    0.00185838
     atom   49 type  1   force =    -0.00181090    0.00316001    0.00199181
     atom   50 type  1   force =     0.00181090    0.00316001   -0.00199181
     atom   51 type  1   force =     0.00181090   -0.00316001   -0.00199181
     atom   52 type  1   force =    -0.00181090   -0.00316001    0.00199181
     atom   53 type  2   force =     0.00086926    0.00058355    0.00000762
     atom   54 type  2   force =    -0.00086926    0.00058355   -0.00000762
     atom   55 type  2   force =    -0.00086926   -0.00058355   -0.00000762
     atom   56 type  2   force =     0.00086926   -0.00058355    0.00000762
     atom   57 type  1   force =     0.00012864    0.00277123   -0.00237163
     atom   58 type  1   force =    -0.00012864    0.00277123    0.00237163
     atom   59 type  1   force =    -0.00012864   -0.00277123    0.00237163
     atom   60 type  1   force =     0.00012864   -0.00277123   -0.00237163
     atom   61 type  2   force =    -0.00103567   -0.00104094    0.00044014
     atom   62 type  2   force =     0.00103567   -0.00104094   -0.00044014
     atom   63 type  2   force =     0.00103567    0.00104094   -0.00044014
     atom   64 type  2   force =    -0.00103567    0.00104094    0.00044014
     atom   65 type  3   force =    -0.00066695   -0.00065755    0.00045320
     atom   66 type  3   force =     0.00066695   -0.00065755   -0.00045320
     atom   67 type  3   force =     0.00066695    0.00065755   -0.00045320
     atom   68 type  3   force =    -0.00066695    0.00065755    0.00045320
     atom   69 type  3   force =     0.00064197    0.00018702   -0.00027475
     atom   70 type  3   force =    -0.00064197    0.00018702    0.00027475
     atom   71 type  3   force =    -0.00064197   -0.00018702    0.00027475
     atom   72 type  3   force =     0.00064197   -0.00018702   -0.00027475
     atom   73 type  3   force =     0.00066300    0.00073211   -0.00013138
     atom   74 type  3   force =    -0.00066300    0.00073211    0.00013138
     atom   75 type  3   force =    -0.00066300   -0.00073211    0.00013138
     atom   76 type  3   force =     0.00066300   -0.00073211   -0.00013138
     atom   77 type  3   force =    -0.00039027   -0.00013427    0.00016855
     atom   78 type  3   force =     0.00039027   -0.00013427   -0.00016855
     atom   79 type  3   force =     0.00039027    0.00013427   -0.00016855
     atom   80 type  3   force =    -0.00039027    0.00013427    0.00016855
     atom   81 type  3   force =     0.00081330   -0.00003659   -0.00035021
     atom   82 type  3   force =    -0.00081330   -0.00003659    0.00035021
     atom   83 type  3   force =    -0.00081330    0.00003659    0.00035021
     atom   84 type  3   force =     0.00081330    0.00003659   -0.00035021
     atom   85 type  3   force =     0.00019022   -0.00004161    0.00083598
     atom   86 type  3   force =    -0.00019022   -0.00004161   -0.00083598
     atom   87 type  3   force =    -0.00019022    0.00004161   -0.00083598
     atom   88 type  3   force =     0.00019022    0.00004161    0.00083598
     atom   89 type  3   force =    -0.00019045    0.00013681    0.00001986
     atom   90 type  3   force =     0.00019045    0.00013681   -0.00001986
     atom   91 type  3   force =     0.00019045   -0.00013681   -0.00001986
     atom   92 type  3   force =    -0.00019045   -0.00013681    0.00001986

     Total force =     0.019578     Total SCF correction =     0.000105


     Computing stress (Cartesian axis) and pressure

          total   stress  (Ry/bohr**3)                   (kbar)     P=   -5.08
  -0.00002715   0.00000000  -0.00000409         -3.99      0.00     -0.60
   0.00000000  -0.00004178   0.00000000          0.00     -6.15      0.00
  -0.00000409   0.00000000  -0.00003457         -0.60      0.00     -5.09


     Writing output data file scf.save
 
     init_run     :     41.06s CPU     43.01s WALL (       1 calls)
     electrons    :   1236.52s CPU   1300.22s WALL (       1 calls)
     forces       :     19.33s CPU     19.52s WALL (       1 calls)
     stress       :    136.53s CPU    136.89s WALL (       1 calls)

     Called by init_run:
     wfcinit      :     30.97s CPU     32.79s WALL (       1 calls)
     potinit      :      3.55s CPU      3.58s WALL (       1 calls)

     Called by electrons:
     c_bands      :   1102.91s CPU   1157.15s WALL (      15 calls)
     sum_band     :    121.80s CPU    129.98s WALL (      15 calls)
     v_of_rho     :      1.86s CPU      2.05s WALL (      16 calls)
     newd         :      3.96s CPU      5.06s WALL (      16 calls)
     PAW_pot      :      5.48s CPU      5.48s WALL (      16 calls)
     mix_rho      :      0.46s CPU      0.50s WALL (      15 calls)

     Called by c_bands:
     init_us_2    :      8.40s CPU      8.45s WALL (     264 calls)
     cegterg      :   1072.11s CPU   1126.27s WALL (     120 calls)

     Called by sum_band:
     sum_band:bec :      0.07s CPU      0.07s WALL (     120 calls)
     addusdens    :      4.39s CPU      5.40s WALL (      15 calls)

     Called by *egterg:
     h_psi        :    626.42s CPU    668.56s WALL (     584 calls)
     s_psi        :    109.55s CPU    109.56s WALL (     584 calls)
     g_psi        :      3.93s CPU      3.93s WALL (     456 calls)
     cdiaghg      :     75.63s CPU     75.64s WALL (     576 calls)

     Called by h_psi:
     h_psi:pot    :    620.76s CPU    662.79s WALL (     584 calls)
     h_psi:calbec :    104.33s CPU    104.62s WALL (     584 calls)
     vloc_psi     :    406.77s CPU    448.50s WALL (     584 calls)
     add_vuspsi   :    109.66s CPU    109.67s WALL (     584 calls)

     General routines
     calbec       :    152.29s CPU    152.68s WALL (     744 calls)
     fft          :      1.32s CPU      1.62s WALL (     232 calls)
     fftw         :    438.45s CPU    484.80s WALL (  159760 calls)
 
     Parallel routines
     fft_scatter  :     91.28s CPU    131.06s WALL (  159992 calls)
 
     PWSCF        : 24m 3.75s CPU    25m55.22s WALL

 
   This run was terminated on:   1: 2:48   7Dec2017            

=------------------------------------------------------------------------------=
   JOB DONE.
=------------------------------------------------------------------------------=
