
     Program PWSCF v.6.1 (svn rev. 13369) starts on 12Dec2017 at 23: 9:49 

     This program is part of the open-source Quantum ESPRESSO suite
     for quantum simulation of materials; please cite
         "P. Giannozzi et al., J. Phys.:Condens. Matter 21 395502 (2009);
          URL http://www.quantum-espresso.org", 
     in publications or presentations arising from this work. More details at
     http://www.quantum-espresso.org/quote

     Parallel version (MPI), running on     8 processors
     R & G space division:  proc/nbgrp/npool/nimage =       8
     Waiting for input...
     Reading input from standard input

     Current dimensions of program PWSCF are:
     Max number of different atomic species (ntypx) = 10
     Max number of k-points (npk) =  40000
     Max angular momentum in pseudopotentials (lmaxx) =  3
               file C.pbe-n-kjpaw_psl.0.1.UPF: wavefunction(s)  2P renormalized
               file N.pbe-n-kjpaw_psl.0.1.UPF: wavefunction(s)  2P renormalized
               file H.pbe-kjpaw_psl.0.1.UPF: wavefunction(s)  1S renormalized
               file O.pbe-n-kjpaw_psl.0.1.UPF: wavefunction(s)  2P renormalized

     -------------------------------------
     Parameters for Dispersion Correction:
     -------------------------------------
       atom      VdW radius       C_6     

        C          2.744         60.710
        N          2.640         42.670
        H          1.892          4.857
        O          2.536         24.284

     Subspace diagonalization in iterative solution of the eigenvalue problem:
     a serial algorithm will be used

 
     Parallelization info
     --------------------
     sticks:   dense  smooth     PW     G-vecs:    dense   smooth      PW
     Min         338     338     93                87274    87274   12571
     Max         339     339     94                87289    87289   12586
     Sum        2709    2709    749               698249   698249  100647
 


     bravais-lattice index     =            0
     lattice parameter (alat)  =       9.2049  a.u.
     unit-cell volume          =    5166.2807 (a.u.)^3
     number of atoms/cell      =           80
     number of atomic types    =            4
     number of electrons       =       320.00
     number of Kohn-Sham states=          192
     kinetic-energy cutoff     =     100.0000  Ry
     charge density cutoff     =     400.0000  Ry
     convergence threshold     =      1.0E-08
     mixing beta               =       0.5000
     number of iterations used =            8  plain     mixing
     Exchange-correlation      =  SLA  PW   PBX  PBC ( 1  4  3  4 0 0)

     celldm(1)=   9.204856  celldm(2)=   0.000000  celldm(3)=   0.000000
     celldm(4)=   0.000000  celldm(5)=   0.000000  celldm(6)=   0.000000

     crystal axes: (cart. coord. in units of alat)
               a(1) = (   1.000000   0.000000   0.000000 )  
               a(2) = (   0.000000   1.000000   0.000000 )  
               a(3) = (   0.000000   0.000000   6.624102 )  

     reciprocal axes: (cart. coord. in units 2 pi/alat)
               b(1) = (  1.000000  0.000000  0.000000 )  
               b(2) = (  0.000000  1.000000  0.000000 )  
               b(3) = (  0.000000  0.000000  0.150964 )  


     PseudoPot. # 1 for  C read from file:
     /scratch/ahofstet/pseudo/C.pbe-n-kjpaw_psl.0.1.UPF
     MD5 check sum: 430fe95172b1e11ef3f8ed03bac87931
     Pseudo is Projector augmented-wave + core cor, Zval =  4.0
     Generated using "atomic" code by A. Dal Corso  v.5.0.99 svn rev. 10869
     Shape of augmentation charge: BESSEL
     Using radial grid of 1073 points,  4 beta functions with: 
                l(1) =   0
                l(2) =   0
                l(3) =   1
                l(4) =   1
     Q(r) pseudized with 0 coefficients 


     PseudoPot. # 2 for  N read from file:
     /scratch/ahofstet/pseudo/N.pbe-n-kjpaw_psl.0.1.UPF
     MD5 check sum: f73187c8b701007e77325f868c9291d7
     Pseudo is Projector augmented-wave + core cor, Zval =  5.0
     Generated using "atomic" code by A. Dal Corso  v.5.0.99 svn rev. 10869
     Shape of augmentation charge: PSQ
     Using radial grid of 1085 points,  4 beta functions with: 
                l(1) =   0
                l(2) =   0
                l(3) =   1
                l(4) =   1
     Q(r) pseudized with 0 coefficients 


     PseudoPot. # 3 for  H read from file:
     /scratch/ahofstet/pseudo/H.pbe-kjpaw_psl.0.1.UPF
     MD5 check sum: 94e484f906d9e9773b2f6e52662335b2
     Pseudo is Projector augmented-wave, Zval =  1.0
     Generated using "atomic" code by A. Dal Corso  v.5.0.99 svn rev. 10869
     Shape of augmentation charge: PSQ
     Using radial grid of  929 points,  2 beta functions with: 
                l(1) =   0
                l(2) =   0
     Q(r) pseudized with 0 coefficients 


     PseudoPot. # 4 for  O read from file:
     /scratch/ahofstet/pseudo/O.pbe-n-kjpaw_psl.0.1.UPF
     MD5 check sum: 3f94a2996a3169367d6eb21d9b593f20
     Pseudo is Projector augmented-wave + core cor, Zval =  6.0
     Generated using "atomic" code by A. Dal Corso  v.5.0.99 svn rev. 10869
     Shape of augmentation charge: BESSEL
     Using radial grid of 1095 points,  4 beta functions with: 
                l(1) =   0
                l(2) =   0
                l(3) =   1
                l(4) =   1
     Q(r) pseudized with 0 coefficients 


     atomic species   valence    mass     pseudopotential
        C              4.00    12.01070      C( 1.00)
        N              5.00    14.00670      N( 1.00)
        H              1.00     1.00794      H( 1.00)
        O              6.00    15.99940      O( 1.00)

      4 Sym. Ops. (no inversion) found ( 2 have fractional translation)



   Cartesian axes

     site n.     atom                  positions (alat units)
         1           N   tau(   1) = (   0.7771012  -0.0219505   6.3097620  )
         2           N   tau(   2) = (   0.5221100   0.2768355   4.6537847  )
         3           N   tau(   3) = (   0.4778900   0.7231645   1.3417338  )
         4           N   tau(   4) = (   0.2768355   0.5221100   1.9703171  )
         5           N   tau(   5) = (   0.7231645   0.4778900   5.2823681  )
         6           N   tau(   6) = (   0.2228988   1.0219505   2.9977111  )
         7           N   tau(   7) = (  -0.0219505   0.7771012   0.3143398  )
         8           N   tau(   8) = (   1.0219505   0.2228988   3.6263907  )
         9           H   tau(   9) = (   0.8695762   0.1459256   6.3989496  )
        10           H   tau(  10) = (   0.3542718   0.3693025   4.7429884  )
        11           H   tau(  11) = (   0.6457282   0.6306975   1.4309375  )
        12           H   tau(  12) = (   0.3693025   0.3542718   1.8811134  )
        13           H   tau(  13) = (   0.6306975   0.6457282   5.1931643  )
        14           H   tau(  14) = (   0.1304238   0.8540744   3.0868987  )
        15           H   tau(  15) = (   0.1459256   0.8695762   0.2251522  )
        16           H   tau(  16) = (   0.8540744   0.1304238   3.5372031  )
        17           H   tau(  17) = (   0.8294033   0.9136281   6.1175222  )
        18           H   tau(  18) = (   0.5865676   0.3291476   4.4615381  )
        19           H   tau(  19) = (   0.4134324   0.6708524   1.1494872  )
        20           H   tau(  20) = (   0.3291476   0.5865676   2.1625637  )
        21           H   tau(  21) = (   0.6708524   0.4134324   5.4746146  )
        22           H   tau(  22) = (   0.1705967   0.0863719   2.8054713  )
        23           H   tau(  23) = (   0.9136281   0.8294033   0.5065796  )
        24           H   tau(  24) = (   0.0863719   0.1705967   3.8186305  )
        25           C   tau(  25) = (   0.5484847   0.8860034   6.4266199  )
        26           C   tau(  26) = (   0.6142040   0.0482128   4.7706556  )
        27           C   tau(  27) = (   0.3857960   0.9517872   1.4586047  )
        28           C   tau(  28) = (   0.0482128   0.6142040   1.8534463  )
        29           C   tau(  29) = (   0.9517872   0.3857960   5.1654972  )
        30           C   tau(  30) = (   0.4515153   0.1139966   3.1145690  )
        31           C   tau(  31) = (   0.8860034   0.5484847   0.1974819  )
        32           C   tau(  32) = (   0.1139966   0.4515153   3.5095328  )
        33           N   tau(  33) = (   0.3984753   0.6663068   6.3169032  )
        34           N   tau(  34) = (   0.8338718   0.8981928   4.6608709  )
        35           N   tau(  35) = (   0.1661282   0.1018072   1.3488200  )
        36           N   tau(  36) = (   0.8981928   0.8338718   1.9632309  )
        37           N   tau(  37) = (   0.1018072   0.1661282   5.2752818  )
        38           N   tau(  38) = (   0.6015247   0.3336932   3.0048523  )
        39           N   tau(  39) = (   0.6663068   0.3984753   0.3071986  )
        40           N   tau(  40) = (   0.3336932   0.6015247   3.6192495  )
        41           H   tau(  41) = (   0.2304152   0.5896347   6.4312886  )
        42           H   tau(  42) = (   0.9106141   0.7301752   4.7752472  )
        43           H   tau(  43) = (   0.0893859   0.2698248   1.4631963  )
        44           H   tau(  44) = (   0.7301752   0.9106141   1.8488546  )
        45           H   tau(  45) = (   0.2698248   0.0893859   5.1609055  )
        46           H   tau(  46) = (   0.7695848   0.4103653   3.1192377  )
        47           H   tau(  47) = (   0.5896347   0.2304152   0.1928132  )
        48           H   tau(  48) = (   0.4103653   0.7695848   3.5048642  )
        49           N   tau(  49) = (   0.4523410   0.5138699   6.0815555  )
        50           N   tau(  50) = (   0.9862263   0.9521244   4.4255094  )
        51           N   tau(  51) = (   0.0137737   0.0478756   1.1134585  )
        52           N   tau(  52) = (   0.9521244   0.9862263   2.1985924  )
        53           N   tau(  53) = (   0.0478756   0.0137737   5.5106433  )
        54           N   tau(  54) = (   0.5476590   0.4861301   2.7695046  )
        55           N   tau(  55) = (   0.5138699   0.4523410   0.5425463  )
        56           N   tau(  56) = (   0.4861301   0.5476590   3.8545972  )
        57           O   tau(  57) = (   0.2884234   0.3250640   6.0386799  )
        58           O   tau(  58) = (   0.1751186   0.7881932   4.3825718  )
        59           O   tau(  59) = (   0.8248814   0.2118068   1.0705209  )
        60           O   tau(  60) = (   0.7881932   0.1751186   2.2415300  )
        61           O   tau(  61) = (   0.2118068   0.8248814   5.5535809  )
        62           O   tau(  62) = (   0.7115766   0.6749360   2.7266290  )
        63           O   tau(  63) = (   0.3250640   0.2884234   0.5854219  )
        64           O   tau(  64) = (   0.6749360   0.7115766   3.8974728  )
        65           O   tau(  65) = (   0.6476228   0.5809997   5.9359011  )
        66           O   tau(  66) = (   0.9190772   0.1473833   4.2798531  )
        67           O   tau(  67) = (   0.0809228   0.8526167   0.9678021  )
        68           O   tau(  68) = (   0.1473833   0.9190772   2.3442488  )
        69           O   tau(  69) = (   0.8526167   0.0809228   5.6562997  )
        70           O   tau(  70) = (   0.3523772   0.4190003   2.6238502  )
        71           O   tau(  71) = (   0.5809997   0.6476228   0.6882007  )
        72           O   tau(  72) = (   0.4190003   0.3523772   4.0002516  )
        73           O   tau(  73) = (   0.4495951   0.9788150   0.0219996  )
        74           O   tau(  74) = (   0.5213685   0.9492849   4.9900632  )
        75           O   tau(  75) = (   0.4786315   0.0507151   1.6780122  )
        76           O   tau(  76) = (   0.9492849   0.5213685   1.6340387  )
        77           O   tau(  77) = (   0.0507151   0.4786315   4.9460896  )
        78           O   tau(  78) = (   0.5504049   0.0211850   3.3340505  )
        79           O   tau(  79) = (   0.9788150   0.4495951   6.6021023  )
        80           O   tau(  80) = (   0.0211850   0.5504049   3.2900514  )

     number of k points=     7
                       cart. coord. in units 2pi/alat
        k(    1) = (   0.0000000   0.0000000   0.0000000), wk =   0.1250000
        k(    2) = (   0.0000000   0.2500000   0.0000000), wk =   0.5000000
        k(    3) = (   0.0000000  -0.5000000   0.0000000), wk =   0.2500000
        k(    4) = (   0.2500000   0.2500000   0.0000000), wk =   0.2500000
        k(    5) = (   0.2500000  -0.5000000   0.0000000), wk =   0.5000000
        k(    6) = (  -0.5000000  -0.5000000   0.0000000), wk =   0.1250000
        k(    7) = (  -0.2500000   0.2500000   0.0000000), wk =   0.2500000

     Dense  grid:   698249 G-vectors     FFT dimensions: (  60,  60, 400)

     Estimated max dynamical RAM per process >     664.47MB

     Estimated total allocated dynamical RAM >    5315.76MB

     Check: negative/imaginary core charge=   -0.000003    0.000000

     Initial potential from superposition of free atoms

     starting charge  319.99923, renormalised to  320.00000
     Starting wfc are  248 randomized atomic wfcs
     Checking if some PAW data can be deallocated... 

     total cpu time spent up to now is       24.5 secs

     per-process dynamical memory:   477.3 Mb

     Self-consistent Calculation

     iteration #  1     ecut=   100.00 Ry     beta=0.50
     Davidson diagonalization with overlap
     ethr =  1.00E-02,  avg # of iterations =  3.0

     total cpu time spent up to now is       94.1 secs

     total energy              =   -1849.29404215 Ry
     Harris-Foulkes estimate   =   -1854.90557286 Ry
     estimated scf accuracy    <       9.65973777 Ry

     iteration #  2     ecut=   100.00 Ry     beta=0.50
     Davidson diagonalization with overlap
     ethr =  3.02E-03,  avg # of iterations =  3.0

     total cpu time spent up to now is      151.5 secs

     total energy              =   -1851.50413498 Ry
     Harris-Foulkes estimate   =   -1852.91228113 Ry
     estimated scf accuracy    <       3.07306693 Ry

     iteration #  3     ecut=   100.00 Ry     beta=0.50
     Davidson diagonalization with overlap
     ethr =  9.60E-04,  avg # of iterations =  3.3

     total cpu time spent up to now is      200.3 secs

     total energy              =   -1852.10106784 Ry
     Harris-Foulkes estimate   =   -1852.19596921 Ry
     estimated scf accuracy    <       0.26623620 Ry

     iteration #  4     ecut=   100.00 Ry     beta=0.50
     Davidson diagonalization with overlap
     ethr =  8.32E-05,  avg # of iterations =  7.4

     total cpu time spent up to now is      273.0 secs

     total energy              =   -1852.16257199 Ry
     Harris-Foulkes estimate   =   -1852.18615617 Ry
     estimated scf accuracy    <       0.07482091 Ry

     iteration #  5     ecut=   100.00 Ry     beta=0.50
     Davidson diagonalization with overlap
     ethr =  2.34E-05,  avg # of iterations =  4.1

     total cpu time spent up to now is      322.1 secs

     total energy              =   -1852.17207305 Ry
     Harris-Foulkes estimate   =   -1852.17422826 Ry
     estimated scf accuracy    <       0.00710027 Ry

     iteration #  6     ecut=   100.00 Ry     beta=0.50
     Davidson diagonalization with overlap
     ethr =  2.22E-06,  avg # of iterations =  7.0

     total cpu time spent up to now is      392.4 secs

     total energy              =   -1852.17376238 Ry
     Harris-Foulkes estimate   =   -1852.17425849 Ry
     estimated scf accuracy    <       0.00135669 Ry

     iteration #  7     ecut=   100.00 Ry     beta=0.50
     Davidson diagonalization with overlap
     ethr =  4.24E-07,  avg # of iterations =  2.0

     total cpu time spent up to now is      437.5 secs

     total energy              =   -1852.17402643 Ry
     Harris-Foulkes estimate   =   -1852.17405669 Ry
     estimated scf accuracy    <       0.00013240 Ry

     iteration #  8     ecut=   100.00 Ry     beta=0.50
     Davidson diagonalization with overlap
     ethr =  4.14E-08,  avg # of iterations =  3.0

     total cpu time spent up to now is      494.1 secs

     total energy              =   -1852.17405980 Ry
     Harris-Foulkes estimate   =   -1852.17406895 Ry
     estimated scf accuracy    <       0.00002825 Ry

     iteration #  9     ecut=   100.00 Ry     beta=0.50
     Davidson diagonalization with overlap
     ethr =  8.83E-09,  avg # of iterations =  2.4

     total cpu time spent up to now is      541.5 secs

     total energy              =   -1852.17406507 Ry
     Harris-Foulkes estimate   =   -1852.17406837 Ry
     estimated scf accuracy    <       0.00001035 Ry

     iteration # 10     ecut=   100.00 Ry     beta=0.50
     Davidson diagonalization with overlap
     ethr =  3.24E-09,  avg # of iterations =  2.1

     total cpu time spent up to now is      587.4 secs

     total energy              =   -1852.17406735 Ry
     Harris-Foulkes estimate   =   -1852.17406756 Ry
     estimated scf accuracy    <       0.00000107 Ry

     iteration # 11     ecut=   100.00 Ry     beta=0.50
     Davidson diagonalization with overlap
     ethr =  3.35E-10,  avg # of iterations =  3.0

     total cpu time spent up to now is      641.1 secs

     total energy              =   -1852.17406765 Ry
     Harris-Foulkes estimate   =   -1852.17406763 Ry
     estimated scf accuracy    <       0.00000010 Ry

     iteration # 12     ecut=   100.00 Ry     beta=0.50
     Davidson diagonalization with overlap
     ethr =  3.05E-11,  avg # of iterations =  2.4

     total cpu time spent up to now is      692.5 secs

     total energy              =   -1852.17406766 Ry
     Harris-Foulkes estimate   =   -1852.17406766 Ry
     estimated scf accuracy    <       0.00000001 Ry

     iteration # 13     ecut=   100.00 Ry     beta=0.50
     Davidson diagonalization with overlap
     ethr =  3.54E-12,  avg # of iterations =  3.0

     total cpu time spent up to now is      751.8 secs

     End of self-consistent calculation

          k = 0.0000 0.0000 0.0000 ( 87371 PWs)   bands (ev):

   -24.0589 -24.0574 -24.0572 -24.0556 -24.0182 -24.0165 -24.0163 -24.0148
   -19.8013 -19.8013 -19.7971 -19.7971 -19.4554 -19.4527 -19.4518 -19.4484
   -19.4096 -19.4044 -19.4019 -19.3968 -19.3686 -19.3663 -19.3652 -19.3636
   -16.7415 -16.7409 -16.7381 -16.7375 -16.4417 -16.4388 -16.4358 -16.4329
   -15.5446 -15.5361 -15.5352 -15.5248 -15.4732 -15.4655 -15.4648 -15.4590
   -10.7281 -10.7072 -10.7051 -10.6774 -10.5901 -10.5714 -10.5696 -10.5576
    -8.5529  -8.4765  -8.4743  -8.3698  -8.0039  -7.9077  -7.9062  -7.8398
    -7.0563  -7.0180  -7.0164  -6.9529  -6.7796  -6.6939  -6.6928  -6.6207
    -6.5557  -6.5408  -6.5406  -6.5266  -6.4694  -6.4407  -6.4400  -6.4261
    -6.2666  -6.2663  -6.2649  -6.2388  -6.2337  -6.2235  -6.2171  -6.2166
    -5.6624  -5.6564  -5.6558  -5.5980  -5.5752  -5.4784  -5.4782  -5.4376
    -4.9219  -4.9186  -4.9168  -4.9058  -4.4400  -4.4340  -4.4324  -4.4264
    -4.1213  -4.1095  -4.1076  -4.1058  -3.8987  -3.8784  -3.8756  -3.8392
    -3.6624  -3.6154  -3.6128  -3.5760  -3.2157  -3.2128  -3.2103  -3.2069
    -0.9791  -0.9166  -0.9161  -0.8586  -0.8537  -0.8535  -0.8504  -0.7872
    -0.6807  -0.5699  -0.5698  -0.5427  -0.3792  -0.3704  -0.3693  -0.3417
    -0.2433  -0.1976  -0.1973  -0.1610  -0.0762  -0.0524  -0.0511   0.0192
     0.0728   0.0772   0.0859   0.0884   0.1324   0.1600   0.1607   0.1778
     0.2888   0.3152   0.3172   0.3442   0.3488   0.3800   0.3801   0.3935
     0.4336   0.4341   0.4349   0.4538   0.5671   0.5714   0.5714   0.5725
     4.5471   4.5943   4.5964   4.6938   4.7228   4.8156   4.8175   4.8602
     7.1795   7.1985   7.1996   7.2594   7.2637   7.2793   7.2805   7.2821
     7.3660   7.6259   7.6274   8.2136   8.2377   8.9628   8.9722   8.9728
     8.9949   8.9956   9.0179   9.2964   9.3881   9.3888   9.4391   9.5148

          k = 0.0000 0.2500 0.0000 ( 87257 PWs)   bands (ev):

   -24.0497 -24.0488 -24.0480 -24.0470 -24.0206 -24.0194 -24.0190 -24.0179
   -19.7549 -19.7547 -19.7507 -19.7505 -19.4980 -19.4971 -19.4946 -19.4935
   -19.4229 -19.4214 -19.3969 -19.3924 -19.3822 -19.3759 -19.3732 -19.3702
   -16.7047 -16.7042 -16.7014 -16.7009 -16.4918 -16.4893 -16.4857 -16.4831
   -15.5383 -15.5336 -15.5273 -15.5214 -15.4752 -15.4711 -15.4677 -15.4649
   -10.7048 -10.6962 -10.6876 -10.6739 -10.6159 -10.6008 -10.5942 -10.5843
    -8.3711  -8.3174  -8.3085  -8.2254  -8.0077  -7.9315  -7.8954  -7.8490
    -7.0003  -6.9814  -6.9744  -6.9285  -6.8815  -6.8118  -6.8050  -6.7658
    -6.6364  -6.6171  -6.5976  -6.5426  -6.5140  -6.4442  -6.4285  -6.3900
    -6.3243  -6.3102  -6.3022  -6.2952  -6.2805  -6.2674  -6.2209  -6.2205
    -5.6697  -5.6559  -5.6202  -5.5940  -5.5391  -5.5296  -5.5184  -5.4956
    -5.0438  -5.0356  -5.0342  -4.9972  -4.8470  -4.8249  -4.7718  -4.7480
    -4.0983  -4.0953  -4.0892  -4.0869  -3.5849  -3.5648  -3.5599  -3.5343
    -3.3424  -3.3359  -3.3091  -3.3076  -3.2048  -3.2012  -3.1985  -3.1942
    -0.9824  -0.9162  -0.9119  -0.7796  -0.7764  -0.7676  -0.7170  -0.6998
    -0.6932  -0.6571  -0.6076  -0.6042  -0.4487  -0.4266  -0.3564  -0.3293
    -0.2822  -0.2539  -0.2259  -0.2085  -0.1057  -0.0975  -0.0622  -0.0156
    -0.0103   0.0139   0.0278   0.0421   0.0785   0.1100   0.1532   0.1602
     0.3138   0.3324   0.3576   0.3810   0.4700   0.4785   0.5124   0.5226
     0.5444   0.5450   0.5686   0.5722   0.5916   0.6028   0.6175   0.6205
     4.4764   4.4945   4.5484   4.6023   4.6230   4.6650   4.7744   4.7806
     7.0242   7.0298   7.0484   7.0569   7.3032   7.3327   7.3465   7.3729
     7.9811   8.1296   8.1488   8.4926   8.6614   8.9384   9.0322   9.0389
     9.1069   9.2531   9.2752   9.2757   9.4104   9.4884   9.5515   9.7750

          k = 0.0000-0.5000 0.0000 ( 87262 PWs)   bands (ev):

   -24.0349 -24.0349 -24.0311 -24.0311 -24.0294 -24.0294 -24.0274 -24.0274
   -19.6757 -19.6757 -19.6721 -19.6720 -19.5743 -19.5743 -19.5706 -19.5706
   -19.4380 -19.4380 -19.3900 -19.3898 -19.3856 -19.3851 -19.3826 -19.3823
   -16.6310 -16.6309 -16.6276 -16.6275 -16.5767 -16.5767 -16.5711 -16.5711
   -15.5334 -15.5334 -15.5208 -15.5208 -15.4729 -15.4727 -15.4721 -15.4719
   -10.6730 -10.6726 -10.6710 -10.6705 -10.6302 -10.6299 -10.6271 -10.6268
    -8.1002  -8.0993  -8.0868  -8.0855  -8.0371  -8.0367  -7.8749  -7.8748
    -7.0025  -7.0017  -6.9871  -6.9860  -6.8873  -6.8862  -6.8628  -6.8620
    -6.6488  -6.6486  -6.6070  -6.6064  -6.5360  -6.5355  -6.4496  -6.4494
    -6.3677  -6.3674  -6.3505  -6.3501  -6.2918  -6.2918  -6.2248  -6.2248
    -5.6481  -5.6478  -5.6188  -5.6177  -5.5881  -5.5871  -5.4878  -5.4876
    -5.1858  -5.1857  -5.0815  -5.0807  -5.0532  -5.0521  -5.0118  -5.0115
    -4.0999  -4.0998  -4.0950  -4.0948  -3.2438  -3.2436  -3.2049  -3.2040
    -3.1949  -3.1948  -3.1880  -3.1872  -3.1739  -3.1737  -3.1612  -3.1609
    -0.9102  -0.9098  -0.8595  -0.8583  -0.8121  -0.8109  -0.7436  -0.7432
    -0.5880  -0.5879  -0.5845  -0.5844  -0.4083  -0.4082  -0.3549  -0.3548
    -0.2943  -0.2942  -0.2907  -0.2907  -0.1368  -0.1364  -0.0713  -0.0702
    -0.0333  -0.0324   0.0319   0.0333   0.0691   0.0711   0.1256   0.1263
     0.3757   0.3757   0.4062   0.4063   0.4991   0.4995   0.5216   0.5221
     0.6301   0.6303   0.6908   0.6915   0.7030   0.7039   0.7175   0.7179
     4.4184   4.4185   4.4924   4.4927   4.4974   4.4977   4.7183   4.7183
     6.9184   6.9184   6.9264   6.9265   7.4201   7.4202   7.4248   7.4249
     8.7438   8.7439   8.8657   8.8661   8.9180   8.9182   9.0307   9.0308
     9.4498   9.4501   9.5066   9.5070   9.7287   9.7290   9.9060   9.9062

          k = 0.2500 0.2500 0.0000 ( 87225 PWs)   bands (ev):

   -24.0422 -24.0413 -24.0412 -24.0402 -24.0215 -24.0206 -24.0202 -24.0194
   -19.7397 -19.7397 -19.6918 -19.6918 -19.5484 -19.5484 -19.5147 -19.5145
   -19.4188 -19.4182 -19.4049 -19.4041 -19.3927 -19.3911 -19.3641 -19.3637
   -16.7367 -16.7367 -16.6125 -16.6124 -16.5882 -16.5881 -16.4552 -16.4552
   -15.5763 -15.5762 -15.5180 -15.5174 -15.4836 -15.4812 -15.4645 -15.4628
   -10.7233 -10.7205 -10.6717 -10.6669 -10.6280 -10.6264 -10.5451 -10.5447
    -8.3952  -8.3929  -8.0642  -8.0361  -8.0347  -7.9875  -7.8796  -7.8627
    -7.0870  -7.0741  -6.9751  -6.9425  -6.9109  -6.8879  -6.6712  -6.6635
    -6.6156  -6.5904  -6.5535  -6.5116  -6.5105  -6.4749  -6.4560  -6.4439
    -6.4301  -6.3940  -6.3896  -6.3308  -6.3265  -6.2976  -6.2726  -6.2629
    -5.7251  -5.7006  -5.6229  -5.5979  -5.5488  -5.5137  -5.5020  -5.4641
    -5.0973  -5.0912  -5.0845  -5.0841  -4.8759  -4.8756  -4.4781  -4.4765
    -4.1448  -4.1406  -4.1021  -4.0977  -3.8315  -3.8314  -3.6047  -3.6014
    -3.2262  -3.2247  -3.2065  -3.2023  -3.1735  -3.1727  -3.1102  -3.1097
    -0.9412  -0.9022  -0.8693  -0.8408  -0.7774  -0.7095  -0.6866  -0.6217
    -0.5736  -0.5553  -0.5456  -0.5340  -0.4037  -0.4035  -0.3628  -0.3397
    -0.2784  -0.2635  -0.1059  -0.0986  -0.0863  -0.0821  -0.0479  -0.0121
    -0.0051   0.0078   0.0386   0.0423   0.0911   0.1211   0.1285   0.1522
     0.2862   0.3227   0.4151   0.4247   0.4545   0.4567   0.4772   0.5077
     0.5509   0.5604   0.5719   0.5956   0.6009   0.6074   0.7506   0.7517
     4.4174   4.4475   4.4602   4.5152   4.5938   4.6530   4.6563   4.6907
     6.7270   6.7282   6.8849   6.8863   7.4174   7.4267   7.4445   7.4546
     8.3671   8.4191   8.5503   8.6895   8.8510   8.8761   8.9483   9.0935
     9.1566   9.1630   9.3451   9.4229   9.5288   9.6651   9.8065   9.9596

          k = 0.2500-0.5000 0.0000 ( 87178 PWs)   bands (ev):

   -24.0308 -24.0308 -24.0285 -24.0285 -24.0268 -24.0268 -24.0253 -24.0253
   -19.6655 -19.6655 -19.6617 -19.6617 -19.5824 -19.5824 -19.5794 -19.5794
   -19.4279 -19.4279 -19.4032 -19.4031 -19.3862 -19.3861 -19.3762 -19.3761
   -16.6936 -16.6936 -16.6905 -16.6905 -16.5124 -16.5124 -16.5079 -16.5078
   -15.5756 -15.5756 -15.5709 -15.5709 -15.4688 -15.4687 -15.4645 -15.4645
   -10.7129 -10.7129 -10.7094 -10.7094 -10.5675 -10.5674 -10.5621 -10.5620
    -8.2349  -8.2348  -8.1782  -8.1781  -7.9325  -7.9324  -7.8708  -7.8707
    -7.0534  -7.0531  -7.0281  -7.0278  -6.8195  -6.8190  -6.7809  -6.7805
    -6.6474  -6.6473  -6.5769  -6.5768  -6.4682  -6.4682  -6.4443  -6.4440
    -6.4018  -6.4014  -6.3695  -6.3690  -6.3622  -6.3619  -6.2994  -6.2993
    -5.6884  -5.6882  -5.6254  -5.6247  -5.5898  -5.5891  -5.5175  -5.5174
    -5.0180  -5.0166  -4.9954  -4.9939  -4.8645  -4.8642  -4.7963  -4.7961
    -4.1464  -4.1463  -4.1316  -4.1315  -3.5044  -3.5040  -3.4892  -3.4887
    -3.3655  -3.3653  -3.3251  -3.3250  -3.1052  -3.1051  -3.0980  -3.0979
    -0.8546  -0.8539  -0.8224  -0.8213  -0.7256  -0.7247  -0.6882  -0.6878
    -0.4379  -0.4376  -0.4305  -0.4302  -0.3676  -0.3675  -0.2959  -0.2959
    -0.2081  -0.2080  -0.1921  -0.1919  -0.0866  -0.0862  -0.0226  -0.0210
     0.0047   0.0060   0.0878   0.0885   0.1109   0.1121   0.1437   0.1442
     0.3337   0.3340   0.3791   0.3795   0.4578   0.4583   0.4758   0.4763
     0.6076   0.6077   0.6378   0.6379   0.7251   0.7256   0.7311   0.7316
     4.3872   4.3872   4.4560   4.4562   4.4700   4.4701   4.6228   4.6228
     6.6140   6.6140   6.6281   6.6282   7.4915   7.4916   7.4987   7.4988
     8.7978   8.7980   8.8142   8.8146   8.9304   8.9307   9.0094   9.0096
     9.5418   9.5423   9.6916   9.6922   9.7502   9.7508   9.9658   9.9661

          k =-0.5000-0.5000 0.0000 ( 87192 PWs)   bands (ev):

   -24.0261 -24.0261 -24.0259 -24.0259 -24.0241 -24.0241 -24.0239 -24.0239
   -19.6547 -19.6547 -19.6507 -19.6507 -19.5907 -19.5907 -19.5883 -19.5883
   -19.4184 -19.4183 -19.4163 -19.4162 -19.3790 -19.3790 -19.3784 -19.3784
   -16.7292 -16.7292 -16.7264 -16.7263 -16.4745 -16.4744 -16.4715 -16.4715
   -15.6116 -15.6115 -15.6105 -15.6105 -15.4698 -15.4698 -15.4693 -15.4692
   -10.7314 -10.7313 -10.7291 -10.7291 -10.5219 -10.5219 -10.5200 -10.5200
    -8.2916  -8.2908  -8.2893  -8.2885  -7.8649  -7.8637  -7.8630  -7.8618
    -7.1284  -7.1274  -7.1269  -7.1259  -6.6459  -6.6447  -6.6440  -6.6429
    -6.5737  -6.5733  -6.5650  -6.5648  -6.5085  -6.5079  -6.4931  -6.4931
    -6.4521  -6.4517  -6.4200  -6.4198  -6.3893  -6.3887  -6.3503  -6.3496
    -5.7276  -5.7268  -5.7220  -5.7212  -5.5452  -5.5449  -5.5432  -5.5430
    -4.8307  -4.8289  -4.8227  -4.8209  -4.5391  -4.5376  -4.5258  -4.5243
    -4.1795  -4.1775  -4.1730  -4.1710  -3.7775  -3.7775  -3.7748  -3.7747
    -3.6525  -3.6512  -3.6496  -3.6484  -3.0135  -3.0130  -3.0109  -3.0104
    -0.7871  -0.7863  -0.7727  -0.7716  -0.6592  -0.6585  -0.6396  -0.6392
    -0.3067  -0.3065  -0.2980  -0.2978  -0.2901  -0.2900  -0.2818  -0.2816
    -0.0838  -0.0819  -0.0793  -0.0771  -0.0066  -0.0060   0.0110   0.0128
     0.0627   0.0643   0.0869   0.0876   0.1764   0.1789   0.1839   0.1863
     0.3341   0.3346   0.3436   0.3439   0.3747   0.3758   0.3855   0.3865
     0.6389   0.6395   0.6401   0.6406   0.6986   0.6993   0.7007   0.7014
     4.4105   4.4107   4.4128   4.4130   4.4558   4.4560   4.4580   4.4582
     6.3634   6.3637   6.3658   6.3661   7.5257   7.5262   7.5270   7.5275
     8.7086   8.7089   8.7112   8.7114   8.9509   8.9522   8.9572   8.9585
     9.8232   9.8241   9.8720   9.8727  10.0489  10.0503  10.1480  10.1495

          k =-0.2500 0.2500 0.0000 ( 87225 PWs)   bands (ev):

   -24.0423 -24.0415 -24.0411 -24.0402 -24.0214 -24.0204 -24.0203 -24.0194
   -19.7356 -19.7356 -19.6955 -19.6955 -19.5518 -19.5517 -19.5129 -19.5127
   -19.4199 -19.4195 -19.4036 -19.4024 -19.3923 -19.3904 -19.3639 -19.3634
   -16.7339 -16.7339 -16.6153 -16.6153 -16.5912 -16.5911 -16.4522 -16.4522
   -15.5754 -15.5752 -15.5189 -15.5183 -15.4842 -15.4819 -15.4638 -15.4623
   -10.7214 -10.7183 -10.6738 -10.6686 -10.6301 -10.6284 -10.5432 -10.5428
    -8.3931  -8.3907  -8.0660  -8.0382  -8.0361  -7.9895  -7.8781  -7.8616
    -7.0859  -7.0728  -6.9765  -6.9436  -6.9121  -6.8889  -6.6707  -6.6625
    -6.6157  -6.5903  -6.5536  -6.5113  -6.5098  -6.4752  -6.4555  -6.4440
    -6.4299  -6.3940  -6.3890  -6.3305  -6.3267  -6.2974  -6.2730  -6.2631
    -5.7249  -5.7001  -5.6238  -5.5984  -5.5495  -5.5139  -5.5029  -5.4646
    -5.0986  -5.0926  -5.0858  -5.0853  -4.8742  -4.8738  -4.4765  -4.4749
    -4.1465  -4.1426  -4.1001  -4.0961  -3.8287  -3.8285  -3.6019  -3.5986
    -3.2281  -3.2272  -3.2038  -3.2001  -3.1758  -3.1750  -3.1128  -3.1123
    -0.9417  -0.9032  -0.8699  -0.8421  -0.7770  -0.7090  -0.6862  -0.6214
    -0.5738  -0.5554  -0.5456  -0.5339  -0.4025  -0.4023  -0.3628  -0.3400
    -0.2774  -0.2626  -0.1063  -0.0996  -0.0873  -0.0834  -0.0479  -0.0138
    -0.0072   0.0069   0.0388   0.0421   0.0923   0.1229   0.1299   0.1530
     0.2868   0.3234   0.4146   0.4242   0.4553   0.4574   0.4768   0.5066
     0.5497   0.5610   0.5704   0.5956   0.6001   0.6067   0.7525   0.7537
     4.4171   4.4462   4.4612   4.5151   4.5941   4.6521   4.6576   4.6909
     6.7288   6.7300   6.8826   6.8841   7.4182   7.4284   7.4430   7.4542
     8.3669   8.4183   8.5512   8.6898   8.8511   8.8761   8.9488   9.0928
     9.1560   9.1631   9.3444   9.4229   9.5288   9.6661   9.8061   9.9597

     highest occupied, lowest unoccupied level (ev):     0.7537    4.3872

!    total energy              =   -1852.17406766 Ry
     Harris-Foulkes estimate   =   -1852.17406767 Ry
     estimated scf accuracy    <          7.2E-09 Ry

     total all-electron energy =     -6877.783420 Ry

     The total energy is the sum of the following terms:

     one-electron contribution =    -861.20575182 Ry
     hartree contribution      =     566.89146508 Ry
     xc contribution           =    -358.04720534 Ry
     ewald contribution        =    -719.16394067 Ry
     Dispersion Correction     =      -0.37851690 Ry
     one-center paw contrib.   =    -480.27011802 Ry

     convergence has been achieved in  13 iterations

     Forces acting on atoms (cartesian axes, Ry/au):

     atom    1 type  2   force =    -0.00502472    0.00208341   -0.00608500
     atom    2 type  2   force =    -0.00168405   -0.00525352   -0.00620051
     atom    3 type  2   force =     0.00168405    0.00525352   -0.00620051
     atom    4 type  2   force =    -0.00525352   -0.00168405    0.00620051
     atom    5 type  2   force =     0.00525352    0.00168405    0.00620051
     atom    6 type  2   force =     0.00502472   -0.00208341   -0.00608500
     atom    7 type  2   force =     0.00208341   -0.00502472    0.00608500
     atom    8 type  2   force =    -0.00208341    0.00502472    0.00608500
     atom    9 type  3   force =    -0.00062540   -0.00084658   -0.00093787
     atom   10 type  3   force =     0.00069375   -0.00053251   -0.00087661
     atom   11 type  3   force =    -0.00069375    0.00053251   -0.00087661
     atom   12 type  3   force =    -0.00053251    0.00069375    0.00087661
     atom   13 type  3   force =     0.00053251   -0.00069375    0.00087661
     atom   14 type  3   force =     0.00062540    0.00084658   -0.00093787
     atom   15 type  3   force =    -0.00084658   -0.00062540    0.00093787
     atom   16 type  3   force =     0.00084658    0.00062540    0.00093787
     atom   17 type  3   force =    -0.00040646    0.00017388    0.00100663
     atom   18 type  3   force =    -0.00024933   -0.00043216    0.00113993
     atom   19 type  3   force =     0.00024933    0.00043216    0.00113993
     atom   20 type  3   force =    -0.00043216   -0.00024933   -0.00113993
     atom   21 type  3   force =     0.00043216    0.00024933   -0.00113993
     atom   22 type  3   force =     0.00040646   -0.00017388    0.00100663
     atom   23 type  3   force =     0.00017388   -0.00040646   -0.00100663
     atom   24 type  3   force =    -0.00017388    0.00040646   -0.00100663
     atom   25 type  1   force =    -0.00770522   -0.00553643   -0.00163794
     atom   26 type  1   force =     0.00543284   -0.00747065   -0.00215751
     atom   27 type  1   force =    -0.00543284    0.00747065   -0.00215751
     atom   28 type  1   force =    -0.00747065    0.00543284    0.00215751
     atom   29 type  1   force =     0.00747065   -0.00543284    0.00215751
     atom   30 type  1   force =     0.00770522    0.00553643   -0.00163794
     atom   31 type  1   force =    -0.00553643   -0.00770522    0.00163794
     atom   32 type  1   force =     0.00553643    0.00770522    0.00163794
     atom   33 type  2   force =     0.00617488   -0.00452622   -0.00854144
     atom   34 type  2   force =     0.00448469    0.00636045   -0.00858912
     atom   35 type  2   force =    -0.00448469   -0.00636045   -0.00858912
     atom   36 type  2   force =     0.00636045    0.00448469    0.00858912
     atom   37 type  2   force =    -0.00636045   -0.00448469    0.00858912
     atom   38 type  2   force =    -0.00617488    0.00452622   -0.00854144
     atom   39 type  2   force =    -0.00452622    0.00617488    0.00854144
     atom   40 type  2   force =     0.00452622   -0.00617488    0.00854144
     atom   41 type  3   force =     0.00175484    0.00237524   -0.00099333
     atom   42 type  3   force =    -0.00234614    0.00169836   -0.00098181
     atom   43 type  3   force =     0.00234614   -0.00169836   -0.00098181
     atom   44 type  3   force =     0.00169836   -0.00234614    0.00098181
     atom   45 type  3   force =    -0.00169836    0.00234614    0.00098181
     atom   46 type  3   force =    -0.00175484   -0.00237524   -0.00099333
     atom   47 type  3   force =     0.00237524    0.00175484    0.00099333
     atom   48 type  3   force =    -0.00237524   -0.00175484    0.00099333
     atom   49 type  2   force =    -0.01156121    0.01109451    0.00619297
     atom   50 type  2   force =    -0.01035517   -0.01211490    0.00599730
     atom   51 type  2   force =     0.01035517    0.01211490    0.00599730
     atom   52 type  2   force =    -0.01211490   -0.01035517   -0.00599730
     atom   53 type  2   force =     0.01211490    0.01035517   -0.00599730
     atom   54 type  2   force =     0.01156121   -0.01109451    0.00619297
     atom   55 type  2   force =     0.01109451   -0.01156121   -0.00619297
     atom   56 type  2   force =    -0.01109451    0.01156121   -0.00619297
     atom   57 type  4   force =     0.01008436    0.00380046   -0.00164011
     atom   58 type  4   force =    -0.00442085    0.01056624   -0.00146727
     atom   59 type  4   force =     0.00442085   -0.01056624   -0.00146727
     atom   60 type  4   force =     0.01056624   -0.00442085    0.00146727
     atom   61 type  4   force =    -0.01056624    0.00442085    0.00146727
     atom   62 type  4   force =    -0.01008436   -0.00380046   -0.00164011
     atom   63 type  4   force =     0.00380046    0.01008436    0.00164011
     atom   64 type  4   force =    -0.00380046   -0.01008436    0.00164011
     atom   65 type  4   force =    -0.00005574   -0.00671107   -0.00120708
     atom   66 type  4   force =     0.00663174   -0.00005534   -0.00114965
     atom   67 type  4   force =    -0.00663174    0.00005534   -0.00114965
     atom   68 type  4   force =    -0.00005534    0.00663174    0.00114965
     atom   69 type  4   force =     0.00005534   -0.00663174    0.00114965
     atom   70 type  4   force =     0.00005574    0.00671107   -0.00120708
     atom   71 type  4   force =    -0.00671107   -0.00005574    0.00120708
     atom   72 type  4   force =     0.00671107    0.00005574    0.00120708
     atom   73 type  4   force =     0.00189268    0.00073958   -0.00109836
     atom   74 type  4   force =    -0.00082252    0.00179378   -0.00071123
     atom   75 type  4   force =     0.00082252   -0.00179378   -0.00071123
     atom   76 type  4   force =     0.00179378   -0.00082252    0.00071123
     atom   77 type  4   force =    -0.00179378    0.00082252    0.00071123
     atom   78 type  4   force =    -0.00189268   -0.00073958   -0.00109836
     atom   79 type  4   force =     0.00073958    0.00189268    0.00109836
     atom   80 type  4   force =    -0.00073958   -0.00189268    0.00109836

     Total force =     0.078695     Total SCF correction =     0.000204


     Computing stress (Cartesian axis) and pressure

          total   stress  (Ry/bohr**3)                   (kbar)     P=   -3.96
  -0.00003541   0.00000067   0.00000000         -5.21      0.10      0.00
   0.00000067  -0.00003541   0.00000000          0.10     -5.21      0.00
   0.00000000   0.00000000  -0.00000994          0.00      0.00     -1.46


     Writing output data file scf.save
 
     init_run     :     22.72s CPU     23.92s WALL (       1 calls)
     electrons    :    691.14s CPU    727.34s WALL (       1 calls)
     forces       :     12.08s CPU     12.27s WALL (       1 calls)
     stress       :     91.94s CPU     92.25s WALL (       1 calls)

     Called by init_run:
     wfcinit      :     18.29s CPU     19.37s WALL (       1 calls)
     potinit      :      1.58s CPU      1.60s WALL (       1 calls)

     Called by electrons:
     c_bands      :    613.78s CPU    645.09s WALL (      13 calls)
     sum_band     :     67.71s CPU     71.87s WALL (      13 calls)
     v_of_rho     :      1.44s CPU      1.57s WALL (      14 calls)
     newd         :      2.84s CPU      3.47s WALL (      14 calls)
     PAW_pot      :      4.83s CPU      4.83s WALL (      14 calls)
     mix_rho      :      0.38s CPU      0.41s WALL (      13 calls)

     Called by c_bands:
     init_us_2    :      5.94s CPU      5.97s WALL (     203 calls)
     cegterg      :    593.53s CPU    624.80s WALL (      91 calls)

     Called by sum_band:
     sum_band:bec :      0.06s CPU      0.06s WALL (      91 calls)
     addusdens    :      3.24s CPU      3.86s WALL (      13 calls)

     Called by *egterg:
     h_psi        :    322.61s CPU    343.71s WALL (     419 calls)
     s_psi        :     65.67s CPU     65.67s WALL (     419 calls)
     g_psi        :      2.68s CPU      2.68s WALL (     321 calls)
     cdiaghg      :     47.50s CPU     47.50s WALL (     412 calls)

     Called by h_psi:
     h_psi:pot    :    318.06s CPU    339.09s WALL (     419 calls)
     h_psi:calbec :     60.88s CPU     61.07s WALL (     419 calls)
     vloc_psi     :    191.52s CPU    212.34s WALL (     419 calls)
     add_vuspsi   :     65.67s CPU     65.68s WALL (     419 calls)

     General routines
     calbec       :     91.68s CPU     91.95s WALL (     545 calls)
     fft          :      0.85s CPU      1.07s WALL (     206 calls)
     fftw         :    200.78s CPU    222.74s WALL (  113280 calls)
 
     Parallel routines
     fft_scatter  :     55.33s CPU     71.02s WALL (  113486 calls)
 
     PWSCF        : 13m46.26s CPU    15m11.88s WALL

 
   This run was terminated on:  23:25: 1  12Dec2017            

=------------------------------------------------------------------------------=
   JOB DONE.
=------------------------------------------------------------------------------=
