
     Program PWSCF v.6.1 (svn rev. 13369) starts on  4Nov2017 at  1:22:57 

     This program is part of the open-source Quantum ESPRESSO suite
     for quantum simulation of materials; please cite
         "P. Giannozzi et al., J. Phys.:Condens. Matter 21 395502 (2009);
          URL http://www.quantum-espresso.org", 
     in publications or presentations arising from this work. More details at
     http://www.quantum-espresso.org/quote

     Parallel version (MPI), running on     8 processors
     R & G space division:  proc/nbgrp/npool/nimage =       8
     Waiting for input...
     Reading input from standard input

     Current dimensions of program PWSCF are:
     Max number of different atomic species (ntypx) = 10
     Max number of k-points (npk) =  40000
     Max angular momentum in pseudopotentials (lmaxx) =  3
               file C.pbe-n-kjpaw_psl.0.1.UPF: wavefunction(s)  2P renormalized
               file N.pbe-n-kjpaw_psl.0.1.UPF: wavefunction(s)  2P renormalized
               file H.pbe-kjpaw_psl.0.1.UPF: wavefunction(s)  1S renormalized
               file O.pbe-n-kjpaw_psl.0.1.UPF: wavefunction(s)  2P renormalized

     -------------------------------------
     Parameters for Dispersion Correction:
     -------------------------------------
       atom      VdW radius       C_6     

        C          2.744         60.710
        N          2.640         42.670
        H          1.892          4.857
        O          2.536         24.284

     Subspace diagonalization in iterative solution of the eigenvalue problem:
     a serial algorithm will be used

 
     Parallelization info
     --------------------
     sticks:   dense  smooth     PW     G-vecs:    dense   smooth      PW
     Min        1736    1736    471                51180    51180    7254
     Max        1738    1738    473                51181    51181    7255
     Sum       13895   13895   3777               409443   409443   58035
 


     bravais-lattice index     =            0
     lattice parameter (alat)  =      19.7930  a.u.
     unit-cell volume          =    3032.0923 (a.u.)^3
     number of atoms/cell      =           48
     number of atomic types    =            4
     number of electrons       =       168.00
     number of Kohn-Sham states=          100
     kinetic-energy cutoff     =     100.0000  Ry
     charge density cutoff     =     400.0000  Ry
     convergence threshold     =      1.0E-08
     mixing beta               =       0.5000
     number of iterations used =            8  plain     mixing
     Exchange-correlation      =  SLA  PW   PBX  PBC ( 1  4  3  4 0 0)

     celldm(1)=  19.792992  celldm(2)=   0.000000  celldm(3)=   0.000000
     celldm(4)=   0.000000  celldm(5)=   0.000000  celldm(6)=   0.000000

     crystal axes: (cart. coord. in units of alat)
               a(1) = (   1.000000   0.000000   0.000000 )  
               a(2) = (   0.000000   1.114760   0.000000 )  
               a(3) = (   0.000000   0.000000   0.350773 )  

     reciprocal axes: (cart. coord. in units 2 pi/alat)
               b(1) = (  1.000000  0.000000  0.000000 )  
               b(2) = (  0.000000  0.897054  0.000000 )  
               b(3) = (  0.000000  0.000000  2.850844 )  


     PseudoPot. # 1 for  C read from file:
     /scratch/ahofstet/pseudo/C.pbe-n-kjpaw_psl.0.1.UPF
     MD5 check sum: 430fe95172b1e11ef3f8ed03bac87931
     Pseudo is Projector augmented-wave + core cor, Zval =  4.0
     Generated using "atomic" code by A. Dal Corso  v.5.0.99 svn rev. 10869
     Shape of augmentation charge: BESSEL
     Using radial grid of 1073 points,  4 beta functions with: 
                l(1) =   0
                l(2) =   0
                l(3) =   1
                l(4) =   1
     Q(r) pseudized with 0 coefficients 


     PseudoPot. # 2 for  N read from file:
     /scratch/ahofstet/pseudo/N.pbe-n-kjpaw_psl.0.1.UPF
     MD5 check sum: f73187c8b701007e77325f868c9291d7
     Pseudo is Projector augmented-wave + core cor, Zval =  5.0
     Generated using "atomic" code by A. Dal Corso  v.5.0.99 svn rev. 10869
     Shape of augmentation charge: PSQ
     Using radial grid of 1085 points,  4 beta functions with: 
                l(1) =   0
                l(2) =   0
                l(3) =   1
                l(4) =   1
     Q(r) pseudized with 0 coefficients 


     PseudoPot. # 3 for  H read from file:
     /scratch/ahofstet/pseudo/H.pbe-kjpaw_psl.0.1.UPF
     MD5 check sum: 94e484f906d9e9773b2f6e52662335b2
     Pseudo is Projector augmented-wave, Zval =  1.0
     Generated using "atomic" code by A. Dal Corso  v.5.0.99 svn rev. 10869
     Shape of augmentation charge: PSQ
     Using radial grid of  929 points,  2 beta functions with: 
                l(1) =   0
                l(2) =   0
     Q(r) pseudized with 0 coefficients 


     PseudoPot. # 4 for  O read from file:
     /scratch/ahofstet/pseudo/O.pbe-n-kjpaw_psl.0.1.UPF
     MD5 check sum: 3f94a2996a3169367d6eb21d9b593f20
     Pseudo is Projector augmented-wave + core cor, Zval =  6.0
     Generated using "atomic" code by A. Dal Corso  v.5.0.99 svn rev. 10869
     Shape of augmentation charge: BESSEL
     Using radial grid of 1095 points,  4 beta functions with: 
                l(1) =   0
                l(2) =   0
                l(3) =   1
                l(4) =   1
     Q(r) pseudized with 0 coefficients 


     atomic species   valence    mass     pseudopotential
        C              4.00    12.01070      C( 1.00)
        N              5.00    14.00670      N( 1.00)
        H              1.00     1.00794      H( 1.00)
        O              6.00    15.99940      O( 1.00)

      2 Sym. Ops. (no inversion) found ( 1 have fractional translation)
          (note:  2 additional sym.ops. were found but ignored
           their fractional translations are incommensurate with FFT grid)


   Cartesian axes

     site n.     atom                  positions (alat units)
         1           C   tau(   1) = (   0.1148436   0.3734862   0.2027109  )
         2           C   tau(   2) = (   0.8851564   0.7412742   0.0273243  )
         3           C   tau(   3) = (   0.6148436   0.1838940   0.2027109  )
         4           C   tau(   4) = (   0.3851564   0.9308663   0.0273243  )
         5           C   tau(   5) = (   0.1571427   0.5055542   0.1692459  )
         6           C   tau(   6) = (   0.8428573   0.6092062  -0.0061408  )
         7           C   tau(   7) = (   0.6571427   0.0518260   0.1692459  )
         8           C   tau(   8) = (   0.3428573   1.0629344  -0.0061408  )
         9           N   tau(   9) = (   0.1161779   0.1689520   0.2532431  )
        10           N   tau(  10) = (   0.8838221   0.9458084   0.0778565  )
        11           N   tau(  11) = (   0.6161779   0.3884282   0.2532431  )
        12           N   tau(  12) = (   0.3838221   0.7263321   0.0778565  )
        13           H   tau(  13) = (   0.1629780   0.0804210   0.2609430  )
        14           H   tau(  14) = (   0.8370220   1.0343394   0.0855563  )
        15           H   tau(  15) = (   0.6629780   0.4769592   0.2609430  )
        16           H   tau(  16) = (   0.3370220   0.6378012   0.0855563  )
        17           C   tau(  17) = (   0.0492482   0.2311079   0.3446084  )
        18           C   tau(  18) = (   0.9507518   0.8836524   0.1692218  )
        19           C   tau(  19) = (   0.5492482   0.3262723   0.3446084  )
        20           C   tau(  20) = (   0.4507518   0.7884881   0.1692218  )
        21           H   tau(  21) = (   0.9707735   0.1874305   0.3970464  )
        22           H   tau(  22) = (   0.0292265   0.9273299   0.2216597  )
        23           H   tau(  23) = (   0.4707735   0.3699497   0.3970464  )
        24           H   tau(  24) = (   0.5292265   0.7448107   0.2216597  )
        25           O   tau(  25) = (   0.2322640   0.5165615   0.0765827  )
        26           O   tau(  26) = (   0.7677360   0.5981989   0.2519693  )
        27           O   tau(  27) = (   0.7322640   0.0408187   0.0765827  )
        28           O   tau(  28) = (   0.2677360   1.0739417   0.2519693  )
        29           O   tau(  29) = (   0.1255928   0.5892379   0.2492368  )
        30           O   tau(  30) = (   0.8744072   0.5255225   0.0738501  )
        31           O   tau(  31) = (   0.6255928   1.0829027   0.2492368  )
        32           O   tau(  32) = (   0.3744072   0.0318577   0.0738501  )
        33           N   tau(  33) = (   0.0417673   0.3546834   0.3030263  )
        34           N   tau(  34) = (   0.9582327   0.7600769   0.1276397  )
        35           N   tau(  35) = (   0.5417673   0.2026967   0.3030263  )
        36           N   tau(  36) = (   0.4582327   0.9120636   0.1276397  )
        37           H   tau(  37) = (   0.9932183   0.4280798   0.3490522  )
        38           H   tau(  38) = (   0.0067817   0.6866805   0.1736656  )
        39           H   tau(  39) = (   0.4932183   0.1293003   0.3490522  )
        40           H   tau(  40) = (   0.5067817   0.9854600   0.1736656  )
        41           C   tau(  41) = (   0.1546108   0.2523985   0.1612293  )
        42           C   tau(  42) = (   0.8453892   0.8623618  -0.0141574  )
        43           C   tau(  43) = (   0.6546108   0.3049817   0.1612293  )
        44           C   tau(  44) = (   0.3453892   0.8097787  -0.0141574  )
        45           H   tau(  45) = (   0.2401459   0.2318525   0.1062243  )
        46           H   tau(  46) = (   0.7598541   0.8829078   0.2816110  )
        47           H   tau(  47) = (   0.7401459   0.3255277   0.1062243  )
        48           H   tau(  48) = (   0.2598541   0.7892327   0.2816110  )

     number of k points=    12
                       cart. coord. in units 2pi/alat
        k(    1) = (   0.0000000   0.0000000   0.0000000), wk =   0.1000000
        k(    2) = (   0.0000000   0.0000000   0.5701688), wk =   0.2000000
        k(    3) = (   0.0000000   0.0000000   1.1403375), wk =   0.2000000
        k(    4) = (   0.0000000  -0.4485269   0.0000000), wk =   0.1000000
        k(    5) = (   0.0000000  -0.4485269   0.5701688), wk =   0.2000000
        k(    6) = (   0.0000000  -0.4485269   1.1403375), wk =   0.2000000
        k(    7) = (  -0.5000000   0.0000000   0.0000000), wk =   0.1000000
        k(    8) = (  -0.5000000   0.0000000   0.5701688), wk =   0.2000000
        k(    9) = (  -0.5000000   0.0000000   1.1403375), wk =   0.2000000
        k(   10) = (  -0.5000000  -0.4485269   0.0000000), wk =   0.1000000
        k(   11) = (  -0.5000000  -0.4485269   0.5701688), wk =   0.2000000
        k(   12) = (  -0.5000000  -0.4485269   1.1403375), wk =   0.2000000

     Dense  grid:   409443 G-vectors     FFT dimensions: ( 128, 144,  45)

     Estimated max dynamical RAM per process >     268.96MB

     Estimated total allocated dynamical RAM >    2151.70MB

     Check: negative/imaginary core charge=   -0.000002    0.000000

     Initial potential from superposition of free atoms

     starting charge  167.99911, renormalised to  168.00000
     Starting wfc are  144 randomized atomic wfcs
     Checking if some PAW data can be deallocated... 

     total cpu time spent up to now is       12.7 secs

     per-process dynamical memory:   263.3 Mb

     Self-consistent Calculation

     iteration #  1     ecut=   100.00 Ry     beta=0.50
     Davidson diagonalization with overlap
     ethr =  1.00E-02,  avg # of iterations =  4.1

     total cpu time spent up to now is       43.9 secs

     total energy              =    -871.82301675 Ry
     Harris-Foulkes estimate   =    -874.48367203 Ry
     estimated scf accuracy    <       4.87736282 Ry

     iteration #  2     ecut=   100.00 Ry     beta=0.50
     Davidson diagonalization with overlap
     ethr =  2.90E-03,  avg # of iterations =  2.3

     total cpu time spent up to now is       62.9 secs

     total energy              =    -872.52894187 Ry
     Harris-Foulkes estimate   =    -872.89974053 Ry
     estimated scf accuracy    <       0.79473178 Ry

     iteration #  3     ecut=   100.00 Ry     beta=0.50
     Davidson diagonalization with overlap
     ethr =  4.73E-04,  avg # of iterations =  5.1

     total cpu time spent up to now is       92.2 secs

     total energy              =    -872.78947443 Ry
     Harris-Foulkes estimate   =    -872.86360242 Ry
     estimated scf accuracy    <       0.17711346 Ry

     iteration #  4     ecut=   100.00 Ry     beta=0.50
     Davidson diagonalization with overlap
     ethr =  1.05E-04,  avg # of iterations =  2.0

     total cpu time spent up to now is      109.9 secs

     total energy              =    -872.80731741 Ry
     Harris-Foulkes estimate   =    -872.81478201 Ry
     estimated scf accuracy    <       0.02425613 Ry

     iteration #  5     ecut=   100.00 Ry     beta=0.50
     Davidson diagonalization with overlap
     ethr =  1.44E-05,  avg # of iterations =  5.8

     total cpu time spent up to now is      143.6 secs

     total energy              =    -872.81738417 Ry
     Harris-Foulkes estimate   =    -872.82297865 Ry
     estimated scf accuracy    <       0.01438647 Ry

     iteration #  6     ecut=   100.00 Ry     beta=0.50
     Davidson diagonalization with overlap
     ethr =  8.56E-06,  avg # of iterations =  1.0

     total cpu time spent up to now is      159.5 secs

     total energy              =    -872.81727772 Ry
     Harris-Foulkes estimate   =    -872.81893692 Ry
     estimated scf accuracy    <       0.00340082 Ry

     iteration #  7     ecut=   100.00 Ry     beta=0.50
     Davidson diagonalization with overlap
     ethr =  2.02E-06,  avg # of iterations =  5.6

     total cpu time spent up to now is      191.5 secs

     total energy              =    -872.81911048 Ry
     Harris-Foulkes estimate   =    -872.81939848 Ry
     estimated scf accuracy    <       0.00096709 Ry

     iteration #  8     ecut=   100.00 Ry     beta=0.50
     Davidson diagonalization with overlap
     ethr =  5.76E-07,  avg # of iterations =  1.0

     total cpu time spent up to now is      207.5 secs

     total energy              =    -872.81900348 Ry
     Harris-Foulkes estimate   =    -872.81916789 Ry
     estimated scf accuracy    <       0.00032421 Ry

     iteration #  9     ecut=   100.00 Ry     beta=0.50
     Davidson diagonalization with overlap
     ethr =  1.93E-07,  avg # of iterations =  3.3

     total cpu time spent up to now is      234.0 secs

     total energy              =    -872.81916380 Ry
     Harris-Foulkes estimate   =    -872.81918912 Ry
     estimated scf accuracy    <       0.00009282 Ry

     iteration # 10     ecut=   100.00 Ry     beta=0.50
     Davidson diagonalization with overlap
     ethr =  5.52E-08,  avg # of iterations =  1.0

     total cpu time spent up to now is      250.0 secs

     total energy              =    -872.81914827 Ry
     Harris-Foulkes estimate   =    -872.81916854 Ry
     estimated scf accuracy    <       0.00003667 Ry

     iteration # 11     ecut=   100.00 Ry     beta=0.50
     Davidson diagonalization with overlap
     ethr =  2.18E-08,  avg # of iterations =  3.0

     total cpu time spent up to now is      276.1 secs

     total energy              =    -872.81916371 Ry
     Harris-Foulkes estimate   =    -872.81916827 Ry
     estimated scf accuracy    <       0.00001004 Ry

     iteration # 12     ecut=   100.00 Ry     beta=0.50
     Davidson diagonalization with overlap
     ethr =  5.98E-09,  avg # of iterations =  1.0

     total cpu time spent up to now is      292.1 secs

     total energy              =    -872.81916396 Ry
     Harris-Foulkes estimate   =    -872.81916462 Ry
     estimated scf accuracy    <       0.00000136 Ry

     iteration # 13     ecut=   100.00 Ry     beta=0.50
     Davidson diagonalization with overlap
     ethr =  8.08E-10,  avg # of iterations =  4.0

     total cpu time spent up to now is      323.0 secs

     total energy              =    -872.81916547 Ry
     Harris-Foulkes estimate   =    -872.81916577 Ry
     estimated scf accuracy    <       0.00000106 Ry

     iteration # 14     ecut=   100.00 Ry     beta=0.50
     Davidson diagonalization with overlap
     ethr =  6.28E-10,  avg # of iterations =  1.0

     total cpu time spent up to now is      339.1 secs

     total energy              =    -872.81916531 Ry
     Harris-Foulkes estimate   =    -872.81916550 Ry
     estimated scf accuracy    <       0.00000043 Ry

     iteration # 15     ecut=   100.00 Ry     beta=0.50
     Davidson diagonalization with overlap
     ethr =  2.57E-10,  avg # of iterations =  3.0

     total cpu time spent up to now is      363.4 secs

     End of self-consistent calculation

          k = 0.0000 0.0000 0.0000 ( 51111 PWs)   bands (ev):

   -19.6491 -19.5921 -19.5854 -19.5481 -18.7818 -18.7403 -18.6783 -18.6650
   -16.3345 -16.2155 -16.1693 -16.1249 -15.8102 -15.7902 -15.6966 -15.6405
   -11.6681 -11.6370 -11.6269 -11.6186  -9.4737  -9.3865  -9.3511  -9.3176
    -8.6138  -8.4702  -8.4555  -8.3693  -8.1707  -8.1047  -8.0129  -7.9111
    -5.8621  -5.7676  -5.6319  -5.5059  -5.3478  -5.3191  -5.2081  -5.1740
    -5.0295  -5.0069  -4.9309  -4.6166  -4.3043  -3.9142  -3.8651  -3.7953
    -3.6079  -3.5324  -3.5245  -3.5094  -2.7819  -2.5739  -2.5440  -2.4775
    -2.2447  -2.2055  -2.2036  -2.1742  -1.8503  -1.8392  -1.8278  -1.6782
    -1.1035  -1.0285  -1.0012  -0.9842  -0.2066  -0.1210  -0.1012  -0.0935
     0.2809   0.3232   0.3474   0.3589   1.0675   1.1331   1.2853   1.3256
     1.8261   1.9106   1.9301   1.9919   4.7074   4.7808   4.7931   4.8412
     7.0246   7.3603   7.5460   7.7457   7.7475   7.7753   7.9660   8.4307
     8.5467   8.6451   8.8161   8.9101

          k = 0.0000 0.0000 0.5702 ( 51206 PWs)   bands (ev):

   -19.5334 -19.4832 -19.4786 -19.4463 -18.6795 -18.6421 -18.5877 -18.5772
   -16.4289 -16.3408 -16.3133 -16.2933 -15.7582 -15.7249 -15.6655 -15.6303
   -12.1038 -12.1013 -12.0868 -12.0760  -9.4090  -9.2796  -9.2750  -9.2275
    -8.7585  -8.7211  -8.6626  -8.5753  -7.9417  -7.9018  -7.8560  -7.7575
    -5.9677  -5.8211  -5.6849  -5.4309  -5.2560  -5.2394  -5.0939  -4.8656
    -4.7690  -4.6658  -4.6342  -4.6287  -4.2102  -3.9735  -3.8381  -3.8311
    -3.7283  -3.7239  -3.7115  -3.6463  -3.2309  -3.1255  -3.1167  -3.0966
    -2.6328  -2.3996  -2.3869  -2.3686  -2.0504  -2.0477  -2.0113  -1.9637
    -0.8486  -0.7886  -0.7331  -0.7178   0.3616   0.4169   0.4499   0.5202
     0.7986   0.8529   0.9280   1.0064   1.3549   1.3632   1.4380   1.4575
     1.8824   1.8932   1.9686   2.0349   4.8406   4.8861   4.9025   4.9455
     7.2844   7.4243   7.4266   7.4534   7.7250   7.8794   8.2202   8.4136
     8.4306   8.6978   8.8381   8.9617

          k = 0.0000 0.0000 1.1403 ( 51218 PWs)   bands (ev):

   -19.3110 -19.2856 -19.2848 -19.2734 -18.4757 -18.4523 -18.4292 -18.4284
   -16.6231 -16.5865 -16.5793 -16.5777 -15.6652 -15.6353 -15.6304 -15.6094
   -12.7322 -12.7182 -12.7179 -12.7170  -9.3557  -9.3312  -9.2626  -9.2621
    -8.9337  -8.8826  -8.8387  -8.8183  -7.4745  -7.4584  -7.4328  -7.3872
    -5.9109  -5.8126  -5.7518  -5.5674  -5.3424  -5.2719  -5.1901  -5.1216
    -4.7646  -4.7538  -4.7073  -4.6495  -4.1503  -4.0721  -3.9986  -3.9715
    -3.6306  -3.6228  -3.5954  -3.4069  -3.3639  -3.3563  -3.3205  -3.2336
    -2.9629  -2.9450  -2.8491  -2.8342  -2.4481  -2.3270  -2.2867  -2.2484
    -0.8808  -0.8642  -0.8563  -0.8236   1.1159   1.2734   1.3126   1.3590
     1.4916   1.5731   1.5731   1.6875   1.9463   2.0167   2.1251   2.2090
     2.5460   2.5800   2.6277   2.6308   4.3949   4.4731   4.5402   4.6000
     6.9226   6.9563   7.0192   7.0407   8.2755   8.4162   8.5413   8.5922
     8.9379   8.9971   8.9998   9.3349

          k = 0.0000-0.4485 0.0000 ( 51130 PWs)   bands (ev):

   -19.6216 -19.6216 -19.5678 -19.5678 -18.7306 -18.7306 -18.7006 -18.7006
   -16.2808 -16.2808 -16.1390 -16.1390 -15.8107 -15.8106 -15.6599 -15.6599
   -11.6546 -11.6545 -11.6200 -11.6200  -9.4354  -9.4354  -9.3339  -9.3339
    -8.5560  -8.5560  -8.4017  -8.4017  -8.1137  -8.1137  -7.9825  -7.9825
    -5.7769  -5.7769  -5.5671  -5.5671  -5.3591  -5.3590  -5.2282  -5.2282
    -5.0443  -5.0443  -4.7210  -4.7210  -4.1657  -4.1657  -3.7990  -3.7990
    -3.5594  -3.5594  -3.5228  -3.5228  -2.6291  -2.6291  -2.5207  -2.5207
    -2.2518  -2.2518  -2.1770  -2.1770  -1.8550  -1.8550  -1.7451  -1.7451
    -1.0865  -1.0865  -0.9776  -0.9776  -0.1553  -0.1553  -0.1089  -0.1089
     0.3187   0.3187   0.3501   0.3501   1.1601   1.1601   1.2313   1.2313
     1.8710   1.8711   1.9650   1.9650   4.7525   4.7525   4.8071   4.8071
     7.1586   7.1587   7.6153   7.6153   7.7485   7.7485   8.3076   8.3076
     8.6598   8.6599   8.8173   8.8173

          k = 0.0000-0.4485 0.5702 ( 51212 PWs)   bands (ev):

   -19.5097 -19.5097 -19.4626 -19.4626 -18.6393 -18.6393 -18.6029 -18.6029
   -16.3965 -16.3965 -16.2886 -16.2886 -15.7547 -15.7547 -15.6375 -15.6375
   -12.1027 -12.1027 -12.0810 -12.0809  -9.3662  -9.3662  -9.2274  -9.2274
    -8.7641  -8.7641  -8.5942  -8.5942  -7.9172  -7.9172  -7.8214  -7.8214
    -5.8133  -5.8133  -5.6428  -5.6428  -5.2863  -5.2863  -4.9399  -4.9399
    -4.7141  -4.7141  -4.6262  -4.6262  -4.0913  -4.0913  -3.8698  -3.8698
    -3.7178  -3.7178  -3.6551  -3.6551  -3.2124  -3.2124  -3.0941  -3.0940
    -2.4967  -2.4967  -2.3517  -2.3516  -2.0389  -2.0389  -2.0177  -2.0177
    -0.8243  -0.8243  -0.7197  -0.7196   0.3960   0.3960   0.4908   0.4908
     0.8681   0.8681   0.9188   0.9188   1.3096   1.3096   1.4846   1.4846
     1.8903   1.8903   2.0029   2.0029   4.8447   4.8447   4.9490   4.9490
     7.2956   7.2956   7.4682   7.4682   7.8590   7.8590   8.2293   8.2293
     8.6708   8.6708   8.8851   8.8851

          k = 0.0000-0.4485 1.1403 ( 51274 PWs)   bands (ev):

   -19.3038 -19.3038 -19.2733 -19.2733 -18.4740 -18.4740 -18.4187 -18.4187
   -16.6343 -16.6343 -16.5470 -16.5470 -15.6735 -15.6735 -15.5991 -15.5991
   -12.7366 -12.7366 -12.7059 -12.7059  -9.3751  -9.3751  -9.1886  -9.1886
    -9.0149  -9.0149  -8.7601  -8.7601  -7.4735  -7.4735  -7.4138  -7.4138
    -5.7973  -5.7972  -5.7086  -5.7086  -5.3889  -5.3889  -5.0258  -5.0258
    -4.8336  -4.8336  -4.6636  -4.6636  -4.1400  -4.1400  -3.9416  -3.9416
    -3.6531  -3.6531  -3.5065  -3.5065  -3.3442  -3.3442  -3.2908  -3.2908
    -2.9543  -2.9543  -2.8190  -2.8190  -2.4342  -2.4342  -2.2239  -2.2239
    -0.8824  -0.8824  -0.8264  -0.8264   1.1659   1.1659   1.3587   1.3587
     1.5208   1.5208   1.6315   1.6315   1.9733   1.9733   2.1867   2.1867
     2.5499   2.5499   2.6374   2.6374   4.4359   4.4359   4.5747   4.5747
     6.9481   6.9481   7.0224   7.0224   8.3618   8.3618   8.5456   8.5456
     8.9790   8.9790   9.1405   9.1405

          k =-0.5000 0.0000 0.0000 ( 51076 PWs)   bands (ev):

   -19.6298 -19.6298 -19.5576 -19.5576 -18.7635 -18.7635 -18.6691 -18.6691
   -16.2914 -16.2914 -16.1294 -16.1294 -15.8052 -15.8052 -15.6649 -15.6649
   -11.6540 -11.6540 -11.6214 -11.6214  -9.4405  -9.4405  -9.3241  -9.3241
    -8.5680  -8.5680  -8.3786  -8.3786  -8.1566  -8.1566  -7.9512  -7.9512
    -5.8250  -5.8250  -5.5709  -5.5709  -5.3305  -5.3305  -5.1391  -5.1391
    -5.0410  -5.0410  -4.8318  -4.8318  -4.1127  -4.1127  -3.7928  -3.7928
    -3.5850  -3.5850  -3.5015  -3.5015  -2.6830  -2.6830  -2.5054  -2.5054
    -2.2186  -2.2186  -2.1764  -2.1764  -1.8720  -1.8720  -1.7370  -1.7370
    -1.0672  -1.0672  -0.9991  -0.9991  -0.1783  -0.1783  -0.0880  -0.0880
     0.3131   0.3131   0.3530   0.3530   1.0931   1.0931   1.3107   1.3107
     1.8543   1.8543   1.9746   1.9746   4.7340   4.7340   4.8276   4.8276
     7.1632   7.1632   7.6673   7.6673   7.7946   7.7946   8.1826   8.1826
     8.4995   8.4995   8.8745   8.8745

          k =-0.5000 0.0000 0.5702 ( 51142 PWs)   bands (ev):

   -19.5165 -19.5165 -19.4543 -19.4543 -18.6629 -18.6629 -18.5804 -18.5804
   -16.3952 -16.3952 -16.2933 -16.2933 -15.7424 -15.7424 -15.6466 -15.6466
   -12.1043 -12.1043 -12.0796 -12.0796  -9.3654  -9.3654  -9.2290  -9.2290
    -8.7559  -8.7559  -8.6048  -8.6048  -7.9317  -7.9317  -7.7955  -7.7955
    -5.9041  -5.9041  -5.5904  -5.5904  -5.1817  -5.1817  -4.9861  -4.9861
    -4.7658  -4.7657  -4.6288  -4.6288  -4.0774  -4.0774  -3.8242  -3.8241
    -3.7163  -3.7163  -3.6882  -3.6882  -3.1750  -3.1750  -3.1036  -3.1036
    -2.5580  -2.5580  -2.3349  -2.3349  -2.0637  -2.0637  -1.9785  -1.9785
    -0.7915  -0.7915  -0.7496  -0.7496   0.3680   0.3680   0.5029   0.5029
     0.8120   0.8121   0.9852   0.9852   1.3650   1.3650   1.4370   1.4370
     1.8823   1.8823   2.0087   2.0087   4.8557   4.8557   4.9322   4.9322
     7.2847   7.2847   7.4845   7.4845   7.8638   7.8638   8.3006   8.3006
     8.5129   8.5129   8.9549   8.9549

          k =-0.5000 0.0000 1.1403 ( 51284 PWs)   bands (ev):

   -19.3021 -19.3021 -19.2753 -19.2753 -18.4650 -18.4650 -18.4278 -18.4278
   -16.6051 -16.6051 -16.5785 -16.5785 -15.6504 -15.6504 -15.6195 -15.6195
   -12.7268 -12.7268 -12.7159 -12.7159  -9.3166  -9.3166  -9.2956  -9.2956
    -8.8853  -8.8853  -8.8452  -8.8452  -7.4608  -7.4608  -7.4160  -7.4160
    -5.8455  -5.8455  -5.7067  -5.7067  -5.2667  -5.2667  -5.1455  -5.1455
    -4.7749  -4.7749  -4.6998  -4.6998  -4.0963  -4.0963  -3.9772  -3.9772
    -3.6548  -3.6548  -3.4661  -3.4661  -3.3753  -3.3753  -3.2728  -3.2728
    -2.9519  -2.9519  -2.8502  -2.8502  -2.3820  -2.3819  -2.2688  -2.2688
    -0.8715  -0.8715  -0.8401  -0.8401   1.1836   1.1836   1.3553   1.3553
     1.4973   1.4974   1.6580   1.6580   1.9762   1.9762   2.1801   2.1801
     2.5519   2.5519   2.6302   2.6302   4.4498   4.4498   4.5519   4.5519
     6.9266   6.9266   7.0469   7.0469   8.3432   8.3432   8.6409   8.6409
     8.9521   8.9521   9.1707   9.1707

          k =-0.5000-0.4485 0.0000 ( 51088 PWs)   bands (ev):

   -19.6208 -19.6208 -19.5687 -19.5687 -18.7290 -18.7290 -18.7021 -18.7021
   -16.2763 -16.2763 -16.1469 -16.1469 -15.8031 -15.8031 -15.6640 -15.6640
   -11.6500 -11.6500 -11.6247 -11.6247  -9.4315  -9.4315  -9.3382  -9.3382
    -8.5463  -8.5463  -8.4159  -8.4159  -8.1008  -8.1008  -7.9910  -7.9910
    -5.6964  -5.6964  -5.6901  -5.6901  -5.3274  -5.3274  -5.2080  -5.2080
    -5.0051  -5.0051  -4.7875  -4.7875  -4.1445  -4.1445  -3.8050  -3.8050
    -3.5636  -3.5636  -3.5148  -3.5148  -2.6234  -2.6234  -2.5339  -2.5339
    -2.2187  -2.2187  -2.1988  -2.1988  -1.8438  -1.8438  -1.7578  -1.7578
    -1.0842  -1.0842  -0.9860  -0.9860  -0.1409  -0.1409  -0.1189  -0.1189
     0.3185   0.3185   0.3502   0.3502   1.1646   1.1646   1.2247   1.2247
     1.8729   1.8729   1.9631   1.9631   4.7574   4.7574   4.8038   4.8038
     7.1751   7.1751   7.5855   7.5855   7.8372   7.8372   8.2736   8.2736
     8.4547   8.4547   8.9562   8.9562

          k =-0.5000-0.4485 0.5702 ( 51216 PWs)   bands (ev):

   -19.5130 -19.5038 -19.4706 -19.4573 -18.6439 -18.6229 -18.6218 -18.5956
   -16.4106 -16.3579 -16.3338 -16.2698 -15.7723 -15.7183 -15.6679 -15.6239
   -12.1108 -12.0909 -12.0834 -12.0821  -9.3809  -9.3101  -9.3051  -9.1939
    -8.8071  -8.6736  -8.6593  -8.5749  -7.9324  -7.8961  -7.8690  -7.7758
    -5.8238  -5.7759  -5.7538  -5.5830  -5.3226  -5.0959  -5.0520  -4.9585
    -4.7817  -4.7051  -4.6229  -4.6001  -4.0723  -4.0480  -3.9496  -3.8147
    -3.7336  -3.6814  -3.6739  -3.6662  -3.1952  -3.1789  -3.1479  -3.0872
    -2.5684  -2.4085  -2.3652  -2.3602  -2.0575  -2.0274  -2.0218  -2.0074
    -0.7968  -0.7796  -0.7631  -0.7427   0.3850   0.4125   0.4705   0.5116
     0.8665   0.8826   0.8950   0.9127   1.2579   1.3985   1.4636   1.4733
     1.8780   1.8922   2.0057   2.0109   4.8397   4.8642   4.9241   4.9616
     7.2638   7.2838   7.3777   7.6362   7.7301   8.0011   8.3160   8.3354
     8.4107   8.6425   8.8602   8.9554

          k =-0.5000-0.4485 1.1403 ( 51232 PWs)   bands (ev):

   -19.3086 -19.2916 -19.2872 -19.2670 -18.4771 -18.4682 -18.4268 -18.4133
   -16.6400 -16.6225 -16.5607 -16.5400 -15.6838 -15.6506 -15.6207 -15.5895
   -12.7406 -12.7312 -12.7073 -12.7056  -9.3719  -9.3665  -9.2093  -9.2040
    -9.0001  -8.9957  -8.7700  -8.7592  -7.4730  -7.4589  -7.4531  -7.3892
    -5.8064  -5.7708  -5.7569  -5.7179  -5.4096  -5.2721  -5.0719  -5.0300
    -4.8018  -4.7965  -4.7168  -4.7163  -4.1257  -4.1188  -3.9577  -3.9262
    -3.6932  -3.5739  -3.5489  -3.5242  -3.3245  -3.3206  -3.3074  -3.3029
    -2.9903  -2.8950  -2.8330  -2.8140  -2.4907  -2.3809  -2.2293  -2.2289
    -0.8814  -0.8719  -0.8399  -0.8230   1.1706   1.2200   1.2872   1.3412
     1.5296   1.5532   1.5930   1.6639   1.9630   2.0020   2.1479   2.2089
     2.5244   2.5733   2.6275   2.6412   4.4578   4.4731   4.5244   4.5616
     6.9323   6.9672   7.0014   7.0415   8.3410   8.4493   8.5422   8.6484
     8.8621   9.0555   9.1520   9.2434

     highest occupied, lowest unoccupied level (ev):     2.6412    4.3949

!    total energy              =    -872.81916545 Ry
     Harris-Foulkes estimate   =    -872.81916546 Ry
     estimated scf accuracy    <          9.7E-09 Ry

     total all-electron energy =     -3318.210267 Ry

     The total energy is the sum of the following terms:

     one-electron contribution =    -527.41812778 Ry
     hartree contribution      =     335.61653360 Ry
     xc contribution           =    -181.30429175 Ry
     ewald contribution        =    -250.67842456 Ry
     Dispersion Correction     =      -0.24669615 Ry
     one-center paw contrib.   =    -248.78815881 Ry

     convergence has been achieved in  15 iterations

     Forces acting on atoms (cartesian axes, Ry/au):

     atom    1 type  1   force =     0.02889475    0.01239689   -0.03032290
     atom    2 type  1   force =    -0.02889546   -0.01239595   -0.03031726
     atom    3 type  1   force =     0.02889475   -0.01239689   -0.03032290
     atom    4 type  1   force =    -0.02889546    0.01239595   -0.03031726
     atom    5 type  1   force =     0.01853869   -0.00657117    0.01722700
     atom    6 type  1   force =    -0.01853926    0.00657090    0.01724709
     atom    7 type  1   force =     0.01853869    0.00657117    0.01722700
     atom    8 type  1   force =    -0.01853926   -0.00657090    0.01724709
     atom    9 type  2   force =    -0.00006982   -0.03334054    0.00070767
     atom   10 type  2   force =     0.00006993    0.03334278    0.00070766
     atom   11 type  2   force =    -0.00006982    0.03334054    0.00070767
     atom   12 type  2   force =     0.00006993   -0.03334278    0.00070766
     atom   13 type  3   force =     0.00808863   -0.01480894    0.00082394
     atom   14 type  3   force =    -0.00808823    0.01480870    0.00082396
     atom   15 type  3   force =     0.00808863    0.01480894    0.00082394
     atom   16 type  3   force =    -0.00808823   -0.01480870    0.00082396
     atom   17 type  1   force =    -0.05515778    0.00770651   -0.02432955
     atom   18 type  1   force =     0.05515810   -0.00770551   -0.02434209
     atom   19 type  1   force =    -0.05515778   -0.00770651   -0.02432955
     atom   20 type  1   force =     0.05515810    0.00770551   -0.02434209
     atom   21 type  3   force =     0.00108130   -0.00468068    0.00251956
     atom   22 type  3   force =    -0.00108097    0.00468071    0.00251909
     atom   23 type  3   force =     0.00108130    0.00468068    0.00251956
     atom   24 type  3   force =    -0.00108097   -0.00468071    0.00251909
     atom   25 type  4   force =     0.04759161   -0.01764872    0.01860745
     atom   26 type  4   force =    -0.04759248    0.01764976    0.01860524
     atom   27 type  4   force =     0.04759161    0.01764872    0.01860745
     atom   28 type  4   force =    -0.04759248   -0.01764976    0.01860524
     atom   29 type  4   force =    -0.04301544    0.04210710   -0.03863319
     atom   30 type  4   force =     0.04301442   -0.04210513   -0.03863724
     atom   31 type  4   force =    -0.04301544   -0.04210710   -0.03863319
     atom   32 type  4   force =     0.04301442    0.04210513   -0.03863724
     atom   33 type  2   force =    -0.04394296   -0.01125038    0.03486524
     atom   34 type  2   force =     0.04394386    0.01125025    0.03486590
     atom   35 type  2   force =    -0.04394296    0.01125038    0.03486524
     atom   36 type  2   force =     0.04394386   -0.01125025    0.03486590
     atom   37 type  3   force =    -0.01104049    0.00272341    0.00577732
     atom   38 type  3   force =     0.01104066   -0.00272343    0.00577714
     atom   39 type  3   force =    -0.01104049   -0.00272341    0.00577732
     atom   40 type  3   force =     0.01104066    0.00272343    0.00577714
     atom   41 type  1   force =     0.06301158    0.02989561    0.01012358
     atom   42 type  1   force =    -0.06301129   -0.02989437    0.01013555
     atom   43 type  1   force =     0.06301158   -0.02989561    0.01012358
     atom   44 type  1   force =    -0.06301129    0.02989437    0.01013555
     atom   45 type  3   force =     0.00261298   -0.00341651    0.00262432
     atom   46 type  3   force =    -0.00261229    0.00341626    0.00262451
     atom   47 type  3   force =     0.00261298    0.00341651    0.00262432
     atom   48 type  3   force =    -0.00261229   -0.00341626    0.00262451

     Total force =     0.310995     Total SCF correction =     0.000263


     Computing stress (Cartesian axis) and pressure

          total   stress  (Ry/bohr**3)                   (kbar)     P=   62.85
   0.00024914   0.00000000  -0.00000000         36.65      0.00     -0.00
   0.00000000   0.00021294   0.00000000          0.00     31.32      0.00
  -0.00000000   0.00000000   0.00081957         -0.00      0.00    120.56


     Writing output data file scf.save
 
     init_run     :     11.81s CPU     12.26s WALL (       1 calls)
     electrons    :    335.98s CPU    351.09s WALL (       1 calls)
     forces       :      4.45s CPU      4.50s WALL (       1 calls)
     stress       :     21.38s CPU     21.41s WALL (       1 calls)

     Called by init_run:
     wfcinit      :      8.39s CPU      8.78s WALL (       1 calls)
     potinit      :      0.93s CPU      0.96s WALL (       1 calls)

     Called by electrons:
     c_bands      :    294.29s CPU    307.55s WALL (      15 calls)
     sum_band     :     36.69s CPU     38.05s WALL (      15 calls)
     v_of_rho     :      0.77s CPU      0.85s WALL (      16 calls)
     newd         :      1.33s CPU      1.35s WALL (      16 calls)
     PAW_pot      :      2.61s CPU      2.61s WALL (      16 calls)
     mix_rho      :      0.20s CPU      0.21s WALL (      15 calls)

     Called by c_bands:
     init_us_2    :      3.20s CPU      3.22s WALL (     396 calls)
     cegterg      :    283.78s CPU    297.00s WALL (     180 calls)

     Called by sum_band:
     sum_band:bec :      0.03s CPU      0.03s WALL (     180 calls)
     addusdens    :      1.47s CPU      1.49s WALL (      15 calls)

     Called by *egterg:
     h_psi        :    192.10s CPU    202.22s WALL (     711 calls)
     s_psi        :     21.68s CPU     21.68s WALL (     711 calls)
     g_psi        :      1.46s CPU      1.46s WALL (     519 calls)
     cdiaghg      :     16.02s CPU     16.01s WALL (     699 calls)

     Called by h_psi:
     h_psi:pot    :    190.21s CPU    200.29s WALL (     711 calls)
     h_psi:calbec :     20.34s CPU     20.46s WALL (     711 calls)
     vloc_psi     :    148.22s CPU    158.18s WALL (     711 calls)
     add_vuspsi   :     21.64s CPU     21.65s WALL (     711 calls)

     General routines
     calbec       :     29.93s CPU     30.09s WALL (     951 calls)
     fft          :      0.60s CPU      0.75s WALL (     232 calls)
     fftw         :    158.96s CPU    169.78s WALL (  124332 calls)
 
     Parallel routines
     fft_scatter  :     36.83s CPU     42.64s WALL (  124564 calls)
 
     PWSCF        :  6m17.76s CPU     6m34.52s WALL

 
   This run was terminated on:   1:29:31   4Nov2017            

=------------------------------------------------------------------------------=
   JOB DONE.
=------------------------------------------------------------------------------=
