
     Program PWSCF v.6.1 (svn rev. 13369) starts on 15Jan2018 at 19:38:34 

     This program is part of the open-source Quantum ESPRESSO suite
     for quantum simulation of materials; please cite
         "P. Giannozzi et al., J. Phys.:Condens. Matter 21 395502 (2009);
          URL http://www.quantum-espresso.org", 
     in publications or presentations arising from this work. More details at
     http://www.quantum-espresso.org/quote

     Parallel version (MPI), running on     8 processors
     R & G space division:  proc/nbgrp/npool/nimage =       8
     Waiting for input...
     Reading input from standard input

     Current dimensions of program PWSCF are:
     Max number of different atomic species (ntypx) = 10
     Max number of k-points (npk) =  40000
     Max angular momentum in pseudopotentials (lmaxx) =  3
               file C.pbe-n-kjpaw_psl.0.1.UPF: wavefunction(s)  2P renormalized
               file N.pbe-n-kjpaw_psl.0.1.UPF: wavefunction(s)  2P renormalized
               file H.pbe-kjpaw_psl.0.1.UPF: wavefunction(s)  1S renormalized
               file O.pbe-n-kjpaw_psl.0.1.UPF: wavefunction(s)  2P renormalized

     -------------------------------------
     Parameters for Dispersion Correction:
     -------------------------------------
       atom      VdW radius       C_6     

        C          2.744         60.710
        N          2.640         42.670
        H          1.892          4.857
        O          2.536         24.284

     Subspace diagonalization in iterative solution of the eigenvalue problem:
     a serial algorithm will be used

 
     Parallelization info
     --------------------
     sticks:   dense  smooth     PW     G-vecs:    dense   smooth      PW
     Min         842     842    226               123964   123964   17283
     Max         843     843    227               123967   123967   17287
     Sum        6737    6737   1809               991719   991719  138279
 


     bravais-lattice index     =            0
     lattice parameter (alat)  =      23.3770  a.u.
     unit-cell volume          =    7341.0082 (a.u.)^3
     number of atoms/cell      =          136
     number of atomic types    =            4
     number of electrons       =       416.00
     number of Kohn-Sham states=          249
     kinetic-energy cutoff     =     100.0000  Ry
     charge density cutoff     =     400.0000  Ry
     convergence threshold     =      1.0E-08
     mixing beta               =       0.5000
     number of iterations used =            8  plain     mixing
     Exchange-correlation      =  SLA  PW   PBX  PBC ( 1  4  3  4 0 0)

     celldm(1)=  23.377046  celldm(2)=   0.000000  celldm(3)=   0.000000
     celldm(4)=   0.000000  celldm(5)=   0.000000  celldm(6)=   0.000000

     crystal axes: (cart. coord. in units of alat)
               a(1) = (   1.000000   0.000000   0.000000 )  
               a(2) = (   0.000000   0.387354   0.000000 )  
               a(3) = (  -0.105764   0.000000   1.483470 )  

     reciprocal axes: (cart. coord. in units 2 pi/alat)
               b(1) = (  1.000000  0.000000  0.071295 )  
               b(2) = (  0.000000  2.581619  0.000000 )  
               b(3) = (  0.000000  0.000000  0.674095 )  


     PseudoPot. # 1 for  C read from file:
     /scratch/ahofstet/pseudo/C.pbe-n-kjpaw_psl.0.1.UPF
     MD5 check sum: 430fe95172b1e11ef3f8ed03bac87931
     Pseudo is Projector augmented-wave + core cor, Zval =  4.0
     Generated using "atomic" code by A. Dal Corso  v.5.0.99 svn rev. 10869
     Shape of augmentation charge: BESSEL
     Using radial grid of 1073 points,  4 beta functions with: 
                l(1) =   0
                l(2) =   0
                l(3) =   1
                l(4) =   1
     Q(r) pseudized with 0 coefficients 


     PseudoPot. # 2 for  N read from file:
     /scratch/ahofstet/pseudo/N.pbe-n-kjpaw_psl.0.1.UPF
     MD5 check sum: f73187c8b701007e77325f868c9291d7
     Pseudo is Projector augmented-wave + core cor, Zval =  5.0
     Generated using "atomic" code by A. Dal Corso  v.5.0.99 svn rev. 10869
     Shape of augmentation charge: PSQ
     Using radial grid of 1085 points,  4 beta functions with: 
                l(1) =   0
                l(2) =   0
                l(3) =   1
                l(4) =   1
     Q(r) pseudized with 0 coefficients 


     PseudoPot. # 3 for  H read from file:
     /scratch/ahofstet/pseudo/H.pbe-kjpaw_psl.0.1.UPF
     MD5 check sum: 94e484f906d9e9773b2f6e52662335b2
     Pseudo is Projector augmented-wave, Zval =  1.0
     Generated using "atomic" code by A. Dal Corso  v.5.0.99 svn rev. 10869
     Shape of augmentation charge: PSQ
     Using radial grid of  929 points,  2 beta functions with: 
                l(1) =   0
                l(2) =   0
     Q(r) pseudized with 0 coefficients 


     PseudoPot. # 4 for  O read from file:
     /scratch/ahofstet/pseudo/O.pbe-n-kjpaw_psl.0.1.UPF
     MD5 check sum: 3f94a2996a3169367d6eb21d9b593f20
     Pseudo is Projector augmented-wave + core cor, Zval =  6.0
     Generated using "atomic" code by A. Dal Corso  v.5.0.99 svn rev. 10869
     Shape of augmentation charge: BESSEL
     Using radial grid of 1095 points,  4 beta functions with: 
                l(1) =   0
                l(2) =   0
                l(3) =   1
                l(4) =   1
     Q(r) pseudized with 0 coefficients 


     atomic species   valence    mass     pseudopotential
        C              4.00    12.01070      C( 1.00)
        N              5.00    14.00670      N( 1.00)
        H              1.00     1.00794      H( 1.00)
        O              6.00    15.99940      O( 1.00)

      4 Sym. Ops., with inversion, found ( 2 have fractional translation)



   Cartesian axes

     site n.     atom                  positions (alat units)
         1           N   tau(   1) = (   0.5079483   0.2794726   0.8218719  )
         2           N   tau(   2) = (   0.0608311   0.0857795   0.0801326  )
         3           N   tau(   3) = (   0.8862863   0.2794728   0.6615988  )
         4           N   tau(   4) = (   0.3334056   0.0857796   1.4033378  )
         5           N   tau(   5) = (   0.3862877   0.1078813   0.6615986  )
         6           N   tau(   6) = (   0.8334049   0.3015744   1.4033379  )
         7           N   tau(   7) = (   0.0079498   0.1078810   0.8218716  )
         8           N   tau(   8) = (   0.5608305   0.3015743   0.0801326  )
         9           O   tau(   9) = (   0.3320243   0.3184721   0.7929496  )
        10           O   tau(  10) = (   0.8849074   0.1247599   0.0512052  )
        11           O   tau(  11) = (   0.0622132   0.3184737   0.6905220  )
        12           O   tau(  12) = (   0.5093293   0.1247603   1.4322658  )
        13           O   tau(  13) = (   0.5622117   0.0688817   0.6905208  )
        14           O   tau(  14) = (   0.0093287   0.2625940   1.4322653  )
        15           O   tau(  15) = (   0.8320228   0.0688802   0.7929484  )
        16           O   tau(  16) = (   0.3849068   0.2625936   0.0512046  )
        17           O   tau(  17) = (   0.1865977   0.2320268   0.8949348  )
        18           O   tau(  18) = (   0.7394881   0.0383277   0.1531939  )
        19           O   tau(  19) = (   0.2076378   0.2320268   0.5885357  )
        20           O   tau(  20) = (   0.6547470   0.0383277   1.3302767  )
        21           O   tau(  21) = (   0.7076384   0.1553271   0.5885356  )
        22           O   tau(  22) = (   0.1547479   0.3490262   1.3302765  )
        23           O   tau(  23) = (   0.6865982   0.1553271   0.8949348  )
        24           O   tau(  24) = (   0.2394890   0.3490262   0.1531937  )
        25           C   tau(  25) = (   0.2569942   0.1592642   0.9341004  )
        26           C   tau(  26) = (   0.8098767   0.3529065   0.1923474  )
        27           C   tau(  27) = (   0.1372428   0.1592657   0.5493707  )
        28           C   tau(  28) = (   0.5843609   0.3529072   1.2911233  )
        29           C   tau(  29) = (   0.6372418   0.2280896   0.5493700  )
        30           C   tau(  30) = (   0.0843594   0.0344474   1.2911231  )
        31           C   tau(  31) = (   0.7569933   0.2280882   0.9340997  )
        32           C   tau(  32) = (   0.3098751   0.0344467   0.1923472  )
        33           C   tau(  33) = (   0.3703895   0.1726801   0.9133641  )
        34           C   tau(  34) = (   0.9232706   0.3663064   0.1716129  )
        35           C   tau(  35) = (   0.0238456   0.1726799   0.5701062  )
        36           C   tau(  36) = (   0.4709664   0.3663073   1.3118581  )
        37           C   tau(  37) = (   0.5238465   0.2146738   0.5701063  )
        38           C   tau(  38) = (  -0.0290345   0.0210475   1.3118575  )
        39           C   tau(  39) = (   0.8703904   0.2146740   0.9133642  )
        40           C   tau(  40) = (   0.4232697   0.0210466   0.1716123  )
        41           C   tau(  41) = (   0.4412512   0.0949817   0.9556439  )
        42           C   tau(  42) = (  -0.0058558   0.2886196   0.2138967  )
        43           C   tau(  43) = (   0.9529851   0.0949831   0.5278271  )
        44           C   tau(  44) = (   0.4000885   0.2886203   1.2695742  )
        45           C   tau(  45) = (   0.4529848   0.2923722   0.5278265  )
        46           C   tau(  46) = (   0.9000918   0.0987343   1.2695737  )
        47           C   tau(  47) = (  -0.0587491   0.2923708   0.9556433  )
        48           C   tau(  48) = (   0.4941475   0.0987336   0.2138962  )
        49           C   tau(  49) = (   0.4037074   0.0101923   1.0190260  )
        50           C   tau(  50) = (   0.9565813   0.2038205   0.2773129  )
        51           C   tau(  51) = (  -0.0094721   0.0101912   0.4644436  )
        52           C   tau(  52) = (   0.4376555   0.2038190   1.2061564  )
        53           C   tau(  53) = (   0.4905286   0.3771616   0.4644445  )
        54           C   tau(  54) = (  -0.0623453   0.1835334   1.2061576  )
        55           C   tau(  55) = (   0.9037081   0.3771627   1.0190268  )
        56           C   tau(  56) = (   0.4565806   0.1835349   0.2773140  )
        57           C   tau(  57) = (   0.2930846  -0.0021747   1.0373609  )
        58           C   tau(  58) = (   0.8459474   0.1914890   0.2956321  )
        59           C   tau(  59) = (   0.1011532  -0.0021738   0.4461098  )
        60           C   tau(  60) = (   0.5482904   0.1914904   1.1878389  )
        61           C   tau(  61) = (   0.6011515   0.3895286   0.4461095  )
        62           C   tau(  62) = (   0.0482887   0.1958649   1.1878383  )
        63           C   tau(  63) = (   0.7930828   0.3895277   1.0373607  )
        64           C   tau(  64) = (   0.3459457   0.1958634   0.2956316  )
        65           C   tau(  65) = (   0.2194868   0.0713891   0.9942859  )
        66           C   tau(  66) = (   0.7723625   0.2650210   0.2525288  )
        67           C   tau(  67) = (   0.1747486   0.0713878   0.4891836  )
        68           C   tau(  68) = (   0.6218714   0.2650202   1.2309412  )
        69           C   tau(  69) = (   0.6747492   0.3159648   0.4891845  )
        70           C   tau(  70) = (   0.1218736   0.1223328   1.2309416  )
        71           C   tau(  71) = (   0.7194874   0.3159661   0.9942868  )
        72           C   tau(  72) = (   0.2723647   0.1223337   0.2525292  )
        73           C   tau(  73) = (   0.4037952   0.2607800   0.8406491  )
        74           C   tau(  74) = (   0.9566834   0.0670535   0.0989076  )
        75           C   tau(  75) = (  -0.0095601   0.2607780   0.6428195  )
        76           C   tau(  76) = (   0.4375508   0.0670526   1.3845620  )
        77           C   tau(  77) = (   0.4904408   0.1265738   0.6428213  )
        78           C   tau(  78) = (  -0.0624474   0.3203003   1.3845628  )
        79           C   tau(  79) = (   0.9037961   0.1265759   0.8406510  )
        80           C   tau(  80) = (   0.4566852   0.3203012   0.0989085  )
        81           H   tau(  81) = (   0.5273306   0.1004981   0.9395528  )
        82           H   tau(  82) = (   0.0802083   0.2941301   0.1978279  )
        83           H   tau(  83) = (   0.8669057   0.1004980   0.5439175  )
        84           H   tau(  84) = (   0.3140296   0.2941299   1.2856422  )
        85           H   tau(  85) = (   0.3669055   0.2868558   0.5439177  )
        86           H   tau(  86) = (   0.8140277   0.0932238   1.2856425  )
        87           H   tau(  87) = (   0.0273303   0.2868559   0.9395530  )
        88           H   tau(  88) = (   0.5802065   0.0932240   0.1978283  )
        89           H   tau(  89) = (   0.4593148   0.3377644   1.0514216  )
        90           H   tau(  90) = (   0.0121814   0.1440824   0.3097431  )
        91           H   tau(  91) = (   0.9349218   0.3377648   0.4320487  )
        92           H   tau(  92) = (   0.3820551   0.1440827   1.1737274  )
        93           H   tau(  93) = (   0.4349212   0.0495895   0.4320488  )
        94           H   tau(  94) = (   0.8820547   0.2432715   1.1737273  )
        95           H   tau(  95) = (  -0.0406858   0.0495890   1.0514217  )
        96           H   tau(  96) = (   0.5121809   0.2432712   0.3097431  )
        97           H   tau(  97) = (   0.2637283   0.3172234   1.0850445  )
        98           H   tau(  98) = (   0.8165911   0.1235482   0.3433432  )
        99           H   tau(  99) = (   0.1305079   0.3172236   0.3984258  )
       100           H   tau( 100) = (   0.5776453   0.1235483   1.1401270  )
       101           H   tau( 101) = (   0.6305077   0.0701305   0.3984260  )
       102           H   tau( 102) = (   0.0776449   0.2638057   1.1401272  )
       103           H   tau( 103) = (   0.7637281   0.0701303   1.0850446  )
       104           H   tau( 104) = (   0.3165908   0.2638056   0.3433434  )
       105           H   tau( 105) = (   0.1334019   0.0644937   1.0106213  )
       106           H   tau( 106) = (   0.6862692   0.2581441   0.2688641  )
       107           H   tau( 107) = (   0.2608345   0.0644940   0.4728491  )
       108           H   tau( 108) = (   0.7079680   0.2581444   1.2146063  )
       109           H   tau( 109) = (   0.7608341   0.3228602   0.4728491  )
       110           H   tau( 110) = (   0.2079669   0.1292098   1.2146063  )
       111           H   tau( 111) = (   0.6334016   0.3228599   1.0106213  )
       112           H   tau( 112) = (   0.1862680   0.1292095   0.2688641  )
       113           H   tau( 113) = (   0.5284367   0.3421540   0.7703229  )
       114           H   tau( 114) = (   0.0813004   0.1484762   0.0286047  )
       115           H   tau( 115) = (   0.8657997   0.3421538   0.7131473  )
       116           H   tau( 116) = (   0.3129358   0.1484763   1.4548656  )
       117           H   tau( 117) = (   0.3657994   0.0451999   0.7131475  )
       118           H   tau( 118) = (   0.8129356   0.2388777   1.4548657  )
       119           H   tau( 119) = (   0.0284364   0.0452001   0.7703232  )
       120           H   tau( 120) = (   0.5813002   0.2388776   0.0286049  )
       121           H   tau( 121) = (   0.5668522   0.2285428   0.8494242  )
       122           H   tau( 122) = (   0.1197494   0.0348504   0.1076659  )
       123           H   tau( 123) = (   0.8273842   0.2285430   0.6340463  )
       124           H   tau( 124) = (   0.2744863   0.0348503   1.3758043  )
       125           H   tau( 125) = (   0.3273839   0.1588111   0.6340462  )
       126           H   tau( 126) = (   0.7744866   0.3525035   1.3758045  )
       127           H   tau( 127) = (   0.0668518   0.1588109   0.8494242  )
       128           H   tau( 128) = (   0.6197498   0.3525036   0.1076661  )
       129           H   tau( 129) = (   0.2332130   0.2824671   0.8450101  )
       130           H   tau( 130) = (   0.7861059   0.0887666   0.1032681  )
       131           H   tau( 131) = (   0.1610234   0.2824668   0.6384602  )
       132           H   tau( 132) = (   0.6081304   0.0887664   1.3802023  )
       133           H   tau( 133) = (   0.6610231   0.1048868   0.6384604  )
       134           H   tau( 134) = (   0.1081301   0.2985873   1.3802023  )
       135           H   tau( 135) = (   0.7332126   0.1048871   0.8450103  )
       136           H   tau( 136) = (   0.2861056   0.2985875   0.1032681  )

     number of k points=     6
                       cart. coord. in units 2pi/alat
        k(    1) = (   0.0000000   0.0000000   0.0000000), wk =   0.2500000
        k(    2) = (   0.0000000   0.6454046   0.0000000), wk =   0.5000000
        k(    3) = (   0.0000000  -1.2908093   0.0000000), wk =   0.2500000
        k(    4) = (  -0.5000000   0.0000000  -0.0356475), wk =   0.2500000
        k(    5) = (  -0.5000000   0.6454046  -0.0356475), wk =   0.5000000
        k(    6) = (  -0.5000000  -1.2908093  -0.0356475), wk =   0.2500000

     Dense  grid:   991719 G-vectors     FFT dimensions: ( 150,  60, 225)

     Estimated max dynamical RAM per process >    1167.26MB

     Estimated total allocated dynamical RAM >    9338.11MB

     Check: negative/imaginary core charge=   -0.000002    0.000000

     Initial potential from superposition of free atoms

     starting charge  415.99705, renormalised to  416.00000
     Starting wfc are  376 randomized atomic wfcs
     Checking if some PAW data can be deallocated... 

     total cpu time spent up to now is       70.2 secs

     per-process dynamical memory:   725.7 Mb

     Self-consistent Calculation

     iteration #  1     ecut=   100.00 Ry     beta=0.50
     Davidson diagonalization with overlap
     ethr =  1.00E-02,  avg # of iterations =  4.0

     total cpu time spent up to now is      277.4 secs

     total energy              =   -1989.51691131 Ry
     Harris-Foulkes estimate   =   -1996.92133432 Ry
     estimated scf accuracy    <      13.99744135 Ry

     iteration #  2     ecut=   100.00 Ry     beta=0.50
     Davidson diagonalization with overlap
     ethr =  3.36E-03,  avg # of iterations =  2.3

     total cpu time spent up to now is      383.0 secs

     total energy              =   -1990.46506980 Ry
     Harris-Foulkes estimate   =   -1991.23044929 Ry
     estimated scf accuracy    <       1.62993035 Ry

     iteration #  3     ecut=   100.00 Ry     beta=0.50
     Davidson diagonalization with overlap
     ethr =  3.92E-04,  avg # of iterations =  5.3

     total cpu time spent up to now is      619.7 secs

     total energy              =   -1991.81446487 Ry
     Harris-Foulkes estimate   =   -1992.34287284 Ry
     estimated scf accuracy    <       1.30011397 Ry

     iteration #  4     ecut=   100.00 Ry     beta=0.50
     Davidson diagonalization with overlap
     ethr =  3.13E-04,  avg # of iterations =  4.5

     total cpu time spent up to now is      724.5 secs

     total energy              =   -1991.62300547 Ry
     Harris-Foulkes estimate   =   -1991.87858442 Ry
     estimated scf accuracy    <       0.38141490 Ry

     iteration #  5     ecut=   100.00 Ry     beta=0.50
     Davidson diagonalization with overlap
     ethr =  9.17E-05,  avg # of iterations =  5.0

     total cpu time spent up to now is      953.3 secs

     total energy              =   -1991.88918791 Ry
     Harris-Foulkes estimate   =   -1992.16028951 Ry
     estimated scf accuracy    <       0.68257606 Ry

     iteration #  6     ecut=   100.00 Ry     beta=0.50
     Davidson diagonalization with overlap
     ethr =  9.17E-05,  avg # of iterations =  3.7

     total cpu time spent up to now is     1053.9 secs

     total energy              =   -1991.79089125 Ry
     Harris-Foulkes estimate   =   -1991.91574007 Ry
     estimated scf accuracy    <       0.21965015 Ry

     iteration #  7     ecut=   100.00 Ry     beta=0.50
     Davidson diagonalization with overlap
     ethr =  5.28E-05,  avg # of iterations =  8.7

     total cpu time spent up to now is     1280.7 secs

     total energy              =   -1991.91481524 Ry
     Harris-Foulkes estimate   =   -1991.94536938 Ry
     estimated scf accuracy    <       0.05956751 Ry

     iteration #  8     ecut=   100.00 Ry     beta=0.50
     Davidson diagonalization with overlap
     ethr =  1.43E-05,  avg # of iterations =  2.5

     total cpu time spent up to now is     1378.6 secs

     total energy              =   -1991.91555891 Ry
     Harris-Foulkes estimate   =   -1991.91956668 Ry
     estimated scf accuracy    <       0.00843193 Ry

     iteration #  9     ecut=   100.00 Ry     beta=0.50
     Davidson diagonalization with overlap
     ethr =  2.03E-06,  avg # of iterations =  5.0

     total cpu time spent up to now is     1610.2 secs

     total energy              =   -1991.92677974 Ry
     Harris-Foulkes estimate   =   -1991.92888980 Ry
     estimated scf accuracy    <       0.00682912 Ry

     iteration # 10     ecut=   100.00 Ry     beta=0.50
     Davidson diagonalization with overlap
     ethr =  1.64E-06,  avg # of iterations =  1.8

     total cpu time spent up to now is     1707.4 secs

     total energy              =   -1991.92555721 Ry
     Harris-Foulkes estimate   =   -1991.92694171 Ry
     estimated scf accuracy    <       0.00297167 Ry

     iteration # 11     ecut=   100.00 Ry     beta=0.50
     Davidson diagonalization with overlap
     ethr =  7.14E-07,  avg # of iterations =  6.2

     total cpu time spent up to now is     1873.5 secs

     total energy              =   -1991.92669811 Ry
     Harris-Foulkes estimate   =   -1991.92669888 Ry
     estimated scf accuracy    <       0.00009179 Ry

     iteration # 12     ecut=   100.00 Ry     beta=0.50
     Davidson diagonalization with overlap
     ethr =  2.21E-08,  avg # of iterations =  3.2

     total cpu time spent up to now is     2001.0 secs

     total energy              =   -1991.92667339 Ry
     Harris-Foulkes estimate   =   -1991.92671474 Ry
     estimated scf accuracy    <       0.00009394 Ry

     iteration # 13     ecut=   100.00 Ry     beta=0.50
     Davidson diagonalization with overlap
     ethr =  2.21E-08,  avg # of iterations =  1.2

     total cpu time spent up to now is     2096.7 secs

     total energy              =   -1991.92666945 Ry
     Harris-Foulkes estimate   =   -1991.92667924 Ry
     estimated scf accuracy    <       0.00002247 Ry

     iteration # 14     ecut=   100.00 Ry     beta=0.50
     Davidson diagonalization with overlap
     ethr =  5.40E-09,  avg # of iterations =  4.0

     total cpu time spent up to now is     2285.9 secs

     total energy              =   -1991.92668357 Ry
     Harris-Foulkes estimate   =   -1991.92668612 Ry
     estimated scf accuracy    <       0.00000424 Ry

     iteration # 15     ecut=   100.00 Ry     beta=0.50
     Davidson diagonalization with overlap
     ethr =  1.02E-09,  avg # of iterations =  6.5

     total cpu time spent up to now is     2424.0 secs

     total energy              =   -1991.92668454 Ry
     Harris-Foulkes estimate   =   -1991.92668496 Ry
     estimated scf accuracy    <       0.00000071 Ry

     iteration # 16     ecut=   100.00 Ry     beta=0.50
     Davidson diagonalization with overlap
     ethr =  1.70E-10,  avg # of iterations =  4.7

     total cpu time spent up to now is     2582.1 secs

     total energy              =   -1991.92668486 Ry
     Harris-Foulkes estimate   =   -1991.92668487 Ry
     estimated scf accuracy    <       0.00000003 Ry

     iteration # 17     ecut=   100.00 Ry     beta=0.50
     Davidson diagonalization with overlap
     ethr =  8.03E-12,  avg # of iterations =  4.3

     total cpu time spent up to now is     2795.3 secs

     total energy              =   -1991.92668486 Ry
     Harris-Foulkes estimate   =   -1991.92668491 Ry
     estimated scf accuracy    <       0.00000012 Ry

     iteration # 18     ecut=   100.00 Ry     beta=0.50
     Davidson diagonalization with overlap
     ethr =  8.03E-12,  avg # of iterations =  4.0

     total cpu time spent up to now is     2978.0 secs

     End of self-consistent calculation

          k = 0.0000 0.0000 0.0000 (124005 PWs)   bands (ev):

   -19.0433 -19.0419 -18.9539 -18.9528 -18.9427 -18.9417 -18.9270 -18.9256
   -18.1346 -18.1330 -18.0379 -18.0363 -17.9460 -17.9442 -17.9204 -17.9186
   -14.8362 -14.8332 -14.8194 -14.8161 -14.7391 -14.7353 -14.7016 -14.6980
   -13.4802 -13.4683 -13.4372 -13.4196 -13.3489 -13.3309 -13.3241 -13.3123
   -11.1203 -11.1138 -11.0594 -11.0588 -11.0009 -11.0000 -10.9638 -10.9597
   -10.4976 -10.4820 -10.4802 -10.4743 -10.3199 -10.3188 -10.3168 -10.3011
    -8.4955  -8.4574  -8.3887  -8.3630  -8.3259  -8.2483  -8.1887  -8.1364
    -7.3446  -7.3262  -7.3071  -7.2894  -7.2165  -7.2141  -7.2045  -7.1448
    -7.1191  -7.1136  -7.0906  -7.0528  -7.0157  -6.9841  -6.8634  -6.8629
    -5.8233  -5.8091  -5.7872  -5.7721  -5.7204  -5.6879  -5.6679  -5.6653
    -5.1962  -5.1943  -5.1745  -5.1721  -5.1448  -5.1399  -5.1142  -5.0964
    -4.9344  -4.9149  -4.8996  -4.7937  -4.6847  -4.6221  -4.2938  -4.1925
    -4.0440  -3.9093  -3.8724  -3.8622  -3.8292  -3.7786  -3.7687  -3.7541
    -3.5748  -3.5695  -3.5556  -3.5347  -3.3396  -3.3386  -3.3213  -3.2917
    -3.0743  -3.0710  -3.0504  -3.0430  -3.0009  -2.9902  -2.8770  -2.8407
    -2.8315  -2.8284  -2.8047  -2.7273  -2.6511  -2.6486  -2.6339  -2.6040
    -2.5669  -2.5506  -2.4531  -2.4401  -2.3238  -2.3163  -2.3119  -2.1943
    -1.9779  -1.9145  -1.8879  -1.8837  -1.8824  -1.8607  -1.8514  -1.8252
    -1.6416  -1.6395  -1.6309  -1.5582  -1.5565  -1.5063  -1.3706  -1.3219
    -1.3094  -1.3000  -1.2429  -1.2266  -1.2205  -1.0547  -1.0434  -0.9194
    -0.7535  -0.7143  -0.7118  -0.6754  -0.6358  -0.5835  -0.5620  -0.4718
    -0.4582  -0.4529  -0.3237  -0.2984  -0.1589  -0.1143  -0.0970  -0.0535
     0.8013   0.9252   0.9872   0.9951   1.0148   1.0508   1.0550   1.0835
     1.0980   1.1121   1.1307   1.1435   1.1521   1.1716   1.2422   1.2529
     1.2723   1.3216   1.3839   1.3944   1.4121   1.4623   1.4635   1.5323
     1.9621   2.0607   2.1175   2.1210   2.1386   2.1682   2.1733   2.2682
     5.5114   5.5348   5.5454   5.7343   5.8697   5.8937   5.9178   6.1889
     6.7565   6.7668   6.9260   6.9333   6.9666   6.9804   7.3626   7.3696
     7.9476   8.0474   8.1229   8.1373   8.2976   8.3079   8.3238   8.3373
     8.4423   8.5179   8.8116   8.8384   8.8994   9.1438   9.1473   9.2405
     9.4044   9.5406   9.5873   9.8143  10.1551  10.2334  10.5286  10.5750
    10.6293

          k = 0.0000 0.6454 0.0000 (124017 PWs)   bands (ev):

   -19.0139 -19.0128 -18.9458 -18.9447 -18.9401 -18.9391 -18.9104 -18.9095
   -18.1013 -18.0998 -18.0416 -18.0400 -17.9491 -17.9472 -17.9467 -17.9461
   -14.8673 -14.8652 -14.8487 -14.8471 -14.6830 -14.6803 -14.6767 -14.6745
   -13.4528 -13.4428 -13.4089 -13.3946 -13.3631 -13.3383 -13.3341 -13.3118
   -11.2199 -11.1861 -11.1477 -11.1263 -11.1143 -11.0889 -11.0403 -11.0200
   -10.5751 -10.5592 -10.4884 -10.4811 -10.4782 -10.4557 -10.3946 -10.3817
    -8.4169  -8.3905  -8.3401  -8.3362  -8.2039  -8.1722  -8.1238  -8.1157
    -7.3498  -7.3275  -7.3212  -7.3105  -7.2262  -7.2034  -7.1864  -7.1796
    -7.0023  -7.0010  -6.9814  -6.9731  -6.9592  -6.9572  -6.8618  -6.8525
    -5.8491  -5.8396  -5.8142  -5.8099  -5.7124  -5.6922  -5.6879  -5.6876
    -5.2178  -5.1458  -5.1260  -5.1092  -5.0620  -5.0352  -5.0193  -4.9940
    -4.9599  -4.9375  -4.8783  -4.8097  -4.5897  -4.5346  -4.3435  -4.2992
    -4.0437  -3.9145  -3.8997  -3.8893  -3.8741  -3.8377  -3.7726  -3.7149
    -3.6222  -3.5793  -3.5689  -3.5622  -3.4526  -3.4339  -3.4240  -3.3545
    -3.3464  -3.2754  -3.2613  -3.2070  -3.1337  -3.0792  -2.9790  -2.9432
    -2.9187  -2.8656  -2.8421  -2.7587  -2.7010  -2.6957  -2.6850  -2.6220
    -2.5625  -2.5564  -2.5546  -2.4838  -2.3803  -2.3494  -2.3382  -2.3266
    -2.0057  -1.9560  -1.8799  -1.8748  -1.8262  -1.8114  -1.7535  -1.7469
    -1.6948  -1.6829  -1.5691  -1.5277  -1.3915  -1.3802  -1.3723  -1.3668
    -1.2553  -1.2199  -1.1818  -1.1691  -1.0425  -1.0215  -1.0159  -0.9991
    -0.7224  -0.7153  -0.7083  -0.6922  -0.4636  -0.3601  -0.2774  -0.2538
    -0.2293  -0.2210  -0.1780  -0.1558  -0.0421  -0.0393  -0.0292   0.0366
     0.8373   0.8662   0.8690   0.9188   1.0339   1.0449   1.0532   1.0634
     1.0738   1.1079   1.1635   1.2258   1.2568   1.3299   1.3786   1.4176
     1.4309   1.4383   1.4526   1.4536   1.5802   1.6725   1.7246   1.7250
     2.1838   2.2319   2.3117   2.3165   2.3250   2.3490   2.4249   2.4368
     5.4517   5.4573   5.5743   5.6050   5.6933   5.7015   5.7881   6.0102
     6.7099   6.7325   6.7348   6.7531   6.9348   6.9428   7.0419   7.0547
     7.7623   7.8583   7.9367   7.9933   8.1144   8.1496   8.1604   8.1723
     8.2339   8.3653   8.5622   8.6497   9.0774   9.1737   9.3215   9.5315
     9.7480   9.7515   9.8352   9.8832  10.3311  10.3527  10.4606  10.5064
    10.5679

          k = 0.0000-1.2908 0.0000 (123932 PWs)   bands (ev):

   -18.9729 -18.9721 -18.9483 -18.9473 -18.9369 -18.9359 -18.8944 -18.8935
   -18.0467 -18.0450 -18.0304 -18.0289 -18.0141 -18.0124 -17.9491 -17.9475
   -14.8977 -14.8970 -14.8623 -14.8616 -14.6630 -14.6625 -14.6310 -14.6304
   -13.4015 -13.4008 -13.3851 -13.3850 -13.3570 -13.3569 -13.3418 -13.3410
   -11.2789 -11.2787 -11.2642 -11.2641 -11.1430 -11.1428 -11.1130 -11.1129
   -10.6035 -10.6025 -10.5999 -10.5988 -10.5011 -10.5000 -10.4802 -10.4791
    -8.3577  -8.3570  -8.3305  -8.3298  -8.1005  -8.0998  -8.0680  -8.0674
    -7.3259  -7.3255  -7.2585  -7.2582  -7.2518  -7.2517  -7.1888  -7.1885
    -6.9316  -6.9310  -6.9141  -6.9136  -6.8794  -6.8793  -6.8612  -6.8608
    -5.9151  -5.9146  -5.8184  -5.8181  -5.7270  -5.7263  -5.6386  -5.6381
    -5.1579  -5.1572  -5.0919  -5.0914  -5.0688  -5.0685  -4.9881  -4.9878
    -4.8823  -4.8820  -4.8122  -4.8115  -4.4478  -4.4477  -4.3583  -4.3581
    -4.0026  -4.0025  -3.8503  -3.8502  -3.8016  -3.8014  -3.7675  -3.7668
    -3.7104  -3.7096  -3.6032  -3.6027  -3.5730  -3.5726  -3.5707  -3.5702
    -3.3442  -3.3440  -3.2685  -3.2681  -3.1970  -3.1960  -3.1455  -3.1448
    -3.0167  -3.0167  -2.9747  -2.9747  -2.6930  -2.6925  -2.6383  -2.6374
    -2.4999  -2.4998  -2.4667  -2.4666  -2.4249  -2.4247  -2.2454  -2.2448
    -2.0671  -2.0669  -1.9386  -1.9375  -1.7481  -1.7481  -1.7030  -1.7030
    -1.6233  -1.6214  -1.5821  -1.5819  -1.5453  -1.5449  -1.3912  -1.3897
    -1.2034  -1.2030  -1.1095  -1.1094  -1.0169  -1.0162  -0.9746  -0.9731
    -0.7190  -0.7188  -0.7108  -0.7107  -0.2149  -0.2137  -0.1934  -0.1926
    -0.0271  -0.0262   0.0415   0.0417   0.0481   0.0491   0.1060   0.1065
     0.8488   0.8491   0.8848   0.8856   1.0078   1.0083   1.1794   1.1799
     1.1841   1.1849   1.2348   1.2351   1.3759   1.3767   1.4281   1.4286
     1.6160   1.6163   1.6448   1.6449   1.9068   1.9069   1.9281   1.9281
     2.4841   2.4848   2.5359   2.5361   2.5805   2.5814   2.6237   2.6238
     5.2652   5.2657   5.3080   5.3083   5.3936   5.3938   5.4316   5.4321
     6.7910   6.7914   6.8214   6.8214   7.0657   7.0659   7.1092   7.1096
     7.5498   7.5505   7.7197   7.7201   7.7914   7.7916   7.8496   7.8503
     8.3985   8.3990   8.4384   8.4389   9.4840   9.4848   9.7486   9.7491
     9.8167   9.8171   9.8791   9.8793  10.1730  10.1731  10.2856  10.2868
    10.2971

          k =-0.5000 0.0000-0.0356 (124052 PWs)   bands (ev):

   -19.0102 -19.0095 -19.0087 -19.0086 -18.9248 -18.9243 -18.9235 -18.9233
   -18.0882 -18.0867 -18.0861 -18.0859 -17.9321 -17.9301 -17.9295 -17.9291
   -14.8281 -14.8274 -14.8249 -14.8243 -14.7206 -14.7198 -14.7168 -14.7162
   -13.4607 -13.4606 -13.4467 -13.4466 -13.3339 -13.3338 -13.3197 -13.3196
   -11.0954 -11.0953 -11.0915 -11.0915 -10.9784 -10.9784 -10.9754 -10.9754
   -10.4868 -10.4865 -10.4817 -10.4815 -10.3145 -10.3143 -10.3074 -10.3071
    -8.4805  -8.4803  -8.3785  -8.3783  -8.2920  -8.2917  -8.1661  -8.1659
    -7.3259  -7.3257  -7.2946  -7.2945  -7.1874  -7.1874  -7.1346  -7.1346
    -7.0933  -7.0933  -7.0653  -7.0652  -7.0131  -7.0129  -6.9958  -6.9957
    -5.7775  -5.7772  -5.7762  -5.7761  -5.6861  -5.6859  -5.6636  -5.6634
    -5.2082  -5.2081  -5.1394  -5.1393  -5.1239  -5.1236  -5.0442  -5.0441
    -4.9687  -4.9686  -4.8854  -4.8854  -4.4707  -4.4706  -4.4455  -4.4454
    -3.9741  -3.9740  -3.9236  -3.9236  -3.7238  -3.7238  -3.6482  -3.6482
    -3.5633  -3.5633  -3.5632  -3.5630  -3.5232  -3.5232  -3.4821  -3.4819
    -3.0962  -3.0958  -3.0916  -3.0914  -3.0120  -3.0116  -2.8613  -2.8611
    -2.7777  -2.7776  -2.7030  -2.7029  -2.5855  -2.5854  -2.5484  -2.5484
    -2.4735  -2.4733  -2.4102  -2.4100  -2.3560  -2.3556  -2.3062  -2.3058
    -1.9020  -1.9020  -1.8552  -1.8552  -1.8267  -1.8267  -1.7593  -1.7591
    -1.6256  -1.6255  -1.6194  -1.6193  -1.4542  -1.4542  -1.4107  -1.4106
    -1.3759  -1.3758  -1.3379  -1.3379  -1.1695  -1.1694  -1.1457  -1.1457
    -0.6907  -0.6906  -0.6086  -0.6084  -0.4889  -0.4888  -0.4665  -0.4663
    -0.3276  -0.3275  -0.3236  -0.3235  -0.2479  -0.2478  -0.2027  -0.2026
     0.8765   0.8765   0.9540   0.9542   1.0299   1.0303   1.0820   1.0823
     1.0962   1.0966   1.1068   1.1070   1.2067   1.2069   1.2209   1.2211
     1.3284   1.3284   1.4343   1.4346   1.4485   1.4488   1.4581   1.4581
     2.0423   2.0424   2.0798   2.0799   2.1653   2.1654   2.2066   2.2067
     5.5112   5.5114   5.6193   5.6195   5.9196   5.9198   6.0428   6.0430
     6.7919   6.7920   6.7953   6.7954   7.2210   7.2212   7.2252   7.2253
     8.1090   8.1092   8.1632   8.1633   8.2638   8.2640   8.2850   8.2851
     8.5595   8.5595   8.7324   8.7324   8.8311   8.8311   9.1015   9.1015
     9.6363   9.6363   9.7637   9.7638  10.4951  10.4953  10.5170  10.5172
    10.5619

          k =-0.5000 0.6454-0.0356 (123976 PWs)   bands (ev):

   -18.9875 -18.9869 -18.9861 -18.9861 -18.9191 -18.9187 -18.9179 -18.9178
   -18.0680 -18.0665 -18.0658 -18.0655 -17.9525 -17.9507 -17.9500 -17.9496
   -14.8572 -14.8565 -14.8552 -14.8546 -14.6813 -14.6805 -14.6787 -14.6781
   -13.4384 -13.4383 -13.4169 -13.4168 -13.3457 -13.3456 -13.3229 -13.3228
   -11.1894 -11.1893 -11.1730 -11.1730 -11.0657 -11.0657 -11.0449 -11.0449
   -10.5330 -10.5327 -10.5257 -10.5254 -10.4277 -10.4275 -10.4185 -10.4183
    -8.4066  -8.4064  -8.3349  -8.3347  -8.2050  -8.2048  -8.1173  -8.1171
    -7.3044  -7.3043  -7.2820  -7.2818  -7.2031  -7.2030  -7.1688  -7.1687
    -7.0348  -7.0346  -7.0155  -7.0153  -6.9524  -6.9522  -6.9271  -6.9269
    -5.7844  -5.7842  -5.7812  -5.7811  -5.6853  -5.6851  -5.6625  -5.6623
    -5.1924  -5.1923  -5.1130  -5.1129  -5.0611  -5.0611  -5.0243  -5.0243
    -4.9105  -4.9104  -4.8745  -4.8745  -4.4740  -4.4739  -4.4600  -4.4599
    -4.0316  -4.0313  -3.9029  -3.9026  -3.8293  -3.8292  -3.7881  -3.7880
    -3.6055  -3.6052  -3.5553  -3.5551  -3.4913  -3.4911  -3.4435  -3.4433
    -3.3527  -3.3524  -3.2509  -3.2505  -2.9291  -2.9289  -2.8994  -2.8992
    -2.7934  -2.7933  -2.7738  -2.7737  -2.7550  -2.7549  -2.7089  -2.7086
    -2.5757  -2.5756  -2.4758  -2.4758  -2.3788  -2.3787  -2.3001  -2.2999
    -2.0167  -2.0165  -1.9627  -1.9625  -1.7716  -1.7713  -1.7246  -1.7244
    -1.6302  -1.6301  -1.5223  -1.5221  -1.4438  -1.4437  -1.3848  -1.3847
    -1.2309  -1.2308  -1.2077  -1.2077  -1.1069  -1.1068  -1.0930  -1.0929
    -0.5467  -0.5466  -0.5040  -0.5038  -0.4131  -0.4130  -0.3794  -0.3793
    -0.2265  -0.2264  -0.1547  -0.1545  -0.1433  -0.1432  -0.0367  -0.0366
     0.8574   0.8578   0.8980   0.8984   1.0461   1.0463   1.0594   1.0596
     1.1290   1.1294   1.1765   1.1768   1.2736   1.2737   1.4076   1.4080
     1.4402   1.4407   1.4709   1.4710   1.5941   1.5943   1.7482   1.7483
     2.2054   2.2057   2.2849   2.2851   2.3701   2.3704   2.4141   2.4144
     5.4396   5.4398   5.6237   5.6238   5.6731   5.6731   5.8956   5.8958
     6.7163   6.7164   6.7566   6.7567   6.9746   6.9746   7.0127   7.0127
     7.8706   7.8709   7.9566   7.9569   8.0698   8.0700   8.1608   8.1611
     8.4378   8.4378   8.5426   8.5427   9.1257   9.1257   9.3896   9.3897
     9.6599   9.6599   9.8072   9.8072  10.3361  10.3361  10.4734  10.4736
    10.5995

          k =-0.5000-1.2908-0.0356 (123852 PWs)   bands (ev):

   -18.9612 -18.9611 -18.9603 -18.9602 -18.9161 -18.9160 -18.9151 -18.9151
   -18.0343 -18.0328 -18.0320 -18.0317 -17.9867 -17.9851 -17.9845 -17.9842
   -14.8805 -14.8797 -14.8794 -14.8791 -14.6472 -14.6465 -14.6462 -14.6460
   -13.3981 -13.3976 -13.3723 -13.3718 -13.3717 -13.3712 -13.3446 -13.3441
   -11.2931 -11.2930 -11.2427 -11.2427 -11.1588 -11.1587 -11.1039 -11.1039
   -10.5685 -10.5680 -10.5551 -10.5546 -10.5394 -10.5392 -10.5213 -10.5212
    -8.3690  -8.3689  -8.3158  -8.3157  -8.1263  -8.1262  -8.0573  -8.0572
    -7.2427  -7.2425  -7.2197  -7.2195  -7.2127  -7.2127  -7.1931  -7.1931
    -7.0413  -7.0412  -7.0122  -7.0121  -6.8852  -6.8852  -6.8564  -6.8563
    -5.8093  -5.8091  -5.7754  -5.7752  -5.6924  -5.6923  -5.6718  -5.6717
    -5.1253  -5.1251  -5.1116  -5.1115  -5.0749  -5.0749  -4.9833  -4.9832
    -4.8560  -4.8558  -4.8544  -4.8543  -4.4826  -4.4825  -4.4469  -4.4467
    -4.0101  -4.0099  -3.9041  -3.9041  -3.8503  -3.8502  -3.8016  -3.8012
    -3.6746  -3.6745  -3.5631  -3.5630  -3.5429  -3.5428  -3.5200  -3.5199
    -3.4817  -3.4816  -3.3297  -3.3296  -3.2428  -3.2425  -3.0685  -3.0682
    -2.8029  -2.8028  -2.7886  -2.7883  -2.7196  -2.7196  -2.6552  -2.6550
    -2.5260  -2.5259  -2.4493  -2.4491  -2.3212  -2.3210  -2.3019  -2.3017
    -2.0929  -2.0928  -2.0467  -2.0467  -1.8553  -1.8552  -1.8294  -1.8292
    -1.5478  -1.5477  -1.5401  -1.5400  -1.4519  -1.4517  -1.4439  -1.4437
    -1.1706  -1.1705  -1.1113  -1.1113  -1.0950  -1.0950  -1.0591  -1.0590
    -0.5413  -0.5413  -0.4276  -0.4276  -0.4115  -0.4114  -0.2977  -0.2976
    -0.0636  -0.0636   0.0267   0.0269   0.0286   0.0286   0.1205   0.1206
     0.9017   0.9019   0.9258   0.9259   1.0570   1.0574   1.0701   1.0704
     1.1853   1.1858   1.2264   1.2269   1.4004   1.4008   1.4425   1.4429
     1.5600   1.5601   1.7480   1.7480   1.7977   1.7978   1.9819   1.9819
     2.5012   2.5016   2.5413   2.5416   2.5471   2.5471   2.6267   2.6268
     5.3171   5.3172   5.3400   5.3401   5.3486   5.3486   5.3844   5.3845
     6.7915   6.7916   6.8498   6.8499   7.0395   7.0395   7.1107   7.1107
     7.5784   7.5787   7.7101   7.7104   7.7415   7.7418   7.8828   7.8831
     8.4856   8.4856   8.5079   8.5079   9.3865   9.3866   9.5348   9.5349
     9.7721   9.7721   9.8163   9.8163  10.2915  10.2916  10.3578  10.3579
    10.3688

     highest occupied, lowest unoccupied level (ev):     2.6268    5.2652

!    total energy              =   -1991.92668488 Ry
     Harris-Foulkes estimate   =   -1991.92668488 Ry
     estimated scf accuracy    <          1.3E-09 Ry

     total all-electron energy =     -7618.656809 Ry

     The total energy is the sum of the following terms:

     one-electron contribution =    -800.51237178 Ry
     hartree contribution      =     581.68883745 Ry
     xc contribution           =    -435.14418853 Ry
     ewald contribution        =    -746.15675196 Ry
     Dispersion Correction     =      -0.83020187 Ry
     one-center paw contrib.   =    -590.97200819 Ry

     convergence has been achieved in  18 iterations

     Forces acting on atoms (cartesian axes, Ry/au):

     atom    1 type  2   force =    -0.00745298   -0.00158022   -0.00056643
     atom    2 type  2   force =    -0.00739256   -0.00174674   -0.00044881
     atom    3 type  2   force =     0.00745298   -0.00158022    0.00056643
     atom    4 type  2   force =     0.00739256   -0.00174674    0.00044881
     atom    5 type  2   force =     0.00745298    0.00158022    0.00056643
     atom    6 type  2   force =     0.00739256    0.00174674    0.00044881
     atom    7 type  2   force =    -0.00745298    0.00158022   -0.00056643
     atom    8 type  2   force =    -0.00739256    0.00174674   -0.00044881
     atom    9 type  4   force =     0.00131213   -0.00377398    0.00823350
     atom   10 type  4   force =     0.00145909   -0.00389897    0.00833484
     atom   11 type  4   force =    -0.00131213   -0.00377398   -0.00823350
     atom   12 type  4   force =    -0.00145909   -0.00389897   -0.00833484
     atom   13 type  4   force =    -0.00131213    0.00377398   -0.00823350
     atom   14 type  4   force =    -0.00145909    0.00389897   -0.00833484
     atom   15 type  4   force =     0.00131213    0.00377398    0.00823350
     atom   16 type  4   force =     0.00145909    0.00389897    0.00833484
     atom   17 type  4   force =    -0.01005999   -0.00192681   -0.00811402
     atom   18 type  4   force =    -0.01008972   -0.00198364   -0.00807841
     atom   19 type  4   force =     0.01005999   -0.00192681    0.00811402
     atom   20 type  4   force =     0.01008972   -0.00198364    0.00807841
     atom   21 type  4   force =     0.01005999    0.00192681    0.00811402
     atom   22 type  4   force =     0.01008972    0.00198364    0.00807841
     atom   23 type  4   force =    -0.01005999    0.00192681   -0.00811402
     atom   24 type  4   force =    -0.01008972    0.00198364   -0.00807841
     atom   25 type  1   force =     0.02510286    0.00188507   -0.00663635
     atom   26 type  1   force =     0.02502976    0.00175842   -0.00657342
     atom   27 type  1   force =    -0.02510286    0.00188507    0.00663635
     atom   28 type  1   force =    -0.02502976    0.00175842    0.00657342
     atom   29 type  1   force =    -0.02510286   -0.00188507    0.00663635
     atom   30 type  1   force =    -0.02502976   -0.00175842    0.00657342
     atom   31 type  1   force =     0.02510286   -0.00188507   -0.00663635
     atom   32 type  1   force =     0.02502976   -0.00175842   -0.00657342
     atom   33 type  1   force =    -0.02212959   -0.01978340   -0.00064853
     atom   34 type  1   force =    -0.02190308   -0.01976646   -0.00066164
     atom   35 type  1   force =     0.02212959   -0.01978340    0.00064853
     atom   36 type  1   force =     0.02190308   -0.01976646    0.00066164
     atom   37 type  1   force =     0.02212959    0.01978340    0.00064853
     atom   38 type  1   force =     0.02190308    0.01976646    0.00066164
     atom   39 type  1   force =    -0.02212959    0.01978340   -0.00064853
     atom   40 type  1   force =    -0.02190308    0.01976646   -0.00066164
     atom   41 type  1   force =    -0.00083522    0.00850198    0.00630777
     atom   42 type  1   force =    -0.00153245    0.00800640    0.00677721
     atom   43 type  1   force =     0.00083522    0.00850198   -0.00630777
     atom   44 type  1   force =     0.00153245    0.00800640   -0.00677721
     atom   45 type  1   force =     0.00083522   -0.00850198   -0.00630777
     atom   46 type  1   force =     0.00153245   -0.00800640   -0.00677721
     atom   47 type  1   force =    -0.00083522   -0.00850198    0.00630777
     atom   48 type  1   force =    -0.00153245   -0.00800640    0.00677721
     atom   49 type  1   force =    -0.00313763    0.00266572    0.00248840
     atom   50 type  1   force =    -0.00318950    0.00352338    0.00199647
     atom   51 type  1   force =     0.00313763    0.00266572   -0.00248840
     atom   52 type  1   force =     0.00318950    0.00352338   -0.00199647
     atom   53 type  1   force =     0.00313763   -0.00266572   -0.00248840
     atom   54 type  1   force =     0.00318950   -0.00352338   -0.00199647
     atom   55 type  1   force =    -0.00313763   -0.00266572    0.00248840
     atom   56 type  1   force =    -0.00318950   -0.00352338    0.00199647
     atom   57 type  1   force =    -0.00247931    0.01216808    0.00380724
     atom   58 type  1   force =    -0.00216324    0.01176063    0.00395998
     atom   59 type  1   force =     0.00247931    0.01216808   -0.00380724
     atom   60 type  1   force =     0.00216324    0.01176063   -0.00395998
     atom   61 type  1   force =     0.00247931   -0.01216808   -0.00380724
     atom   62 type  1   force =     0.00216324   -0.01176063   -0.00395998
     atom   63 type  1   force =    -0.00247931   -0.01216808    0.00380724
     atom   64 type  1   force =    -0.00216324   -0.01176063    0.00395998
     atom   65 type  1   force =     0.00678653    0.00399152    0.01086743
     atom   66 type  1   force =     0.00649126    0.00438906    0.01075213
     atom   67 type  1   force =    -0.00678653    0.00399152   -0.01086743
     atom   68 type  1   force =    -0.00649126    0.00438906   -0.01075213
     atom   69 type  1   force =    -0.00678653   -0.00399152   -0.01086743
     atom   70 type  1   force =    -0.00649126   -0.00438906   -0.01075213
     atom   71 type  1   force =     0.00678653   -0.00399152    0.01086743
     atom   72 type  1   force =     0.00649126   -0.00438906    0.01075213
     atom   73 type  1   force =     0.00742921    0.00324729   -0.01507534
     atom   74 type  1   force =     0.00720570    0.00355205   -0.01521687
     atom   75 type  1   force =    -0.00742921    0.00324729    0.01507534
     atom   76 type  1   force =    -0.00720570    0.00355205    0.01521687
     atom   77 type  1   force =    -0.00742921   -0.00324729    0.01507534
     atom   78 type  1   force =    -0.00720570   -0.00355205    0.01521687
     atom   79 type  1   force =     0.00742921   -0.00324729   -0.01507534
     atom   80 type  1   force =     0.00720570   -0.00355205   -0.01521687
     atom   81 type  3   force =     0.00219715    0.00040157   -0.00045318
     atom   82 type  3   force =     0.00253478    0.00044957   -0.00054733
     atom   83 type  3   force =    -0.00219715    0.00040157    0.00045318
     atom   84 type  3   force =    -0.00253478    0.00044957    0.00054733
     atom   85 type  3   force =    -0.00219715   -0.00040157    0.00045318
     atom   86 type  3   force =    -0.00253478   -0.00044957    0.00054733
     atom   87 type  3   force =     0.00219715   -0.00040157   -0.00045318
     atom   88 type  3   force =     0.00253478   -0.00044957   -0.00054733
     atom   89 type  3   force =     0.00212215    0.00174817    0.00197473
     atom   90 type  3   force =     0.00229111    0.00149299    0.00207059
     atom   91 type  3   force =    -0.00212215    0.00174817   -0.00197473
     atom   92 type  3   force =    -0.00229111    0.00149299   -0.00207059
     atom   93 type  3   force =    -0.00212215   -0.00174817   -0.00197473
     atom   94 type  3   force =    -0.00229111   -0.00149299   -0.00207059
     atom   95 type  3   force =     0.00212215   -0.00174817    0.00197473
     atom   96 type  3   force =     0.00229111   -0.00149299    0.00207059
     atom   97 type  3   force =     0.00129579    0.00122915    0.00100103
     atom   98 type  3   force =     0.00128138    0.00125979    0.00096379
     atom   99 type  3   force =    -0.00129579    0.00122915   -0.00100103
     atom  100 type  3   force =    -0.00128138    0.00125979   -0.00096379
     atom  101 type  3   force =    -0.00129579   -0.00122915   -0.00100103
     atom  102 type  3   force =    -0.00128138   -0.00125979   -0.00096379
     atom  103 type  3   force =     0.00129579   -0.00122915    0.00100103
     atom  104 type  3   force =     0.00128138   -0.00125979    0.00096379
     atom  105 type  3   force =    -0.00123363   -0.00175601   -0.00332288
     atom  106 type  3   force =    -0.00110698   -0.00176713   -0.00334198
     atom  107 type  3   force =     0.00123363   -0.00175601    0.00332288
     atom  108 type  3   force =     0.00110698   -0.00176713    0.00334198
     atom  109 type  3   force =     0.00123363    0.00175601    0.00332288
     atom  110 type  3   force =     0.00110698    0.00176713    0.00334198
     atom  111 type  3   force =    -0.00123363    0.00175601   -0.00332288
     atom  112 type  3   force =    -0.00110698    0.00176713   -0.00334198
     atom  113 type  3   force =    -0.00018055   -0.00128917    0.00140461
     atom  114 type  3   force =    -0.00016149   -0.00123273    0.00133847
     atom  115 type  3   force =     0.00018055   -0.00128917   -0.00140461
     atom  116 type  3   force =     0.00016149   -0.00123273   -0.00133847
     atom  117 type  3   force =     0.00018055    0.00128917   -0.00140461
     atom  118 type  3   force =     0.00016149    0.00123273   -0.00133847
     atom  119 type  3   force =    -0.00018055    0.00128917    0.00140461
     atom  120 type  3   force =    -0.00016149    0.00123273    0.00133847
     atom  121 type  3   force =     0.00422992   -0.00129153    0.00078108
     atom  122 type  3   force =     0.00418686   -0.00124558    0.00076960
     atom  123 type  3   force =    -0.00422992   -0.00129153   -0.00078108
     atom  124 type  3   force =    -0.00418686   -0.00124558   -0.00076960
     atom  125 type  3   force =    -0.00422992    0.00129153   -0.00078108
     atom  126 type  3   force =    -0.00418686    0.00124558   -0.00076960
     atom  127 type  3   force =     0.00422992    0.00129153    0.00078108
     atom  128 type  3   force =     0.00418686    0.00124558    0.00076960
     atom  129 type  3   force =    -0.00367279   -0.00370541    0.00278205
     atom  130 type  3   force =    -0.00362969   -0.00368778    0.00275359
     atom  131 type  3   force =     0.00367279   -0.00370541   -0.00278205
     atom  132 type  3   force =     0.00362969   -0.00368778   -0.00275359
     atom  133 type  3   force =     0.00367279    0.00370541   -0.00278205
     atom  134 type  3   force =     0.00362969    0.00368778   -0.00275359
     atom  135 type  3   force =    -0.00367279    0.00370541    0.00278205
     atom  136 type  3   force =    -0.00362969    0.00368778    0.00275359

     Total force =     0.147932     Total SCF correction =     0.000069


     Computing stress (Cartesian axis) and pressure

          total   stress  (Ry/bohr**3)                   (kbar)     P=   18.15
   0.00010248   0.00000000   0.00000791         15.08      0.00      1.16
   0.00000000   0.00012856   0.00000000          0.00     18.91      0.00
   0.00000791   0.00000000   0.00013916          1.16      0.00     20.47


     Writing output data file scf.save
 
     init_run     :     67.61s CPU     69.51s WALL (       1 calls)
     electrons    :   2811.05s CPU   2907.97s WALL (       1 calls)
     forces       :     37.11s CPU     37.39s WALL (       1 calls)
     stress       :    164.59s CPU    164.98s WALL (       1 calls)

     Called by init_run:
     wfcinit      :     55.19s CPU     56.87s WALL (       1 calls)
     potinit      :      4.45s CPU      4.48s WALL (       1 calls)

     Called by electrons:
     c_bands      :   2580.72s CPU   2662.96s WALL (      18 calls)
     sum_band     :    209.43s CPU    222.19s WALL (      18 calls)
     v_of_rho     :      2.48s CPU      2.76s WALL (      19 calls)
     newd         :      7.73s CPU      9.38s WALL (      19 calls)
     PAW_pot      :      9.78s CPU      9.79s WALL (      19 calls)
     mix_rho      :      0.66s CPU      0.69s WALL (      18 calls)

     Called by c_bands:
     init_us_2    :      9.69s CPU      9.75s WALL (     234 calls)
     cegterg      :   2536.63s CPU   2618.63s WALL (     108 calls)

     Called by sum_band:
     sum_band:bec :      0.13s CPU      0.13s WALL (     108 calls)
     addusdens    :      7.63s CPU      9.20s WALL (      18 calls)

     Called by *egterg:
     h_psi        :   1168.77s CPU   1235.14s WALL (     575 calls)
     s_psi        :    335.41s CPU    335.42s WALL (     575 calls)
     g_psi        :      5.44s CPU      5.44s WALL (     461 calls)
     cdiaghg      :    162.83s CPU    162.90s WALL (     569 calls)

     Called by h_psi:
     h_psi:pot    :   1161.23s CPU   1227.45s WALL (     575 calls)
     h_psi:calbec :    337.77s CPU    338.37s WALL (     575 calls)
     vloc_psi     :    488.36s CPU    553.91s WALL (     575 calls)
     add_vuspsi   :    335.10s CPU    335.17s WALL (     575 calls)

     General routines
     calbec       :    480.57s CPU    481.34s WALL (     713 calls)
     fft          :      3.12s CPU      3.65s WALL (     271 calls)
     fftw         :    513.04s CPU    589.27s WALL (  193208 calls)
 
     Parallel routines
     fft_scatter  :    116.29s CPU    187.16s WALL (  193479 calls)
 
     PWSCF        : 51m32.96s CPU    53m53.06s WALL

 
   This run was terminated on:  20:32:27  15Jan2018            

=------------------------------------------------------------------------------=
   JOB DONE.
=------------------------------------------------------------------------------=
