
     Program PWSCF v.6.1 (svn rev. 13369) starts on  7Dec2017 at 11:14:41 

     This program is part of the open-source Quantum ESPRESSO suite
     for quantum simulation of materials; please cite
         "P. Giannozzi et al., J. Phys.:Condens. Matter 21 395502 (2009);
          URL http://www.quantum-espresso.org", 
     in publications or presentations arising from this work. More details at
     http://www.quantum-espresso.org/quote

     Parallel version (MPI), running on     8 processors
     R & G space division:  proc/nbgrp/npool/nimage =       8
     Waiting for input...
     Reading input from standard input

     Current dimensions of program PWSCF are:
     Max number of different atomic species (ntypx) = 10
     Max number of k-points (npk) =  40000
     Max angular momentum in pseudopotentials (lmaxx) =  3
               file C.pbe-n-kjpaw_psl.0.1.UPF: wavefunction(s)  2P renormalized
               file N.pbe-n-kjpaw_psl.0.1.UPF: wavefunction(s)  2P renormalized
               file H.pbe-kjpaw_psl.0.1.UPF: wavefunction(s)  1S renormalized
               file O.pbe-n-kjpaw_psl.0.1.UPF: wavefunction(s)  2P renormalized

     -------------------------------------
     Parameters for Dispersion Correction:
     -------------------------------------
       atom      VdW radius       C_6     

        C          2.744         60.710
        N          2.640         42.670
        H          1.892          4.857
        O          2.536         24.284

     Subspace diagonalization in iterative solution of the eigenvalue problem:
     a serial algorithm will be used

 
     Parallelization info
     --------------------
     sticks:   dense  smooth     PW     G-vecs:    dense   smooth      PW
     Min        1987    1987    532                83951    83951   11618
     Max        1989    1989    533                83952    83952   11619
     Sum       15901   15901   4259               671611   671611   92947
 


     bravais-lattice index     =            0
     lattice parameter (alat)  =      14.7688  a.u.
     unit-cell volume          =    4971.2022 (a.u.)^3
     number of atoms/cell      =           72
     number of atomic types    =            4
     number of electrons       =       240.00
     number of Kohn-Sham states=          144
     kinetic-energy cutoff     =     100.0000  Ry
     charge density cutoff     =     400.0000  Ry
     convergence threshold     =      1.0E-08
     mixing beta               =       0.5000
     number of iterations used =            8  plain     mixing
     Exchange-correlation      =  SLA  PW   PBX  PBC ( 1  4  3  4 0 0)

     celldm(1)=  14.768777  celldm(2)=   0.000000  celldm(3)=   0.000000
     celldm(4)=   0.000000  celldm(5)=   0.000000  celldm(6)=   0.000000

     crystal axes: (cart. coord. in units of alat)
               a(1) = (   1.000000   0.000000   0.000000 )  
               a(2) = (   0.000000   2.292043   0.000000 )  
               a(3) = (   0.000000   0.000000   0.673295 )  

     reciprocal axes: (cart. coord. in units 2 pi/alat)
               b(1) = (  1.000000  0.000000  0.000000 )  
               b(2) = (  0.000000  0.436292  0.000000 )  
               b(3) = (  0.000000  0.000000  1.485234 )  


     PseudoPot. # 1 for  C read from file:
     /scratch/ahofstet/pseudo/C.pbe-n-kjpaw_psl.0.1.UPF
     MD5 check sum: 430fe95172b1e11ef3f8ed03bac87931
     Pseudo is Projector augmented-wave + core cor, Zval =  4.0
     Generated using "atomic" code by A. Dal Corso  v.5.0.99 svn rev. 10869
     Shape of augmentation charge: BESSEL
     Using radial grid of 1073 points,  4 beta functions with: 
                l(1) =   0
                l(2) =   0
                l(3) =   1
                l(4) =   1
     Q(r) pseudized with 0 coefficients 


     PseudoPot. # 2 for  N read from file:
     /scratch/ahofstet/pseudo/N.pbe-n-kjpaw_psl.0.1.UPF
     MD5 check sum: f73187c8b701007e77325f868c9291d7
     Pseudo is Projector augmented-wave + core cor, Zval =  5.0
     Generated using "atomic" code by A. Dal Corso  v.5.0.99 svn rev. 10869
     Shape of augmentation charge: PSQ
     Using radial grid of 1085 points,  4 beta functions with: 
                l(1) =   0
                l(2) =   0
                l(3) =   1
                l(4) =   1
     Q(r) pseudized with 0 coefficients 


     PseudoPot. # 3 for  H read from file:
     /scratch/ahofstet/pseudo/H.pbe-kjpaw_psl.0.1.UPF
     MD5 check sum: 94e484f906d9e9773b2f6e52662335b2
     Pseudo is Projector augmented-wave, Zval =  1.0
     Generated using "atomic" code by A. Dal Corso  v.5.0.99 svn rev. 10869
     Shape of augmentation charge: PSQ
     Using radial grid of  929 points,  2 beta functions with: 
                l(1) =   0
                l(2) =   0
     Q(r) pseudized with 0 coefficients 


     PseudoPot. # 4 for  O read from file:
     /scratch/ahofstet/pseudo/O.pbe-n-kjpaw_psl.0.1.UPF
     MD5 check sum: 3f94a2996a3169367d6eb21d9b593f20
     Pseudo is Projector augmented-wave + core cor, Zval =  6.0
     Generated using "atomic" code by A. Dal Corso  v.5.0.99 svn rev. 10869
     Shape of augmentation charge: BESSEL
     Using radial grid of 1095 points,  4 beta functions with: 
                l(1) =   0
                l(2) =   0
                l(3) =   1
                l(4) =   1
     Q(r) pseudized with 0 coefficients 


     atomic species   valence    mass     pseudopotential
        C              4.00    12.01070      C( 1.00)
        N              5.00    14.00670      N( 1.00)
        H              1.00     1.00794      H( 1.00)
        O              6.00    15.99940      O( 1.00)

      2 Sym. Ops. (no inversion) found ( 1 have fractional translation)



   Cartesian axes

     site n.     atom                  positions (alat units)
         1           H   tau(   1) = (   0.6483349   1.5817097   0.1285528  )
         2           H   tau(   2) = (   0.3516651   0.7103328   0.4652001  )
         3           H   tau(   3) = (   0.1488196   1.8563365   0.1284636  )
         4           H   tau(   4) = (   0.8511804   0.4357061   0.4651109  )
         5           H   tau(   5) = (   0.9105448   1.2864568   0.3762910  )
         6           H   tau(   6) = (   0.0894552   1.0055857   0.0396437  )
         7           H   tau(   7) = (   0.4109455   2.1517033   0.3762953  )
         8           H   tau(   8) = (   0.5890545   0.1403393   0.0396479  )
         9           H   tau(   9) = (   0.8266884   1.4500253   0.0784739  )
        10           H   tau(  10) = (   0.1733116   0.8420173   0.4151212  )
        11           H   tau(  11) = (   0.3271981   1.9880803   0.0785015  )
        12           H   tau(  12) = (   0.6728019   0.3039622   0.4151489  )
        13           H   tau(  13) = (   0.8554220   1.1131512   0.5009416  )
        14           H   tau(  14) = (   0.1445780   1.1788914   0.1642943  )
        15           H   tau(  15) = (   0.3557148   0.0330420   0.5007966  )
        16           H   tau(  16) = (   0.6442852   2.2590005   0.1641492  )
        17           N   tau(  17) = (   0.0567004   1.5535144   0.2513514  )
        18           N   tau(  18) = (   0.9432996   0.7385281   0.5879988  )
        19           N   tau(  19) = (   0.5569272   1.8844341   0.2515981  )
        20           N   tau(  20) = (   0.4430728   0.4076084   0.5882455  )
        21           N   tau(  21) = (   0.7063210   1.4974138   0.0438194  )
        22           N   tau(  22) = (   0.2936790   0.7946287   0.3804667  )
        23           N   tau(  23) = (   0.2068157   1.9407015   0.0438302  )
        24           N   tau(  24) = (   0.7931843   0.3513410   0.3804775  )
        25           N   tau(  25) = (   0.8482713   1.2439782   0.4859448  )
        26           N   tau(  26) = (   0.1517287   1.0480644   0.1492975  )
        27           N   tau(  27) = (   0.3486421   2.1942681   0.4859296  )
        28           N   tau(  28) = (   0.6513579   0.0977745   0.1492823  )
        29           N   tau(  29) = (   0.6817360   1.2994856   0.4855310  )
        30           N   tau(  30) = (   0.3182640   0.9925569   0.1488836  )
        31           N   tau(  31) = (   0.1821448   2.1386513   0.4855280  )
        32           N   tau(  32) = (   0.8178552   0.1533913   0.1488807  )
        33           N   tau(  33) = (   0.4525736   1.4327574   0.5535040  )
        34           N   tau(  34) = (   0.5474264   0.8592851   0.2168567  )
        35           N   tau(  35) = (   0.9530768   2.0052334   0.5535184  )
        36           N   tau(  36) = (   0.0469232   0.2868091   0.2168711  )
        37           N   tau(  37) = (   0.0185020   1.4138846   0.2030686  )
        38           N   tau(  38) = (   0.9814980   0.8781579   0.5397159  )
        39           N   tau(  39) = (   0.5189188   2.0240294   0.2030683  )
        40           N   tau(  40) = (   0.4810812   0.2680132   0.5397157  )
        41           N   tau(  41) = (   0.5511187   1.2432933   0.3801253  )
        42           N   tau(  42) = (   0.4488813   1.0487492   0.0434780  )
        43           N   tau(  43) = (   0.0514664   2.1947562   0.3801403  )
        44           N   tau(  44) = (   0.9485336   0.0972863   0.0434930  )
        45           N   tau(  45) = (   0.0937673   1.6926082   0.2966873  )
        46           N   tau(  46) = (   0.9062327   0.5994343   0.6333347  )
        47           N   tau(  47) = (   0.5937043   1.7452971   0.2970346  )
        48           N   tau(  48) = (   0.4062957   0.5467454   0.6336820  )
        49           N   tau(  49) = (   0.4156134   1.3248539   0.4207916  )
        50           N   tau(  50) = (   0.5843866   0.9671886   0.0841443  )
        51           N   tau(  51) = (   0.9160245   2.1131055   0.4208219  )
        52           N   tau(  52) = (   0.0839755   0.1789370   0.0841746  )
        53           C   tau(  53) = (   0.6190655   1.4170148   0.5976155  )
        54           C   tau(  54) = (   0.3809345   0.8750278   0.2609682  )
        55           C   tau(  55) = (   0.1195531   2.0210787   0.5976227  )
        56           C   tau(  56) = (   0.8804469   0.2709638   0.2609753  )
        57           C   tau(  57) = (   0.3282553   1.5509961   0.6231815  )
        58           C   tau(  58) = (   0.6717447   0.7410464   0.2865342  )
        59           C   tau(  59) = (   0.8288880   1.8868626   0.6232257  )
        60           C   tau(  60) = (   0.1711120   0.4051799   0.2865784  )
        61           H   tau(  61) = (   0.2009606   1.4939832   0.6090713  )
        62           H   tau(  62) = (   0.7990394   0.7980593   0.2724239  )
        63           H   tau(  63) = (   0.7015221   1.9437454   0.6090883  )
        64           H   tau(  64) = (   0.2984779   0.3482971   0.2724409  )
        65           H   tau(  65) = (   0.3342720   1.6726710   0.5536490  )
        66           H   tau(  66) = (   0.6657280   0.6193716   0.2170016  )
        67           H   tau(  67) = (   0.8350206   1.7651898   0.5537115  )
        68           H   tau(  68) = (   0.1649794   0.5268528   0.2170641  )
        69           H   tau(  69) = (   0.3564840   1.5703605   0.0860700  )
        70           H   tau(  70) = (   0.6435160   0.7216821   0.4227173  )
        71           H   tau(  71) = (   0.8571130   1.8675625   0.0861076  )
        72           H   tau(  72) = (   0.1428870   0.4244800   0.4227550  )

     number of k points=     6
                       cart. coord. in units 2pi/alat
        k(    1) = (   0.0000000   0.0000000   0.0000000), wk =   0.1666667
        k(    2) = (   0.0000000   0.0000000   0.3713084), wk =   0.3333333
        k(    3) = (   0.0000000   0.0000000  -0.7426169), wk =   0.1666667
        k(    4) = (   0.3333333   0.0000000   0.0000000), wk =   0.3333333
        k(    5) = (   0.3333333   0.0000000   0.3713084), wk =   0.6666667
        k(    6) = (   0.3333333   0.0000000  -0.7426169), wk =   0.3333333

     Dense  grid:   671611 G-vectors     FFT dimensions: (  96, 216,  64)

     Estimated max dynamical RAM per process >     471.05MB

     Estimated total allocated dynamical RAM >    3768.36MB

     Check: negative/imaginary core charge=   -0.000002    0.000000

     Initial potential from superposition of free atoms

     starting charge  239.99914, renormalised to  240.00000
     Starting wfc are  204 randomized atomic wfcs
     Checking if some PAW data can be deallocated... 

     total cpu time spent up to now is       21.4 secs

     per-process dynamical memory:   323.0 Mb

     Self-consistent Calculation

     iteration #  1     ecut=   100.00 Ry     beta=0.50
     Davidson diagonalization with overlap
     ethr =  1.00E-02,  avg # of iterations =  3.0

     total cpu time spent up to now is       72.9 secs

     total energy              =   -1194.60525321 Ry
     Harris-Foulkes estimate   =   -1197.90742970 Ry
     estimated scf accuracy    <       6.38683111 Ry

     iteration #  2     ecut=   100.00 Ry     beta=0.50
     Davidson diagonalization with overlap
     ethr =  2.66E-03,  avg # of iterations =  3.0

     total cpu time spent up to now is      108.9 secs

     total energy              =   -1195.55720927 Ry
     Harris-Foulkes estimate   =   -1195.91498099 Ry
     estimated scf accuracy    <       0.80617810 Ry

     iteration #  3     ecut=   100.00 Ry     beta=0.50
     Davidson diagonalization with overlap
     ethr =  3.36E-04,  avg # of iterations =  8.2

     total cpu time spent up to now is      160.0 secs

     total energy              =   -1195.78510932 Ry
     Harris-Foulkes estimate   =   -1195.86924012 Ry
     estimated scf accuracy    <       0.22343780 Ry

     iteration #  4     ecut=   100.00 Ry     beta=0.50
     Davidson diagonalization with overlap
     ethr =  9.31E-05,  avg # of iterations =  3.8

     total cpu time spent up to now is      191.4 secs

     total energy              =   -1195.79610013 Ry
     Harris-Foulkes estimate   =   -1195.81599260 Ry
     estimated scf accuracy    <       0.04763490 Ry

     iteration #  5     ecut=   100.00 Ry     beta=0.50
     Davidson diagonalization with overlap
     ethr =  1.98E-05,  avg # of iterations =  7.8

     total cpu time spent up to now is      248.0 secs

     total energy              =   -1195.80809469 Ry
     Harris-Foulkes estimate   =   -1195.83253366 Ry
     estimated scf accuracy    <       0.08734121 Ry

     iteration #  6     ecut=   100.00 Ry     beta=0.50
     Davidson diagonalization with overlap
     ethr =  1.98E-05,  avg # of iterations =  3.0

     total cpu time spent up to now is      279.3 secs

     total energy              =   -1195.81670857 Ry
     Harris-Foulkes estimate   =   -1195.81984309 Ry
     estimated scf accuracy    <       0.00922131 Ry

     iteration #  7     ecut=   100.00 Ry     beta=0.50
     Davidson diagonalization with overlap
     ethr =  3.84E-06,  avg # of iterations =  6.0

     total cpu time spent up to now is      317.7 secs

     total energy              =   -1195.81776033 Ry
     Harris-Foulkes estimate   =   -1195.81823467 Ry
     estimated scf accuracy    <       0.00106915 Ry

     iteration #  8     ecut=   100.00 Ry     beta=0.50
     Davidson diagonalization with overlap
     ethr =  4.45E-07,  avg # of iterations =  8.8

     total cpu time spent up to now is      366.9 secs

     total energy              =   -1195.81805673 Ry
     Harris-Foulkes estimate   =   -1195.81816315 Ry
     estimated scf accuracy    <       0.00033029 Ry

     iteration #  9     ecut=   100.00 Ry     beta=0.50
     Davidson diagonalization with overlap
     ethr =  1.38E-07,  avg # of iterations =  2.2

     total cpu time spent up to now is      396.5 secs

     total energy              =   -1195.81808954 Ry
     Harris-Foulkes estimate   =   -1195.81813282 Ry
     estimated scf accuracy    <       0.00014188 Ry

     iteration # 10     ecut=   100.00 Ry     beta=0.50
     Davidson diagonalization with overlap
     ethr =  5.91E-08,  avg # of iterations =  2.3

     total cpu time spent up to now is      426.6 secs

     total energy              =   -1195.81811261 Ry
     Harris-Foulkes estimate   =   -1195.81812281 Ry
     estimated scf accuracy    <       0.00003415 Ry

     iteration # 11     ecut=   100.00 Ry     beta=0.50
     Davidson diagonalization with overlap
     ethr =  1.42E-08,  avg # of iterations =  3.0

     total cpu time spent up to now is      463.5 secs

     total energy              =   -1195.81812106 Ry
     Harris-Foulkes estimate   =   -1195.81812251 Ry
     estimated scf accuracy    <       0.00000429 Ry

     iteration # 12     ecut=   100.00 Ry     beta=0.50
     Davidson diagonalization with overlap
     ethr =  1.79E-09,  avg # of iterations =  2.3

     total cpu time spent up to now is      496.8 secs

     total energy              =   -1195.81812155 Ry
     Harris-Foulkes estimate   =   -1195.81812182 Ry
     estimated scf accuracy    <       0.00000078 Ry

     iteration # 13     ecut=   100.00 Ry     beta=0.50
     Davidson diagonalization with overlap
     ethr =  3.26E-10,  avg # of iterations =  3.2

     total cpu time spent up to now is      542.5 secs

     total energy              =   -1195.81812182 Ry
     Harris-Foulkes estimate   =   -1195.81812188 Ry
     estimated scf accuracy    <       0.00000015 Ry

     iteration # 14     ecut=   100.00 Ry     beta=0.50
     Davidson diagonalization with overlap
     ethr =  6.31E-11,  avg # of iterations =  2.7

     total cpu time spent up to now is      574.5 secs

     total energy              =   -1195.81812184 Ry
     Harris-Foulkes estimate   =   -1195.81812185 Ry
     estimated scf accuracy    <       0.00000003 Ry

     iteration # 15     ecut=   100.00 Ry     beta=0.50
     Davidson diagonalization with overlap
     ethr =  1.05E-11,  avg # of iterations =  3.5

     total cpu time spent up to now is      621.1 secs

     total energy              =   -1195.81812185 Ry
     Harris-Foulkes estimate   =   -1195.81812185 Ry
     estimated scf accuracy    <       0.00000001 Ry

     iteration # 16     ecut=   100.00 Ry     beta=0.50
     Davidson diagonalization with overlap
     ethr =  4.92E-12,  avg # of iterations =  2.0

     total cpu time spent up to now is      650.3 secs

     End of self-consistent calculation

          k = 0.0000 0.0000 0.0000 ( 84007 PWs)   bands (ev):

   -23.1464 -23.1459 -23.0914 -23.0909 -20.7322 -20.7315 -20.7232 -20.7224
   -19.3788 -19.3777 -19.3606 -19.3597 -18.2878 -18.2871 -18.2830 -18.2823
   -16.5603 -16.5429 -16.4917 -16.4766 -16.4542 -16.4532 -16.4198 -16.3833
   -14.6121 -14.5968 -14.5877 -14.5766 -12.5589 -12.5548 -12.5276 -12.5248
   -10.8627 -10.8590 -10.8472 -10.8458 -10.1251 -10.1225 -10.0534 -10.0473
    -8.1845  -8.0654  -8.0652  -7.9215  -7.5492  -7.5354  -7.4959  -7.4945
    -7.3837  -7.3597  -7.3549  -7.3264  -6.8238  -6.8231  -6.8016  -6.7914
    -6.1843  -6.1467  -5.9102  -5.9025  -5.8725  -5.8485  -5.5946  -5.5733
    -5.0430  -5.0379  -4.9084  -4.9001  -4.8058  -4.7916  -4.7879  -4.7876
    -4.4864  -4.4640  -4.2440  -4.2035  -4.1130  -4.0562  -4.0152  -3.9953
    -3.9218  -3.8706  -3.8501  -3.8255  -3.4107  -3.2689  -3.2125  -3.1152
    -3.0500  -3.0467  -3.0126  -2.9147  -2.8587  -2.7894  -2.7317  -2.7025
    -1.7520  -1.7145  -1.6297  -1.6263  -1.5921  -1.5426  -1.4950  -1.4740
    -0.4806  -0.4419  -0.2574  -0.2149  -0.1208   0.0482   0.0600   0.2465
     0.8272   0.8717   0.9835   0.9842   1.0084   1.0322   1.0935   1.1053
     4.2304   4.2335   4.3414   4.3501   5.5692   5.6514   5.6607   5.6959
     5.9964   6.1564   6.1731   6.2523   6.3715   6.3752   6.3753   6.4503
     6.6498   6.7602   7.1090   7.6021   7.6427   7.6840   7.7786   7.8171

          k = 0.0000 0.0000 0.3713 ( 83974 PWs)   bands (ev):

   -23.1361 -23.1356 -23.0971 -23.0967 -20.7313 -20.7309 -20.7224 -20.7219
   -19.3739 -19.3730 -19.3611 -19.3602 -18.2988 -18.2988 -18.2931 -18.2930
   -16.5859 -16.5807 -16.5060 -16.4977 -16.4341 -16.4306 -16.3740 -16.3547
   -14.6072 -14.5962 -14.5896 -14.5816 -12.5588 -12.5564 -12.5247 -12.5234
   -10.8620 -10.8594 -10.8510 -10.8500 -10.1190 -10.1142 -10.0494 -10.0414
    -8.1605  -8.0841  -8.0412  -7.9481  -7.5694  -7.5502  -7.5306  -7.5118
    -7.4190  -7.3853  -7.3673  -7.3453  -6.8351  -6.8013  -6.7914  -6.7634
    -6.1835  -6.1540  -6.0485  -6.0021  -5.8523  -5.8423  -5.6061  -5.5891
    -5.0058  -4.9779  -4.9584  -4.9417  -4.8094  -4.7997  -4.7972  -4.7469
    -4.5456  -4.5237  -4.3047  -4.2963  -4.0138  -3.9917  -3.9590  -3.9362
    -3.8687  -3.8491  -3.8426  -3.8250  -3.2770  -3.1854  -3.1649  -3.0549
    -3.0484  -3.0036  -2.9763  -2.8211  -2.8084  -2.8005  -2.7452  -2.7340
    -1.7241  -1.7167  -1.6800  -1.6636  -1.5453  -1.5081  -1.5033  -1.4950
    -0.4278  -0.3897  -0.2709  -0.2257  -0.1170  -0.0055   0.0279   0.1480
     0.8404   0.8533   0.9861   0.9978   1.0032   1.0034   1.1143   1.1282
     4.2349   4.2563   4.3161   4.3388   5.5263   5.5797   5.6187   5.6379
     5.9792   6.0903   6.1706   6.2614   6.3832   6.4260   6.4893   6.5818
     6.9358   7.2006   7.3237   7.6454   7.8098   7.8506   8.0000   8.0656

          k = 0.0000 0.0000-0.7426 ( 84048 PWs)   bands (ev):

   -23.1143 -23.1143 -23.1139 -23.1139 -20.7304 -20.7304 -20.7215 -20.7215
   -19.3653 -19.3653 -19.3645 -19.3645 -18.3101 -18.3101 -18.3034 -18.3034
   -16.6060 -16.6060 -16.5120 -16.5120 -16.4185 -16.4185 -16.3362 -16.3362
   -14.5969 -14.5969 -14.5911 -14.5911 -12.5583 -12.5583 -12.5218 -12.5218
   -10.8579 -10.8579 -10.8569 -10.8569 -10.1097 -10.1097 -10.0408 -10.0408
    -8.1205  -8.1205  -7.9967  -7.9967  -7.5837  -7.5837  -7.5521  -7.5521
    -7.4056  -7.4056  -7.3813  -7.3813  -6.8101  -6.8101  -6.7602  -6.7602
    -6.1695  -6.1695  -6.1245  -6.1245  -5.8436  -5.8436  -5.6125  -5.6125
    -5.0326  -5.0326  -4.9075  -4.9075  -4.7805  -4.7805  -4.7743  -4.7743
    -4.6237  -4.6237  -4.3204  -4.3204  -3.9397  -3.9397  -3.9390  -3.9390
    -3.8505  -3.8505  -3.7953  -3.7953  -3.1126  -3.1126  -3.1071  -3.1071
    -2.9659  -2.9659  -2.8504  -2.8504  -2.7939  -2.7939  -2.7244  -2.7244
    -1.6999  -1.6999  -1.6822  -1.6822  -1.5257  -1.5257  -1.5003  -1.5003
    -0.3339  -0.3339  -0.2874  -0.2874  -0.0959  -0.0959   0.0166   0.0166
     0.8464   0.8464   0.9874   0.9874   1.0040   1.0040   1.1413   1.1413
     4.2661   4.2661   4.3037   4.3037   5.4986   5.4986   5.5902   5.5902
     5.9830   5.9830   6.2822   6.2822   6.4583   6.4583   6.5727   6.5727
     7.6360   7.6360   7.6811   7.6811   7.9469   7.9469   8.1811   8.1814

          k = 0.3333 0.0000 0.0000 ( 83905 PWs)   bands (ev):

   -23.1460 -23.1456 -23.0913 -23.0911 -20.7306 -20.7297 -20.7260 -20.7251
   -19.3831 -19.3825 -19.3552 -19.3547 -18.2871 -18.2865 -18.2847 -18.2840
   -16.5483 -16.5267 -16.5198 -16.4910 -16.4481 -16.4266 -16.4221 -16.3947
   -14.6091 -14.6017 -14.5820 -14.5762 -12.5542 -12.5468 -12.5385 -12.5320
   -10.8776 -10.8767 -10.8399 -10.8381 -10.1060 -10.1010 -10.0697 -10.0638
    -8.1428  -8.0866  -8.0515  -7.9743  -7.5656  -7.5550  -7.4802  -7.4673
    -7.4333  -7.4184  -7.2727  -7.2547  -6.8353  -6.8108  -6.7853  -6.7835
    -6.1711  -6.1692  -6.0192  -5.9894  -5.7921  -5.7699  -5.6634  -5.6327
    -4.9557  -4.9048  -4.8986  -4.8268  -4.8033  -4.7900  -4.7510  -4.7359
    -4.4792  -4.3852  -4.3548  -4.2692  -4.1881  -4.1757  -4.0977  -4.0695
    -3.8894  -3.8628  -3.8476  -3.8256  -3.4023  -3.2937  -3.2054  -3.1498
    -3.0827  -2.9964  -2.9580  -2.9041  -2.8550  -2.7810  -2.6825  -2.6681
    -1.7442  -1.7324  -1.6638  -1.6615  -1.5660  -1.5580  -1.5176  -1.4820
    -0.3965  -0.3808  -0.2704  -0.2283  -0.0198   0.0396   0.0519   0.1597
     0.8933   0.9488   0.9703   0.9875   1.0101   1.0104   1.0538   1.0857
     4.2301   4.2324   4.3407   4.3447   5.5920   5.6434   5.6482   5.6665
     6.0424   6.1008   6.2035   6.2575   6.3242   6.3741   6.4019   6.4951
     6.7188   7.0407   7.0737   7.4529   7.4694   7.5574   7.6784   7.7885

          k = 0.3333 0.0000 0.3713 ( 83915 PWs)   bands (ev):

   -23.1358 -23.1355 -23.0970 -23.0968 -20.7294 -20.7288 -20.7250 -20.7243
   -19.3773 -19.3768 -19.3576 -19.3571 -18.2979 -18.2971 -18.2946 -18.2946
   -16.5859 -16.5593 -16.5511 -16.5239 -16.4140 -16.3864 -16.3839 -16.3549
   -14.6036 -14.5982 -14.5842 -14.5800 -12.5540 -12.5492 -12.5370 -12.5327
   -10.8746 -10.8740 -10.8480 -10.8467 -10.0999 -10.0931 -10.0647 -10.0574
    -8.1280  -8.0717  -8.0490  -7.9735  -7.5878  -7.5840  -7.5472  -7.5326
    -7.3835  -7.3793  -7.3331  -7.3115  -6.8107  -6.8013  -6.7982  -6.7815
    -6.2078  -6.1793  -6.0339  -6.0255  -5.8431  -5.7566  -5.6923  -5.6467
    -5.0050  -4.9737  -4.9169  -4.8834  -4.8293  -4.8132  -4.7798  -4.7529
    -4.4800  -4.3524  -4.3264  -4.2587  -4.1042  -4.0953  -4.0395  -4.0235
    -3.8626  -3.8580  -3.8306  -3.8184  -3.2692  -3.2064  -3.0827  -3.0779
    -3.0407  -2.9656  -2.9032  -2.8990  -2.8635  -2.7942  -2.7048  -2.6972
    -1.7323  -1.7275  -1.6844  -1.6834  -1.5429  -1.5295  -1.5057  -1.4813
    -0.3673  -0.3498  -0.2805  -0.2343  -0.0461   0.0046   0.0114   0.0890
     0.8613   0.9071   0.9535   0.9750   1.0147   1.0367   1.0744   1.0948
     4.2397   4.2497   4.3195   4.3300   5.5681   5.6187   5.6239   5.6466
     6.0420   6.1103   6.1366   6.2612   6.3192   6.3598   6.4489   6.5116
     7.1259   7.3352   7.3387   7.5276   7.6240   7.6466   7.7802   7.7965

          k = 0.3333 0.0000-0.7426 ( 83966 PWs)   bands (ev):

   -23.1142 -23.1142 -23.1139 -23.1139 -20.7282 -20.7282 -20.7237 -20.7237
   -19.3657 -19.3657 -19.3653 -19.3653 -18.3082 -18.3082 -18.3048 -18.3048
   -16.5980 -16.5980 -16.5589 -16.5589 -16.3736 -16.3736 -16.3404 -16.3404
   -14.5922 -14.5922 -14.5893 -14.5893 -12.5526 -12.5526 -12.5343 -12.5343
   -10.8638 -10.8638 -10.8632 -10.8632 -10.0897 -10.0897 -10.0556 -10.0556
    -8.0855  -8.0855  -8.0227  -8.0227  -7.5884  -7.5884  -7.5722  -7.5722
    -7.3800  -7.3800  -7.3740  -7.3740  -6.8025  -6.8025  -6.7897  -6.7897
    -6.1570  -6.1570  -6.1205  -6.1205  -5.8046  -5.8046  -5.6969  -5.6969
    -4.9923  -4.9923  -4.9444  -4.9444  -4.8541  -4.8541  -4.8334  -4.8334
    -4.3870  -4.3870  -4.2595  -4.2595  -4.0162  -4.0162  -4.0025  -4.0025
    -3.8447  -3.8447  -3.8125  -3.8125  -3.0897  -3.0897  -3.0829  -3.0829
    -2.9309  -2.9309  -2.8756  -2.8756  -2.7889  -2.7889  -2.7479  -2.7479
    -1.7114  -1.7114  -1.7037  -1.7037  -1.5046  -1.5046  -1.4948  -1.4948
    -0.3088  -0.3088  -0.2744  -0.2744  -0.0644  -0.0644  -0.0179  -0.0179
     0.8672   0.8672   0.9447   0.9447   1.0331   1.0331   1.0941   1.0941
     4.2751   4.2751   4.2932   4.2932   5.5601   5.5601   5.6132   5.6132
     6.0574   6.0574   6.2114   6.2114   6.4096   6.4096   6.4642   6.4642
     7.5509   7.5509   7.5726   7.5726   7.9767   7.9767   8.0876   8.0876

     highest occupied, lowest unoccupied level (ev):     1.1413    4.2301

!    total energy              =   -1195.81812185 Ry
     Harris-Foulkes estimate   =   -1195.81812185 Ry
     estimated scf accuracy    <          2.0E-09 Ry

     total all-electron energy =     -4584.687652 Ry

     The total energy is the sum of the following terms:

     one-electron contribution =    -678.89017973 Ry
     hartree contribution      =     425.99175137 Ry
     xc contribution           =    -247.79617850 Ry
     ewald contribution        =    -343.57176617 Ry
     Dispersion Correction     =      -0.30727947 Ry
     one-center paw contrib.   =    -351.24446935 Ry

     convergence has been achieved in  16 iterations

     Forces acting on atoms (cartesian axes, Ry/au):

     atom    1 type  3   force =    -0.00026535   -0.00008752   -0.00064512
     atom    2 type  3   force =     0.00026535    0.00008752   -0.00064512
     atom    3 type  3   force =    -0.00032861   -0.00002167   -0.00052506
     atom    4 type  3   force =     0.00032861    0.00002167   -0.00052506
     atom    5 type  3   force =    -0.00037686   -0.00049320    0.00107714
     atom    6 type  3   force =     0.00037686    0.00049320    0.00107714
     atom    7 type  3   force =    -0.00047920    0.00063096    0.00134186
     atom    8 type  3   force =     0.00047920   -0.00063096    0.00134186
     atom    9 type  3   force =    -0.00141127    0.00005520   -0.00064191
     atom   10 type  3   force =     0.00141127   -0.00005520   -0.00064191
     atom   11 type  3   force =    -0.00148918   -0.00012437   -0.00063999
     atom   12 type  3   force =     0.00148918    0.00012437   -0.00063999
     atom   13 type  3   force =     0.00020172   -0.00005116    0.00065927
     atom   14 type  3   force =    -0.00020172    0.00005116    0.00065927
     atom   15 type  3   force =     0.00018378    0.00044623    0.00069677
     atom   16 type  3   force =    -0.00018378   -0.00044623    0.00069677
     atom   17 type  2   force =    -0.00051772    0.00046835   -0.00116749
     atom   18 type  2   force =     0.00051772   -0.00046835   -0.00116749
     atom   19 type  2   force =    -0.00064489   -0.00067054   -0.00149659
     atom   20 type  2   force =     0.00064489    0.00067054   -0.00149659
     atom   21 type  2   force =    -0.00252631   -0.00250830    0.00128166
     atom   22 type  2   force =     0.00252631    0.00250830    0.00128166
     atom   23 type  2   force =    -0.00235959    0.00265985    0.00117070
     atom   24 type  2   force =     0.00235959   -0.00265985    0.00117070
     atom   25 type  2   force =    -0.00262889   -0.00398348   -0.00043962
     atom   26 type  2   force =     0.00262889    0.00398348   -0.00043962
     atom   27 type  2   force =    -0.00246338    0.00339604   -0.00083408
     atom   28 type  2   force =     0.00246338   -0.00339604   -0.00083408
     atom   29 type  2   force =    -0.00615838   -0.00562497    0.00610907
     atom   30 type  2   force =     0.00615838    0.00562497    0.00610907
     atom   31 type  2   force =    -0.00626026    0.00555527    0.00627034
     atom   32 type  2   force =     0.00626026   -0.00555527    0.00627034
     atom   33 type  2   force =     0.00525534   -0.00267503    0.00028135
     atom   34 type  2   force =    -0.00525534    0.00267503    0.00028135
     atom   35 type  2   force =     0.00514651    0.00248348    0.00041587
     atom   36 type  2   force =    -0.00514651   -0.00248348    0.00041587
     atom   37 type  2   force =     0.00362411    0.00233817    0.00172774
     atom   38 type  2   force =    -0.00362411   -0.00233817    0.00172774
     atom   39 type  2   force =     0.00366665   -0.00217092    0.00192555
     atom   40 type  2   force =    -0.00366665    0.00217092    0.00192555
     atom   41 type  2   force =     0.00732456    0.00519537    0.00055768
     atom   42 type  2   force =    -0.00732456   -0.00519537    0.00055768
     atom   43 type  2   force =     0.00738724   -0.00511290    0.00049012
     atom   44 type  2   force =    -0.00738724    0.00511290    0.00049012
     atom   45 type  2   force =    -0.00041317    0.00173864   -0.00156445
     atom   46 type  2   force =     0.00041317   -0.00173864   -0.00156445
     atom   47 type  2   force =    -0.00033364   -0.00165292   -0.00143430
     atom   48 type  2   force =     0.00033364    0.00165292   -0.00143430
     atom   49 type  2   force =     0.00139229    0.00166896   -0.00080758
     atom   50 type  2   force =    -0.00139229   -0.00166896   -0.00080758
     atom   51 type  2   force =     0.00133496   -0.00165500   -0.00084006
     atom   52 type  2   force =    -0.00133496    0.00165500   -0.00084006
     atom   53 type  1   force =    -0.00262341    0.00038358   -0.00677715
     atom   54 type  1   force =     0.00262341   -0.00038358   -0.00677715
     atom   55 type  1   force =    -0.00256937   -0.00029041   -0.00685652
     atom   56 type  1   force =     0.00256937    0.00029041   -0.00685652
     atom   57 type  1   force =    -0.00127061   -0.00062197   -0.00083466
     atom   58 type  1   force =     0.00127061    0.00062197   -0.00083466
     atom   59 type  1   force =    -0.00155422    0.00082454   -0.00101676
     atom   60 type  1   force =     0.00155422   -0.00082454   -0.00101676
     atom   61 type  3   force =     0.00129126   -0.00013343    0.00118120
     atom   62 type  3   force =    -0.00129126    0.00013343    0.00118120
     atom   63 type  3   force =     0.00141125    0.00005633    0.00120014
     atom   64 type  3   force =    -0.00141125   -0.00005633    0.00120014
     atom   65 type  3   force =     0.00086032    0.00015598   -0.00037465
     atom   66 type  3   force =    -0.00086032   -0.00015598   -0.00037465
     atom   67 type  3   force =     0.00087040   -0.00021533   -0.00040531
     atom   68 type  3   force =    -0.00087040    0.00021533   -0.00040531
     atom   69 type  3   force =    -0.00040414    0.00075345    0.00038311
     atom   70 type  3   force =     0.00040414   -0.00075345    0.00038311
     atom   71 type  3   force =    -0.00035460   -0.00077101    0.00053175
     atom   72 type  3   force =     0.00035460    0.00077101    0.00053175

     Total force =     0.037943     Total SCF correction =     0.000087


     Computing stress (Cartesian axis) and pressure

          total   stress  (Ry/bohr**3)                   (kbar)     P=   -5.11
  -0.00002198   0.00000010   0.00000000         -3.23      0.01      0.00
   0.00000010  -0.00005226   0.00000000          0.01     -7.69      0.00
   0.00000000   0.00000000  -0.00002994          0.00      0.00     -4.40


     Writing output data file scf.save
 
     init_run     :     19.81s CPU     20.72s WALL (       1 calls)
     electrons    :    603.05s CPU    629.03s WALL (       1 calls)
     forces       :      9.84s CPU      9.96s WALL (       1 calls)
     stress       :     36.59s CPU     36.76s WALL (       1 calls)

     Called by init_run:
     wfcinit      :     15.08s CPU     15.88s WALL (       1 calls)
     potinit      :      1.70s CPU      1.71s WALL (       1 calls)

     Called by electrons:
     c_bands      :    532.87s CPU    554.50s WALL (      16 calls)
     sum_band     :     60.51s CPU     63.93s WALL (      16 calls)
     v_of_rho     :      1.51s CPU      1.64s WALL (      17 calls)
     newd         :      2.92s CPU      3.72s WALL (      17 calls)
     PAW_pot      :      4.79s CPU      4.80s WALL (      17 calls)
     mix_rho      :      0.40s CPU      0.42s WALL (      16 calls)

     Called by c_bands:
     init_us_2    :      3.42s CPU      3.44s WALL (     210 calls)
     cegterg      :    518.20s CPU    539.75s WALL (      96 calls)

     Called by sum_band:
     sum_band:bec :      0.04s CPU      0.04s WALL (      96 calls)
     addusdens    :      3.10s CPU      3.84s WALL (      16 calls)

     Called by *egterg:
     h_psi        :    291.87s CPU    307.88s WALL (     491 calls)
     s_psi        :     56.35s CPU     56.35s WALL (     491 calls)
     g_psi        :      1.50s CPU      1.50s WALL (     389 calls)
     cdiaghg      :     30.69s CPU     30.83s WALL (     485 calls)

     Called by h_psi:
     h_psi:pot    :    289.81s CPU    305.76s WALL (     491 calls)
     h_psi:calbec :     59.56s CPU     59.81s WALL (     491 calls)
     vloc_psi     :    174.05s CPU    189.73s WALL (     491 calls)
     add_vuspsi   :     56.19s CPU     56.21s WALL (     491 calls)

     General routines
     calbec       :     89.88s CPU     90.18s WALL (     617 calls)
     fft          :      2.05s CPU      2.25s WALL (     245 calls)
     fftw         :    190.42s CPU    208.05s WALL (   88836 calls)
 
     Parallel routines
     fft_scatter  :     55.68s CPU     69.46s WALL (   89081 calls)
 
     PWSCF        : 11m14.59s CPU    12m 8.66s WALL

 
   This run was terminated on:  11:26:50   7Dec2017            

=------------------------------------------------------------------------------=
   JOB DONE.
=------------------------------------------------------------------------------=
