
     Program PWSCF v.6.1 (svn rev. 13369) starts on  4Nov2017 at  5: 5: 5 

     This program is part of the open-source Quantum ESPRESSO suite
     for quantum simulation of materials; please cite
         "P. Giannozzi et al., J. Phys.:Condens. Matter 21 395502 (2009);
          URL http://www.quantum-espresso.org", 
     in publications or presentations arising from this work. More details at
     http://www.quantum-espresso.org/quote

     Parallel version (MPI), running on     8 processors
     R & G space division:  proc/nbgrp/npool/nimage =       8
     Waiting for input...
     Reading input from standard input

     Current dimensions of program PWSCF are:
     Max number of different atomic species (ntypx) = 10
     Max number of k-points (npk) =  40000
     Max angular momentum in pseudopotentials (lmaxx) =  3
               file C.pbe-n-kjpaw_psl.0.1.UPF: wavefunction(s)  2P renormalized
               file N.pbe-n-kjpaw_psl.0.1.UPF: wavefunction(s)  2P renormalized
               file H.pbe-kjpaw_psl.0.1.UPF: wavefunction(s)  1S renormalized
               file O.pbe-n-kjpaw_psl.0.1.UPF: wavefunction(s)  2P renormalized

     -------------------------------------
     Parameters for Dispersion Correction:
     -------------------------------------
       atom      VdW radius       C_6     

        C          2.744         60.710
        N          2.640         42.670
        H          1.892          4.857
        O          2.536         24.284

     Subspace diagonalization in iterative solution of the eigenvalue problem:
     a serial algorithm will be used

 
     Parallelization info
     --------------------
     sticks:   dense  smooth     PW     G-vecs:    dense   smooth      PW
     Min         392     392    107                55208    55208    7867
     Max         393     393    108                55221    55221    7880
     Sum        3141    3141    861               441699   441699   62981
 


     bravais-lattice index     =            0
     lattice parameter (alat)  =       9.8965  a.u.
     unit-cell volume          =    3269.5243 (a.u.)^3
     number of atoms/cell      =           52
     number of atomic types    =            4
     number of electrons       =       168.00
     number of Kohn-Sham states=          100
     kinetic-energy cutoff     =     100.0000  Ry
     charge density cutoff     =     400.0000  Ry
     convergence threshold     =      1.0E-08
     mixing beta               =       0.5000
     number of iterations used =            8  plain     mixing
     Exchange-correlation      =  SLA  PW   PBX  PBC ( 1  4  3  4 0 0)

     celldm(1)=   9.896496  celldm(2)=   0.000000  celldm(3)=   0.000000
     celldm(4)=   0.000000  celldm(5)=   0.000000  celldm(6)=   0.000000

     crystal axes: (cart. coord. in units of alat)
               a(1) = (   1.000000   0.000000   0.000000 )  
               a(2) = (   0.000000   1.009738   0.000000 )  
               a(3) = (   0.000000   0.000000   3.340653 )  

     reciprocal axes: (cart. coord. in units 2 pi/alat)
               b(1) = (  1.000000  0.000000  0.000000 )  
               b(2) = (  0.000000  0.990356  0.000000 )  
               b(3) = (  0.000000  0.000000  0.299343 )  


     PseudoPot. # 1 for  C read from file:
     /scratch/ahofstet/pseudo/C.pbe-n-kjpaw_psl.0.1.UPF
     MD5 check sum: 430fe95172b1e11ef3f8ed03bac87931
     Pseudo is Projector augmented-wave + core cor, Zval =  4.0
     Generated using "atomic" code by A. Dal Corso  v.5.0.99 svn rev. 10869
     Shape of augmentation charge: BESSEL
     Using radial grid of 1073 points,  4 beta functions with: 
                l(1) =   0
                l(2) =   0
                l(3) =   1
                l(4) =   1
     Q(r) pseudized with 0 coefficients 


     PseudoPot. # 2 for  N read from file:
     /scratch/ahofstet/pseudo/N.pbe-n-kjpaw_psl.0.1.UPF
     MD5 check sum: f73187c8b701007e77325f868c9291d7
     Pseudo is Projector augmented-wave + core cor, Zval =  5.0
     Generated using "atomic" code by A. Dal Corso  v.5.0.99 svn rev. 10869
     Shape of augmentation charge: PSQ
     Using radial grid of 1085 points,  4 beta functions with: 
                l(1) =   0
                l(2) =   0
                l(3) =   1
                l(4) =   1
     Q(r) pseudized with 0 coefficients 


     PseudoPot. # 3 for  H read from file:
     /scratch/ahofstet/pseudo/H.pbe-kjpaw_psl.0.1.UPF
     MD5 check sum: 94e484f906d9e9773b2f6e52662335b2
     Pseudo is Projector augmented-wave, Zval =  1.0
     Generated using "atomic" code by A. Dal Corso  v.5.0.99 svn rev. 10869
     Shape of augmentation charge: PSQ
     Using radial grid of  929 points,  2 beta functions with: 
                l(1) =   0
                l(2) =   0
     Q(r) pseudized with 0 coefficients 


     PseudoPot. # 4 for  O read from file:
     /scratch/ahofstet/pseudo/O.pbe-n-kjpaw_psl.0.1.UPF
     MD5 check sum: 3f94a2996a3169367d6eb21d9b593f20
     Pseudo is Projector augmented-wave + core cor, Zval =  6.0
     Generated using "atomic" code by A. Dal Corso  v.5.0.99 svn rev. 10869
     Shape of augmentation charge: BESSEL
     Using radial grid of 1095 points,  4 beta functions with: 
                l(1) =   0
                l(2) =   0
                l(3) =   1
                l(4) =   1
     Q(r) pseudized with 0 coefficients 


     atomic species   valence    mass     pseudopotential
        C              4.00    12.01070      C( 1.00)
        N              5.00    14.00670      N( 1.00)
        H              1.00     1.00794      H( 1.00)
        O              6.00    15.99940      O( 1.00)

      4 Sym. Ops. (no inversion) found ( 3 have fractional translation)



   Cartesian axes

     site n.     atom                  positions (alat units)
         1           O   tau(   1) = (   0.5340055   0.4920906   0.0554101  )
         2           O   tau(   2) = (   0.0340055   0.0127786   3.2852429  )
         3           O   tau(   3) = (   0.4659945   0.9969598   1.6149164  )
         4           O   tau(   4) = (   0.9659945   0.5176478   1.7257367  )
         5           N   tau(   5) = (   0.7728326   0.0572269   0.7331657  )
         6           N   tau(   6) = (   0.2728326   0.4476423   2.6074874  )
         7           N   tau(   7) = (   0.2271674   0.5620961   0.9371608  )
         8           N   tau(   8) = (   0.7271674   0.9525115   2.4034922  )
         9           N   tau(   9) = (   0.9062073   0.8628856   0.6489267  )
        10           N   tau(  10) = (   0.4062073   0.6517220   2.6917264  )
        11           N   tau(  11) = (   0.0937927   0.3580164   1.0213999  )
        12           N   tau(  12) = (   0.5937927   0.1468528   2.3192532  )
        13           N   tau(  13) = (   0.7663920   0.4027534   0.1464130  )
        14           N   tau(  14) = (   0.2663920   0.1021158   3.1942400  )
        15           N   tau(  15) = (   0.2336080   0.9076226   1.5239135  )
        16           N   tau(  16) = (   0.7336080   0.6069850   1.8167395  )
        17           C   tau(  17) = (   0.7666092   0.7667133   0.4506377  )
        18           C   tau(  18) = (   0.2666092   0.7478943   2.8900153  )
        19           C   tau(  19) = (   0.2333908   0.2618441   1.2196888  )
        20           C   tau(  20) = (   0.7333908   0.2430251   2.1209643  )
        21           C   tau(  21) = (   0.5458852   0.9173138   0.4100033  )
        22           C   tau(  22) = (   0.0458852   0.5972938   2.9306497  )
        23           C   tau(  23) = (   0.4541148   0.4124446   1.2603232  )
        24           C   tau(  24) = (   0.9541148   0.0924246   2.0803298  )
        25           C   tau(  25) = (   0.5565723   0.0947415   0.5967597  )
        26           C   tau(  26) = (   0.0565723   0.4101277   2.7438934  )
        27           C   tau(  27) = (   0.4434277   0.5996107   1.0735669  )
        28           C   tau(  28) = (   0.9434277   0.9149969   2.2670862  )
        29           C   tau(  29) = (   0.8650558   0.5408466   0.3266089  )
        30           C   tau(  30) = (   0.3650558   0.9737610   3.0140442  )
        31           C   tau(  31) = (   0.1349442   0.0359774   1.3437177  )
        32           C   tau(  32) = (   0.6349442   0.4688918   1.9969354  )
        33           H   tau(  33) = (   0.8674511   0.1845270   0.8593142  )
        34           H   tau(  34) = (   0.3674511   0.3203422   2.4813389  )
        35           H   tau(  35) = (   0.1325489   0.6893962   0.8110124  )
        36           H   tau(  36) = (   0.6325489   0.8252114   2.5296407  )
        37           H   tau(  37) = (   0.3989163   0.8901559   0.2680519  )
        38           H   tau(  38) = (   0.8989163   0.6244517   3.0726011  )
        39           H   tau(  39) = (   0.6010837   0.3852867   1.4022746  )
        40           H   tau(  40) = (   0.1010837   0.1195825   1.9383785  )
        41           H   tau(  41) = (   0.4323832   0.2567208   0.6334762  )
        42           H   tau(  42) = (   0.9323832   0.2481484   2.7071769  )
        43           H   tau(  43) = (   0.5676168   0.7615900   1.0368503  )
        44           H   tau(  44) = (   0.0676168   0.7530176   2.3038027  )
        45           H   tau(  45) = (   0.0499664   0.4714312   0.3932245  )
        46           H   tau(  46) = (   0.5499664   1.0431764   2.9474286  )
        47           H   tau(  47) = (   0.9500336  -0.0334380   1.2771020  )
        48           H   tau(  48) = (   0.4500336   0.5383072   2.0635510  )
        49           H   tau(  49) = (   0.4436783   0.3387927  -0.0252287  )
        50           H   tau(  50) = (   0.9436783   0.1660765   3.3658818  )
        51           H   tau(  51) = (   0.5563217   0.8436619   1.6955553  )
        52           H   tau(  52) = (   0.0563217   0.6709457   1.6450978  )

     number of k points=     9
                       cart. coord. in units 2pi/alat
        k(    1) = (   0.0000000   0.0000000   0.0000000), wk =   0.1250000
        k(    2) = (   0.0000000   0.2475889   0.0000000), wk =   0.2500000
        k(    3) = (   0.0000000  -0.4951778   0.0000000), wk =   0.1250000
        k(    4) = (   0.2500000   0.0000000   0.0000000), wk =   0.2500000
        k(    5) = (   0.2500000   0.2475889   0.0000000), wk =   0.5000000
        k(    6) = (   0.2500000  -0.4951778   0.0000000), wk =   0.2500000
        k(    7) = (  -0.5000000   0.0000000   0.0000000), wk =   0.1250000
        k(    8) = (  -0.5000000   0.2475889   0.0000000), wk =   0.2500000
        k(    9) = (  -0.5000000  -0.4951778   0.0000000), wk =   0.1250000

     Dense  grid:   441699 G-vectors     FFT dimensions: (  64,  64, 216)

     Estimated max dynamical RAM per process >     258.28MB

     Estimated total allocated dynamical RAM >    2066.25MB

     Check: negative/imaginary core charge=   -0.000002    0.000000

     Initial potential from superposition of free atoms

     starting charge  167.99905, renormalised to  168.00000
     Starting wfc are  148 randomized atomic wfcs
     Checking if some PAW data can be deallocated... 

     total cpu time spent up to now is       12.4 secs

     per-process dynamical memory:   226.9 Mb

     Self-consistent Calculation

     iteration #  1     ecut=   100.00 Ry     beta=0.50
     Davidson diagonalization with overlap
     ethr =  1.00E-02,  avg # of iterations =  3.4

     total cpu time spent up to now is       41.7 secs

     total energy              =    -822.92068266 Ry
     Harris-Foulkes estimate   =    -825.16851369 Ry
     estimated scf accuracy    <       4.41783581 Ry

     iteration #  2     ecut=   100.00 Ry     beta=0.50
     Davidson diagonalization with overlap
     ethr =  2.63E-03,  avg # of iterations =  2.6

     total cpu time spent up to now is       57.7 secs

     total energy              =    -823.13227247 Ry
     Harris-Foulkes estimate   =    -823.38820616 Ry
     estimated scf accuracy    <       0.55420903 Ry

     iteration #  3     ecut=   100.00 Ry     beta=0.50
     Davidson diagonalization with overlap
     ethr =  3.30E-04,  avg # of iterations =  5.6

     total cpu time spent up to now is       91.4 secs

     total energy              =    -823.52050134 Ry
     Harris-Foulkes estimate   =    -823.68836518 Ry
     estimated scf accuracy    <       0.42787195 Ry

     iteration #  4     ecut=   100.00 Ry     beta=0.50
     Davidson diagonalization with overlap
     ethr =  2.55E-04,  avg # of iterations =  1.6

     total cpu time spent up to now is      106.3 secs

     total energy              =    -823.48994256 Ry
     Harris-Foulkes estimate   =    -823.55402074 Ry
     estimated scf accuracy    <       0.10907606 Ry

     iteration #  5     ecut=   100.00 Ry     beta=0.50
     Davidson diagonalization with overlap
     ethr =  6.49E-05,  avg # of iterations =  7.3

     total cpu time spent up to now is      138.9 secs

     total energy              =    -823.55766368 Ry
     Harris-Foulkes estimate   =    -823.58180810 Ry
     estimated scf accuracy    <       0.08064366 Ry

     iteration #  6     ecut=   100.00 Ry     beta=0.50
     Davidson diagonalization with overlap
     ethr =  4.80E-05,  avg # of iterations =  1.0

     total cpu time spent up to now is      153.5 secs

     total energy              =    -823.54749360 Ry
     Harris-Foulkes estimate   =    -823.56308643 Ry
     estimated scf accuracy    <       0.03086825 Ry

     iteration #  7     ecut=   100.00 Ry     beta=0.50
     Davidson diagonalization with overlap
     ethr =  1.84E-05,  avg # of iterations =  4.9

     total cpu time spent up to now is      178.5 secs

     total energy              =    -823.55736112 Ry
     Harris-Foulkes estimate   =    -823.55787144 Ry
     estimated scf accuracy    <       0.00115737 Ry

     iteration #  8     ecut=   100.00 Ry     beta=0.50
     Davidson diagonalization with overlap
     ethr =  6.89E-07,  avg # of iterations =  6.9

     total cpu time spent up to now is      206.4 secs

     total energy              =    -823.55773128 Ry
     Harris-Foulkes estimate   =    -823.55784858 Ry
     estimated scf accuracy    <       0.00030046 Ry

     iteration #  9     ecut=   100.00 Ry     beta=0.50
     Davidson diagonalization with overlap
     ethr =  1.79E-07,  avg # of iterations =  2.1

     total cpu time spent up to now is      221.9 secs

     total energy              =    -823.55776405 Ry
     Harris-Foulkes estimate   =    -823.55777543 Ry
     estimated scf accuracy    <       0.00004388 Ry

     iteration # 10     ecut=   100.00 Ry     beta=0.50
     Davidson diagonalization with overlap
     ethr =  2.61E-08,  avg # of iterations =  4.0

     total cpu time spent up to now is      249.0 secs

     total energy              =    -823.55779138 Ry
     Harris-Foulkes estimate   =    -823.55779565 Ry
     estimated scf accuracy    <       0.00001079 Ry

     iteration # 11     ecut=   100.00 Ry     beta=0.50
     Davidson diagonalization with overlap
     ethr =  6.42E-09,  avg # of iterations =  1.8

     total cpu time spent up to now is      264.0 secs

     total energy              =    -823.55779172 Ry
     Harris-Foulkes estimate   =    -823.55779262 Ry
     estimated scf accuracy    <       0.00000190 Ry

     iteration # 12     ecut=   100.00 Ry     beta=0.50
     Davidson diagonalization with overlap
     ethr =  1.13E-09,  avg # of iterations =  4.0

     total cpu time spent up to now is      291.3 secs

     total energy              =    -823.55779295 Ry
     Harris-Foulkes estimate   =    -823.55779336 Ry
     estimated scf accuracy    <       0.00000105 Ry

     iteration # 13     ecut=   100.00 Ry     beta=0.50
     Davidson diagonalization with overlap
     ethr =  6.27E-10,  avg # of iterations =  1.0

     total cpu time spent up to now is      305.9 secs

     total energy              =    -823.55779291 Ry
     Harris-Foulkes estimate   =    -823.55779302 Ry
     estimated scf accuracy    <       0.00000019 Ry

     iteration # 14     ecut=   100.00 Ry     beta=0.50
     Davidson diagonalization with overlap
     ethr =  1.10E-10,  avg # of iterations =  4.0

     total cpu time spent up to now is      334.4 secs

     total energy              =    -823.55779308 Ry
     Harris-Foulkes estimate   =    -823.55779316 Ry
     estimated scf accuracy    <       0.00000025 Ry

     iteration # 15     ecut=   100.00 Ry     beta=0.50
     Davidson diagonalization with overlap
     ethr =  1.10E-10,  avg # of iterations =  1.0

     total cpu time spent up to now is      349.0 secs

     total energy              =    -823.55779303 Ry
     Harris-Foulkes estimate   =    -823.55779308 Ry
     estimated scf accuracy    <       0.00000009 Ry

     iteration # 16     ecut=   100.00 Ry     beta=0.50
     Davidson diagonalization with overlap
     ethr =  5.61E-11,  avg # of iterations =  3.2

     total cpu time spent up to now is      375.1 secs

     total energy              =    -823.55779307 Ry
     Harris-Foulkes estimate   =    -823.55779308 Ry
     estimated scf accuracy    <       0.00000003 Ry

     iteration # 17     ecut=   100.00 Ry     beta=0.50
     Davidson diagonalization with overlap
     ethr =  1.56E-11,  avg # of iterations =  1.0

     total cpu time spent up to now is      389.8 secs

     End of self-consistent calculation

          k = 0.0000 0.0000 0.0000 ( 55245 PWs)   bands (ev):

   -20.1102 -20.1079 -19.8384 -19.8340 -19.5095 -19.5084 -19.3175 -19.3165
   -14.7714 -14.7415 -14.4253 -14.3631 -13.5607 -13.4465 -13.2858 -13.2045
   -12.5511 -12.5283 -12.3771 -12.3540  -9.4634  -9.4408  -9.2900  -9.2732
    -8.2252  -8.1922  -8.0307  -8.0209  -7.4719  -7.4464  -7.2481  -7.1434
    -6.9590  -6.9288  -6.4166  -6.3202  -5.6145  -5.6078  -4.9736  -4.9405
    -4.5529  -4.4579  -4.4152  -4.3701  -4.2108  -4.1004  -3.9919  -3.9849
    -3.9568  -3.8411  -3.6305  -3.6049  -3.5600  -3.5429  -3.5333  -3.5099
    -2.9844  -2.9417  -2.9146  -2.8619  -2.5959  -2.5841  -2.5303  -2.4506
    -1.0064  -0.9873  -0.9036  -0.8692  -0.4390  -0.3603  -0.3426  -0.2741
    -0.2292  -0.1912   0.2078   0.3079   0.4793   0.6065   0.9759   1.0513
     1.1356   1.2013   1.2235   1.3404   4.8728   4.9563   5.0876   5.2986
     6.0544   6.1263   6.3651   6.3668   7.2526   7.4530   7.8010   8.1150
     8.2157   8.3003   8.3479   8.3778

          k = 0.0000 0.2476 0.0000 ( 55210 PWs)   bands (ev):

   -20.0954 -20.0942 -19.8454 -19.8430 -19.4834 -19.4787 -19.3462 -19.3426
   -14.7646 -14.7368 -14.4701 -14.4192 -13.5266 -13.3865 -13.3462 -13.2305
   -12.5230 -12.5050 -12.4034 -12.3920  -9.4286  -9.4266  -9.2111  -9.1999
    -8.2310  -8.1805  -8.1198  -8.0652  -7.4488  -7.4390  -7.1914  -7.1720
    -6.9110  -6.8003  -6.5544  -6.4480  -5.6102  -5.5768  -4.9215  -4.9017
    -4.6331  -4.5896  -4.4521  -4.4057  -4.3144  -4.2217  -4.1629  -4.0996
    -3.9301  -3.8965  -3.8214  -3.7783  -3.5226  -3.5211  -3.2040  -3.1957
    -3.0110  -2.9119  -2.9000  -2.7580  -2.5452  -2.4719  -2.4506  -2.3482
    -0.8641  -0.8573  -0.8053  -0.7666  -0.4373  -0.3968  -0.3197  -0.2998
    -0.1828  -0.1248   0.2505   0.3780   0.4038   0.5350   0.9694   1.0391
     1.0597   1.1481   1.2307   1.3718   4.6682   4.7388   4.9391   5.0689
     6.1232   6.1662   6.3801   6.4040   7.3362   7.5214   7.8598   8.1058
     8.3486   8.3765   8.4808   8.5627

          k = 0.0000-0.4952 0.0000 ( 55212 PWs)   bands (ev):

   -20.0792 -20.0792 -19.8539 -19.8539 -19.4143 -19.4143 -19.4104 -19.4104
   -14.7414 -14.7414 -14.4968 -14.4968 -13.4459 -13.4459 -13.2939 -13.2939
   -12.4670 -12.4670 -12.4538 -12.4538  -9.3995  -9.3995  -9.1312  -9.1312
    -8.2166  -8.2166  -8.1400  -8.1400  -7.4264  -7.4264  -7.1570  -7.1570
    -6.7664  -6.7664  -6.6435  -6.6435  -5.5924  -5.5924  -4.8844  -4.8844
    -4.6862  -4.6862  -4.5584  -4.5584  -4.2780  -4.2780  -4.1659  -4.1659
    -3.9776  -3.9776  -3.8660  -3.8660  -3.4871  -3.4871  -3.0599  -3.0599
    -2.8994  -2.8994  -2.8479  -2.8479  -2.4258  -2.4258  -2.3289  -2.3289
    -0.6705  -0.6705  -0.6033  -0.6033  -0.5259  -0.5259  -0.4134  -0.4134
     0.0020   0.0020   0.3454   0.3454   0.4413   0.4413   0.9833   0.9833
     1.0925   1.0925   1.2514   1.2514   4.4979   4.4979   4.7861   4.7861
     6.3157   6.3157   6.3540   6.3540   7.6472   7.6472   7.9405   7.9405
     8.2424   8.2424   8.6559   8.6560

          k = 0.2500 0.0000 0.0000 ( 55138 PWs)   bands (ev):

   -20.0697 -20.0677 -19.8769 -19.8739 -19.4917 -19.4912 -19.3299 -19.3293
   -14.7260 -14.6938 -14.4792 -14.4251 -13.5600 -13.4825 -13.2689 -13.2120
   -12.5820 -12.5679 -12.3846 -12.3670  -9.4399  -9.4089  -9.3219  -9.2949
    -8.2451  -8.2271  -8.0300  -8.0235  -7.3627  -7.3333  -7.1931  -7.1152
    -6.8896  -6.8670  -6.3458  -6.2845  -5.5318  -5.5065  -5.1411  -5.0245
    -4.6363  -4.6004  -4.5671  -4.4360  -4.2393  -4.1049  -4.0446  -4.0073
    -3.9887  -3.8585  -3.7031  -3.6338  -3.5774  -3.5383  -3.4714  -3.4532
    -3.0298  -2.9785  -2.9133  -2.8904  -2.5261  -2.5087  -2.4556  -2.4317
    -1.0437  -0.9622  -0.8324  -0.7551  -0.5411  -0.3858  -0.3171  -0.3146
    -0.1907  -0.1196   0.3455   0.4934   0.5205   0.7090   0.8661   0.9390
     1.2047   1.2595   1.3201   1.3982   4.8563   4.9572   5.0311   5.1780
     6.1270   6.1832   6.4013   6.4210   7.4165   7.5147   7.7889   8.0338
     8.1698   8.1881   8.3277   8.3462

          k = 0.2500 0.2476 0.0000 ( 55204 PWs)   bands (ev):

   -20.0578 -20.0568 -19.8806 -19.8790 -19.4691 -19.4660 -19.3536 -19.3511
   -14.7270 -14.6980 -14.5168 -14.4717 -13.5213 -13.4262 -13.3314 -13.2520
   -12.5467 -12.5352 -12.4138 -12.4056  -9.4009  -9.3894  -9.2515  -9.2371
    -8.2559  -8.2231  -8.1137  -8.0792  -7.3478  -7.3335  -7.1671  -7.1231
    -6.8228  -6.7655  -6.4594  -6.3819  -5.5443  -5.4868  -5.0693  -5.0100
    -4.6884  -4.6339  -4.5202  -4.4163  -4.3675  -4.2873  -4.2159  -4.1124
    -3.9469  -3.9390  -3.8002  -3.6788  -3.5329  -3.4778  -3.3755  -3.2214
    -3.0081  -2.9700  -2.8919  -2.7928  -2.5480  -2.4712  -2.3792  -2.3277
    -0.8976  -0.8693  -0.7008  -0.6663  -0.4594  -0.4208  -0.3832  -0.3449
    -0.1073  -0.0500   0.3846   0.4533   0.5695   0.6685   0.8899   0.9418
     1.0978   1.2503   1.2730   1.3911   4.6739   4.7469   4.8760   4.9695
     6.1646   6.1956   6.3898   6.4115   7.5075   7.5680   7.9184   8.1200
     8.1305   8.2364   8.3273   8.4078

          k = 0.2500-0.4952 0.0000 ( 55262 PWs)   bands (ev):

   -20.0449 -20.0449 -19.8853 -19.8853 -19.4106 -19.4106 -19.4080 -19.4080
   -14.7127 -14.7127 -14.5375 -14.5375 -13.4346 -13.4346 -13.3311 -13.3311
   -12.4833 -12.4833 -12.4713 -12.4713  -9.3628  -9.3628  -9.1830  -9.1830
    -8.2278  -8.2278  -8.1749  -8.1749  -7.3233  -7.3233  -7.1450  -7.1450
    -6.6725  -6.6725  -6.5672  -6.5672  -5.5253  -5.5253  -5.0090  -5.0090
    -4.6752  -4.6752  -4.5021  -4.5021  -4.4082  -4.4082  -4.2074  -4.2074
    -4.0013  -4.0013  -3.8010  -3.8010  -3.4294  -3.4294  -3.2109  -3.2109
    -2.9585  -2.9585  -2.8543  -2.8543  -2.4036  -2.4036  -2.3532  -2.3532
    -0.6696  -0.6696  -0.6426  -0.6426  -0.4778  -0.4778  -0.3809  -0.3809
     0.0483   0.0483   0.4533   0.4533   0.6112   0.6112   0.9332   0.9332
     1.1047   1.1047   1.2784   1.2784   4.5093   4.5093   4.7135   4.7135
     6.3144   6.3144   6.3448   6.3448   7.6688   7.6688   8.0300   8.0300
     8.1477   8.1477   8.4695   8.4695

          k =-0.5000 0.0000 0.0000 ( 55128 PWs)   bands (ev):

   -19.9724 -19.9724 -19.9707 -19.9707 -19.4701 -19.4701 -19.3460 -19.3460
   -14.6071 -14.6071 -14.5668 -14.5668 -13.5382 -13.5382 -13.2360 -13.2360
   -12.6090 -12.6090 -12.3864 -12.3864  -9.3789  -9.3789  -9.3519  -9.3519
    -8.2635  -8.2635  -8.0325  -8.0325  -7.1918  -7.1918  -7.1506  -7.1506
    -6.7702  -6.7702  -6.3178  -6.3178  -5.3314  -5.3314  -5.2908  -5.2908
    -4.7283  -4.7283  -4.5912  -4.5912  -4.2056  -4.2056  -4.0094  -4.0094
    -3.9476  -3.9476  -3.7555  -3.7555  -3.6145  -3.6145  -3.3663  -3.3663
    -2.9976  -2.9976  -2.9773  -2.9773  -2.4247  -2.4247  -2.4201  -2.4201
    -1.0103  -1.0103  -0.6973  -0.6973  -0.5432  -0.5432  -0.3645  -0.3645
     0.2183   0.2183   0.2422   0.2422   0.7713   0.7713   0.7947   0.7947
     1.2837   1.2837   1.4454   1.4454   4.9140   4.9140   4.9745   4.9745
     6.2529   6.2529   6.4256   6.4256   7.7240   7.7240   7.9033   7.9033
     7.9995   7.9995   8.1528   8.1528

          k =-0.5000 0.2476 0.0000 ( 55252 PWs)   bands (ev):

   -19.9681 -19.9681 -19.9672 -19.9672 -19.4513 -19.4513 -19.3630 -19.3630
   -14.6267 -14.6267 -14.5919 -14.5919 -13.4905 -13.4905 -13.2954 -13.2954
   -12.5667 -12.5667 -12.4215 -12.4215  -9.3317  -9.3317  -9.3122  -9.3122
    -8.2730  -8.2730  -8.1055  -8.1055  -7.1924  -7.1924  -7.1490  -7.1490
    -6.7032  -6.7032  -6.3630  -6.3630  -5.3553  -5.3553  -5.2712  -5.2712
    -4.6949  -4.6949  -4.5352  -4.5352  -4.3469  -4.3469  -4.2310  -4.2310
    -3.8843  -3.8843  -3.7485  -3.7485  -3.4821  -3.4821  -3.4081  -3.4081
    -3.0022  -3.0022  -2.8448  -2.8448  -2.4860  -2.4860  -2.3618  -2.3618
    -0.9076  -0.9076  -0.5555  -0.5555  -0.4841  -0.4841  -0.4004  -0.4004
     0.2327   0.2327   0.2534   0.2534   0.7964   0.7964   0.8093   0.8093
     1.2447   1.2447   1.3789   1.3789   4.7464   4.7464   4.7885   4.7885
     6.2351   6.2351   6.3784   6.3784   7.7384   7.7384   7.8716   7.8716
     8.1743   8.1743   8.2808   8.2808

          k =-0.5000-0.4952 0.0000 ( 55248 PWs)   bands (ev):

   -19.9637 -19.9637 -19.9637 -19.9637 -19.4062 -19.4062 -19.4061 -19.4061
   -14.6325 -14.6325 -14.6300 -14.6300 -13.4006 -13.4006 -13.3910 -13.3910
   -12.4979 -12.4979 -12.4892 -12.4892  -9.2828  -9.2828  -9.2751  -9.2751
    -8.2393  -8.2393  -8.2138  -8.2138  -7.1874  -7.1874  -7.1556  -7.1556
    -6.5814  -6.5814  -6.4819  -6.4819  -5.3295  -5.3295  -5.2808  -5.2808
    -4.6673  -4.6673  -4.5532  -4.5532  -4.4352  -4.4352  -4.2751  -4.2751
    -3.9242  -3.9242  -3.7766  -3.7766  -3.3656  -3.3656  -3.3145  -3.3145
    -3.0293  -3.0293  -2.8835  -2.8835  -2.4619  -2.4619  -2.3540  -2.3540
    -0.6904  -0.6904  -0.6882  -0.6882  -0.3512  -0.3512  -0.3340  -0.3340
     0.2863   0.2863   0.2948   0.2948   0.8153   0.8153   0.8245   0.8245
     1.2362   1.2362   1.2384   1.2384   4.5682   4.5682   4.5746   4.5746
     6.2986   6.2986   6.3315   6.3315   7.7292   7.7292   7.9365   7.9365
     8.1479   8.1479   8.3561   8.3561

     highest occupied, lowest unoccupied level (ev):     1.4454    4.4979

!    total energy              =    -823.55779307 Ry
     Harris-Foulkes estimate   =    -823.55779307 Ry
     estimated scf accuracy    <          5.2E-09 Ry

     total all-electron energy =     -3158.756512 Ry

     The total energy is the sum of the following terms:

     one-electron contribution =    -376.15643350 Ry
     hartree contribution      =     255.30390692 Ry
     xc contribution           =    -174.75230031 Ry
     ewald contribution        =    -283.81549211 Ry
     Dispersion Correction     =      -0.25006657 Ry
     one-center paw contrib.   =    -243.88740750 Ry

     convergence has been achieved in  17 iterations

     Forces acting on atoms (cartesian axes, Ry/au):

     atom    1 type  4   force =     0.00679981   -0.00587739    0.00552439
     atom    2 type  4   force =     0.00679981    0.00587739   -0.00552439
     atom    3 type  4   force =    -0.00679981   -0.00587739   -0.00552439
     atom    4 type  4   force =    -0.00679981    0.00587739    0.00552439
     atom    5 type  2   force =     0.00956186   -0.00722011   -0.00090443
     atom    6 type  2   force =     0.00956186    0.00722011    0.00090443
     atom    7 type  2   force =    -0.00956186   -0.00722011    0.00090443
     atom    8 type  2   force =    -0.00956186    0.00722011   -0.00090443
     atom    9 type  2   force =    -0.01502217    0.00819472   -0.01552181
     atom   10 type  2   force =    -0.01502217   -0.00819472    0.01552181
     atom   11 type  2   force =     0.01502217    0.00819472    0.01552181
     atom   12 type  2   force =     0.01502217   -0.00819472   -0.01552181
     atom   13 type  2   force =    -0.00376468    0.01427298    0.00872750
     atom   14 type  2   force =    -0.00376468   -0.01427298   -0.00872750
     atom   15 type  2   force =     0.00376468    0.01427298   -0.00872750
     atom   16 type  2   force =     0.00376468   -0.01427298    0.00872750
     atom   17 type  1   force =     0.00580060    0.00458494    0.01030640
     atom   18 type  1   force =     0.00580060   -0.00458494   -0.01030640
     atom   19 type  1   force =    -0.00580060    0.00458494   -0.01030640
     atom   20 type  1   force =    -0.00580060   -0.00458494    0.01030640
     atom   21 type  1   force =    -0.00558518   -0.00585221    0.01309630
     atom   22 type  1   force =    -0.00558518    0.00585221   -0.01309630
     atom   23 type  1   force =     0.00558518   -0.00585221   -0.01309630
     atom   24 type  1   force =     0.00558518    0.00585221    0.01309630
     atom   25 type  1   force =    -0.00086678   -0.00053019   -0.00837602
     atom   26 type  1   force =    -0.00086678    0.00053019    0.00837602
     atom   27 type  1   force =     0.00086678   -0.00053019    0.00837602
     atom   28 type  1   force =     0.00086678    0.00053019   -0.00837602
     atom   29 type  1   force =    -0.00072060   -0.00266181   -0.00973724
     atom   30 type  1   force =    -0.00072060    0.00266181    0.00973724
     atom   31 type  1   force =     0.00072060   -0.00266181    0.00973724
     atom   32 type  1   force =     0.00072060    0.00266181   -0.00973724
     atom   33 type  3   force =    -0.00328967   -0.00267955   -0.00198597
     atom   34 type  3   force =    -0.00328967    0.00267955    0.00198597
     atom   35 type  3   force =     0.00328967   -0.00267955    0.00198597
     atom   36 type  3   force =     0.00328967    0.00267955   -0.00198597
     atom   37 type  3   force =    -0.00073777   -0.00074002   -0.00137521
     atom   38 type  3   force =    -0.00073777    0.00074002    0.00137521
     atom   39 type  3   force =     0.00073777   -0.00074002    0.00137521
     atom   40 type  3   force =     0.00073777    0.00074002   -0.00137521
     atom   41 type  3   force =     0.00220242   -0.00266427    0.00215821
     atom   42 type  3   force =     0.00220242    0.00266427   -0.00215821
     atom   43 type  3   force =    -0.00220242   -0.00266427   -0.00215821
     atom   44 type  3   force =    -0.00220242    0.00266427    0.00215821
     atom   45 type  3   force =     0.00241937   -0.00021007   -0.00205336
     atom   46 type  3   force =     0.00241937    0.00021007    0.00205336
     atom   47 type  3   force =    -0.00241937   -0.00021007    0.00205336
     atom   48 type  3   force =    -0.00241937    0.00021007   -0.00205336
     atom   49 type  3   force =     0.00016733    0.00174390   -0.00039388
     atom   50 type  3   force =     0.00016733   -0.00174390    0.00039388
     atom   51 type  3   force =    -0.00016733    0.00174390    0.00039388
     atom   52 type  3   force =    -0.00016733   -0.00174390   -0.00039388

     Total force =     0.082700     Total SCF correction =     0.000113


     Computing stress (Cartesian axis) and pressure

          total   stress  (Ry/bohr**3)                   (kbar)     P=   -7.87
  -0.00007677   0.00000000   0.00000000        -11.29      0.00      0.00
   0.00000000  -0.00004310   0.00000000          0.00     -6.34      0.00
   0.00000000   0.00000000  -0.00004070          0.00      0.00     -5.99


     Writing output data file scf.save
 
     init_run     :     10.91s CPU     11.58s WALL (       1 calls)
     electrons    :    363.40s CPU    377.61s WALL (       1 calls)
     forces       :      5.60s CPU      5.67s WALL (       1 calls)
     stress       :     16.93s CPU     16.96s WALL (       1 calls)

     Called by init_run:
     wfcinit      :      7.95s CPU      8.37s WALL (       1 calls)
     potinit      :      1.10s CPU      1.14s WALL (       1 calls)

     Called by electrons:
     c_bands      :    322.09s CPU    334.43s WALL (      17 calls)
     sum_band     :     34.34s CPU     35.92s WALL (      17 calls)
     v_of_rho     :      0.93s CPU      1.04s WALL (      18 calls)
     newd         :      1.80s CPU      1.85s WALL (      18 calls)
     PAW_pot      :      3.86s CPU      3.86s WALL (      18 calls)
     mix_rho      :      0.23s CPU      0.25s WALL (      17 calls)

     Called by c_bands:
     init_us_2    :      2.90s CPU      2.91s WALL (     333 calls)
     cegterg      :    311.59s CPU    323.86s WALL (     153 calls)

     Called by sum_band:
     sum_band:bec :      0.04s CPU      0.04s WALL (     153 calls)
     addusdens    :      1.72s CPU      1.75s WALL (      17 calls)

     Called by *egterg:
     h_psi        :    174.47s CPU    183.94s WALL (     660 calls)
     s_psi        :     33.88s CPU     33.89s WALL (     660 calls)
     g_psi        :      1.28s CPU      1.29s WALL (     498 calls)
     cdiaghg      :     19.18s CPU     19.24s WALL (     651 calls)

     Called by h_psi:
     h_psi:pot    :    173.06s CPU    182.51s WALL (     660 calls)
     h_psi:calbec :     33.75s CPU     33.86s WALL (     660 calls)
     vloc_psi     :    105.51s CPU    114.83s WALL (     660 calls)
     add_vuspsi   :     33.80s CPU     33.82s WALL (     660 calls)

     General routines
     calbec       :     48.46s CPU     48.61s WALL (     858 calls)
     fft          :      0.57s CPU      0.94s WALL (     258 calls)
     fftw         :    111.31s CPU    121.62s WALL (  105176 calls)
 
     Parallel routines
     fft_scatter  :     38.98s CPU     45.33s WALL (  105434 calls)
 
     PWSCF        :  6m40.93s CPU     6m57.22s WALL

 
   This run was terminated on:   5:12: 2   4Nov2017            

=------------------------------------------------------------------------------=
   JOB DONE.
=------------------------------------------------------------------------------=
