
     Program PWSCF v.6.1 (svn rev. 13369) starts on 20Dec2017 at 17: 3:27 

     This program is part of the open-source Quantum ESPRESSO suite
     for quantum simulation of materials; please cite
         "P. Giannozzi et al., J. Phys.:Condens. Matter 21 395502 (2009);
          URL http://www.quantum-espresso.org", 
     in publications or presentations arising from this work. More details at
     http://www.quantum-espresso.org/quote

     Parallel version (MPI), running on     8 processors
     R & G space division:  proc/nbgrp/npool/nimage =       8
     Waiting for input...
     Reading input from standard input

     Current dimensions of program PWSCF are:
     Max number of different atomic species (ntypx) = 10
     Max number of k-points (npk) =  40000
     Max angular momentum in pseudopotentials (lmaxx) =  3
               file C.pbe-n-kjpaw_psl.0.1.UPF: wavefunction(s)  2P renormalized
               file N.pbe-n-kjpaw_psl.0.1.UPF: wavefunction(s)  2P renormalized
               file H.pbe-kjpaw_psl.0.1.UPF: wavefunction(s)  1S renormalized
               file O.pbe-n-kjpaw_psl.0.1.UPF: wavefunction(s)  2P renormalized

     -------------------------------------
     Parameters for Dispersion Correction:
     -------------------------------------
       atom      VdW radius       C_6     

        C          2.744         60.710
        N          2.640         42.670
        H          1.892          4.857
        O          2.536         24.284

     Subspace diagonalization in iterative solution of the eigenvalue problem:
     a serial algorithm will be used

 
     Parallelization info
     --------------------
     sticks:   dense  smooth     PW     G-vecs:    dense   smooth      PW
     Min         648     648    177                51261    51261    7355
     Max         649     649    178                51263    51263    7358
     Sum        5189    5189   1423               410093   410093   58857
 


     bravais-lattice index     =            0
     lattice parameter (alat)  =       9.9721  a.u.
     unit-cell volume          =    3035.3663 (a.u.)^3
     number of atoms/cell      =           48
     number of atomic types    =            4
     number of electrons       =       144.00
     number of Kohn-Sham states=           86
     kinetic-energy cutoff     =     100.0000  Ry
     charge density cutoff     =     400.0000  Ry
     convergence threshold     =      1.0E-08
     mixing beta               =       0.5000
     number of iterations used =            8  plain     mixing
     Exchange-correlation      =  SLA  PW   PBX  PBC ( 1  4  3  4 0 0)

     celldm(1)=   9.972085  celldm(2)=   0.000000  celldm(3)=   0.000000
     celldm(4)=   0.000000  celldm(5)=   0.000000  celldm(6)=   0.000000

     crystal axes: (cart. coord. in units of alat)
               a(1) = (   1.000000   0.000000   0.000000 )  
               a(2) = (  -0.374483   1.639022   0.000000 )  
               a(3) = (  -0.002344  -0.438499   1.867534 )  

     reciprocal axes: (cart. coord. in units 2 pi/alat)
               b(1) = (  1.000000  0.228480  0.054902 )  
               b(2) = (  0.000000  0.610120  0.143257 )  
               b(3) = (  0.000000  0.000000  0.535465 )  


     PseudoPot. # 1 for  C read from file:
     /scratch/ahofstet/pseudo/C.pbe-n-kjpaw_psl.0.1.UPF
     MD5 check sum: 430fe95172b1e11ef3f8ed03bac87931
     Pseudo is Projector augmented-wave + core cor, Zval =  4.0
     Generated using "atomic" code by A. Dal Corso  v.5.0.99 svn rev. 10869
     Shape of augmentation charge: BESSEL
     Using radial grid of 1073 points,  4 beta functions with: 
                l(1) =   0
                l(2) =   0
                l(3) =   1
                l(4) =   1
     Q(r) pseudized with 0 coefficients 


     PseudoPot. # 2 for  N read from file:
     /scratch/ahofstet/pseudo/N.pbe-n-kjpaw_psl.0.1.UPF
     MD5 check sum: f73187c8b701007e77325f868c9291d7
     Pseudo is Projector augmented-wave + core cor, Zval =  5.0
     Generated using "atomic" code by A. Dal Corso  v.5.0.99 svn rev. 10869
     Shape of augmentation charge: PSQ
     Using radial grid of 1085 points,  4 beta functions with: 
                l(1) =   0
                l(2) =   0
                l(3) =   1
                l(4) =   1
     Q(r) pseudized with 0 coefficients 


     PseudoPot. # 3 for  H read from file:
     /scratch/ahofstet/pseudo/H.pbe-kjpaw_psl.0.1.UPF
     MD5 check sum: 94e484f906d9e9773b2f6e52662335b2
     Pseudo is Projector augmented-wave, Zval =  1.0
     Generated using "atomic" code by A. Dal Corso  v.5.0.99 svn rev. 10869
     Shape of augmentation charge: PSQ
     Using radial grid of  929 points,  2 beta functions with: 
                l(1) =   0
                l(2) =   0
     Q(r) pseudized with 0 coefficients 


     PseudoPot. # 4 for  O read from file:
     /scratch/ahofstet/pseudo/O.pbe-n-kjpaw_psl.0.1.UPF
     MD5 check sum: 3f94a2996a3169367d6eb21d9b593f20
     Pseudo is Projector augmented-wave + core cor, Zval =  6.0
     Generated using "atomic" code by A. Dal Corso  v.5.0.99 svn rev. 10869
     Shape of augmentation charge: BESSEL
     Using radial grid of 1095 points,  4 beta functions with: 
                l(1) =   0
                l(2) =   0
                l(3) =   1
                l(4) =   1
     Q(r) pseudized with 0 coefficients 


     atomic species   valence    mass     pseudopotential
        C              4.00    12.01070      C( 1.00)
        N              5.00    14.00670      N( 1.00)
        H              1.00     1.00794      H( 1.00)
        O              6.00    15.99940      O( 1.00)

      2 Sym. Ops., with inversion, found



   Cartesian axes

     site n.     atom                  positions (alat units)
         1           O   tau(   1) = (   0.8275798   0.3681045   1.3274387  )
         2           O   tau(   2) = (  -0.2044065   0.8324184   0.5400954  )
         3           O   tau(   3) = (   0.0946686   0.0059133   1.2752804  )
         4           O   tau(   4) = (   0.5285047   1.1946097   0.5922536  )
         5           C   tau(   5) = (   0.7961295   0.0194366   1.6181823  )
         6           C   tau(   6) = (  -0.1729561   1.1810863   0.2493518  )
         7           O   tau(   7) = (   0.5479219   0.3955368   1.6435527  )
         8           O   tau(   8) = (   0.0752514   0.8049862   0.2239814  )
         9           N   tau(   9) = (   0.5019120   0.4328341   0.0992589  )
        10           N   tau(  10) = (   0.1212613   0.7676888   1.7682751  )
        11           C   tau(  11) = (   0.0050394  -0.1072256   1.4930320  )
        12           C   tau(  12) = (   0.6181340   1.3077485   0.3745021  )
        13           O   tau(  13) = (   0.1120980  -0.3022616   1.5616657  )
        14           O   tau(  14) = (   0.5110754   1.5027846   0.3058684  )
        15           C   tau(  15) = (   0.7101036   0.2659651   1.5364734  )
        16           C   tau(  16) = (  -0.0869303   0.9345578   0.3310607  )
        17           C   tau(  17) = (  -0.0622425   0.1916516   1.1480815  )
        18           C   tau(  18) = (   0.6854158   1.0088713   0.7194526  )
        19           C   tau(  19) = (   0.1146182   0.3438684   0.9825201  )
        20           C   tau(  20) = (   0.5085552   0.8566545   0.8850140  )
        21           C   tau(  21) = (   0.6829862  -0.1014193   1.8273555  )
        22           C   tau(  22) = (  -0.0598128   1.3019423   0.0401785  )
        23           C   tau(  23) = (   0.7276022   0.0637441   0.9990895  )
        24           C   tau(  24) = (  -0.1044289   1.1367788   0.8684446  )
        25           C   tau(  25) = (   0.3614867   0.2907492   0.2870131  )
        26           C   tau(  26) = (   0.2616866   0.9097737   1.5805209  )
        27           H   tau(  27) = (   0.4378324   0.6104539   0.0517960  )
        28           H   tau(  28) = (   0.1853410   0.5900691   1.8157380  )
        29           H   tau(  29) = (   0.2611270   0.4345234   1.0988157  )
        30           H   tau(  30) = (   0.3620463   0.7659996   0.7687183  )
        31           H   tau(  31) = (   0.0061749   0.4877798   0.8784612  )
        32           H   tau(  32) = (   0.6169985   0.7127431   0.9890729  )
        33           H   tau(  33) = (   0.2052748   0.2164586   0.8449301  )
        34           H   tau(  34) = (   0.4178986   0.9840643   1.0226040  )
        35           H   tau(  35) = (   0.6202364   0.2103472   0.8965814  )
        36           H   tau(  36) = (   0.0029369   0.9901758   0.9709526  )
        37           H   tau(  37) = (   0.5954445  -0.0372929   1.1245129  )
        38           H   tau(  38) = (   0.0277288   1.2378158   0.7430211  )
        39           H   tau(  39) = (   0.8079608  -0.0683707   0.8603273  )
        40           H   tau(  40) = (  -0.1847875   1.2688936   1.0072068  )
        41           H   tau(  41) = (   0.7522919   0.1481635   0.0122739  )
        42           H   tau(  42) = (  -0.1291186   1.0523594   1.8552602  )
        43           H   tau(  43) = (   0.4602659   0.1120673   0.3264582  )
        44           H   tau(  44) = (   0.1629074   1.0884557   1.5410758  )
        45           H   tau(  45) = (   0.1685823   0.2521402   0.2159121  )
        46           H   tau(  46) = (   0.4545911   0.9483828   1.6516219  )
        47           H   tau(  47) = (   0.3435666   0.4041994   0.4600267  )
        48           H   tau(  48) = (   0.2796067   0.7963235   1.4075074  )

     number of k points=    12
                       cart. coord. in units 2pi/alat
        k(    1) = (   0.0000000   0.0000000   0.0000000), wk =   0.1250000
        k(    2) = (   0.0000000   0.0000000  -0.2677327), wk =   0.1250000
        k(    3) = (   0.0000000  -0.3050600  -0.0716284), wk =   0.1250000
        k(    4) = (   0.0000000  -0.3050600  -0.3393611), wk =   0.1250000
        k(    5) = (   0.2500000   0.0571199   0.0137255), wk =   0.2500000
        k(    6) = (   0.2500000   0.0571199  -0.2540072), wk =   0.2500000
        k(    7) = (   0.2500000  -0.2479401  -0.0579028), wk =   0.2500000
        k(    8) = (   0.2500000  -0.2479401  -0.3256356), wk =   0.2500000
        k(    9) = (  -0.5000000  -0.1142398  -0.0274511), wk =   0.1250000
        k(   10) = (  -0.5000000  -0.1142398  -0.2951838), wk =   0.1250000
        k(   11) = (  -0.5000000  -0.4192998  -0.0990795), wk =   0.1250000
        k(   12) = (  -0.5000000  -0.4192998  -0.3668122), wk =   0.1250000

     Dense  grid:   410093 G-vectors     FFT dimensions: (  64, 108, 125)

     Estimated max dynamical RAM per process >     235.61MB

     Estimated total allocated dynamical RAM >    1884.89MB

     Check: negative/imaginary core charge=   -0.000002    0.000000

     Initial potential from superposition of free atoms

     starting charge  143.99910, renormalised to  144.00000
     Starting wfc are  126 randomized atomic wfcs
     Checking if some PAW data can be deallocated... 

     total cpu time spent up to now is       14.7 secs

     per-process dynamical memory:   242.7 Mb

     Self-consistent Calculation

     iteration #  1     ecut=   100.00 Ry     beta=0.50
     Davidson diagonalization with overlap
     ethr =  1.00E-02,  avg # of iterations =  3.8

     total cpu time spent up to now is       42.5 secs

     total energy              =    -710.04108169 Ry
     Harris-Foulkes estimate   =    -712.73937985 Ry
     estimated scf accuracy    <       5.07522153 Ry

     iteration #  2     ecut=   100.00 Ry     beta=0.50
     Davidson diagonalization with overlap
     ethr =  3.52E-03,  avg # of iterations =  2.6

     total cpu time spent up to now is       58.7 secs

     total energy              =    -710.47422889 Ry
     Harris-Foulkes estimate   =    -710.83233227 Ry
     estimated scf accuracy    <       0.72149447 Ry

     iteration #  3     ecut=   100.00 Ry     beta=0.50
     Davidson diagonalization with overlap
     ethr =  5.01E-04,  avg # of iterations =  5.2

     total cpu time spent up to now is       88.9 secs

     total energy              =    -710.99153509 Ry
     Harris-Foulkes estimate   =    -711.22127034 Ry
     estimated scf accuracy    <       0.62987246 Ry

     iteration #  4     ecut=   100.00 Ry     beta=0.50
     Davidson diagonalization with overlap
     ethr =  4.37E-04,  avg # of iterations =  1.2

     total cpu time spent up to now is      103.3 secs

     total energy              =    -710.90380790 Ry
     Harris-Foulkes estimate   =    -711.02857971 Ry
     estimated scf accuracy    <       0.19058113 Ry

     iteration #  5     ecut=   100.00 Ry     beta=0.50
     Davidson diagonalization with overlap
     ethr =  1.32E-04,  avg # of iterations =  4.8

     total cpu time spent up to now is      133.0 secs

     total energy              =    -711.04876389 Ry
     Harris-Foulkes estimate   =    -711.14132649 Ry
     estimated scf accuracy    <       0.32830958 Ry

     iteration #  6     ecut=   100.00 Ry     beta=0.50
     Davidson diagonalization with overlap
     ethr =  1.32E-04,  avg # of iterations =  1.0

     total cpu time spent up to now is      147.5 secs

     total energy              =    -710.98278401 Ry
     Harris-Foulkes estimate   =    -711.05545512 Ry
     estimated scf accuracy    <       0.16277381 Ry

     iteration #  7     ecut=   100.00 Ry     beta=0.50
     Davidson diagonalization with overlap
     ethr =  1.13E-04,  avg # of iterations =  4.7

     total cpu time spent up to now is      169.5 secs

     total energy              =    -711.03607252 Ry
     Harris-Foulkes estimate   =    -711.03628843 Ry
     estimated scf accuracy    <       0.00257261 Ry

     iteration #  8     ecut=   100.00 Ry     beta=0.50
     Davidson diagonalization with overlap
     ethr =  1.79E-06,  avg # of iterations = 10.4

     total cpu time spent up to now is      203.0 secs

     total energy              =    -711.03584249 Ry
     Harris-Foulkes estimate   =    -711.03709659 Ry
     estimated scf accuracy    <       0.00280863 Ry

     iteration #  9     ecut=   100.00 Ry     beta=0.50
     Davidson diagonalization with overlap
     ethr =  1.79E-06,  avg # of iterations =  2.0

     total cpu time spent up to now is      218.1 secs

     total energy              =    -711.03574186 Ry
     Harris-Foulkes estimate   =    -711.03599580 Ry
     estimated scf accuracy    <       0.00059593 Ry

     iteration # 10     ecut=   100.00 Ry     beta=0.50
     Davidson diagonalization with overlap
     ethr =  4.14E-07,  avg # of iterations =  4.1

     total cpu time spent up to now is      244.0 secs

     total energy              =    -711.03621713 Ry
     Harris-Foulkes estimate   =    -711.03627069 Ry
     estimated scf accuracy    <       0.00017238 Ry

     iteration # 11     ecut=   100.00 Ry     beta=0.50
     Davidson diagonalization with overlap
     ethr =  1.20E-07,  avg # of iterations =  1.0

     total cpu time spent up to now is      258.5 secs

     total energy              =    -711.03616241 Ry
     Harris-Foulkes estimate   =    -711.03622090 Ry
     estimated scf accuracy    <       0.00007953 Ry

     iteration # 12     ecut=   100.00 Ry     beta=0.50
     Davidson diagonalization with overlap
     ethr =  5.52E-08,  avg # of iterations =  4.0

     total cpu time spent up to now is      284.9 secs

     total energy              =    -711.03621500 Ry
     Harris-Foulkes estimate   =    -711.03625788 Ry
     estimated scf accuracy    <       0.00012761 Ry

     iteration # 13     ecut=   100.00 Ry     beta=0.50
     Davidson diagonalization with overlap
     ethr =  5.52E-08,  avg # of iterations =  1.0

     total cpu time spent up to now is      299.3 secs

     total energy              =    -711.03619189 Ry
     Harris-Foulkes estimate   =    -711.03621781 Ry
     estimated scf accuracy    <       0.00005407 Ry

     iteration # 14     ecut=   100.00 Ry     beta=0.50
     Davidson diagonalization with overlap
     ethr =  3.76E-08,  avg # of iterations =  4.0

     total cpu time spent up to now is      323.0 secs

     total energy              =    -711.03621739 Ry
     Harris-Foulkes estimate   =    -711.03621902 Ry
     estimated scf accuracy    <       0.00000546 Ry

     iteration # 15     ecut=   100.00 Ry     beta=0.50
     Davidson diagonalization with overlap
     ethr =  3.79E-09,  avg # of iterations =  1.0

     total cpu time spent up to now is      337.4 secs

     total energy              =    -711.03621578 Ry
     Harris-Foulkes estimate   =    -711.03621753 Ry
     estimated scf accuracy    <       0.00000274 Ry

     iteration # 16     ecut=   100.00 Ry     beta=0.50
     Davidson diagonalization with overlap
     ethr =  1.90E-09,  avg # of iterations =  4.0

     total cpu time spent up to now is      362.6 secs

     total energy              =    -711.03621735 Ry
     Harris-Foulkes estimate   =    -711.03621774 Ry
     estimated scf accuracy    <       0.00000122 Ry

     iteration # 17     ecut=   100.00 Ry     beta=0.50
     Davidson diagonalization with overlap
     ethr =  8.48E-10,  avg # of iterations =  1.0

     total cpu time spent up to now is      377.2 secs

     total energy              =    -711.03621714 Ry
     Harris-Foulkes estimate   =    -711.03621737 Ry
     estimated scf accuracy    <       0.00000056 Ry

     iteration # 18     ecut=   100.00 Ry     beta=0.50
     Davidson diagonalization with overlap
     ethr =  3.91E-10,  avg # of iterations =  3.6

     total cpu time spent up to now is      399.5 secs

     total energy              =    -711.03621736 Ry
     Harris-Foulkes estimate   =    -711.03621736 Ry
     estimated scf accuracy    <       0.00000001 Ry

     iteration # 19     ecut=   100.00 Ry     beta=0.50
     Davidson diagonalization with overlap
     ethr =  9.41E-12,  avg # of iterations =  3.6

     total cpu time spent up to now is      418.6 secs

     End of self-consistent calculation

          k = 0.0000 0.0000 0.0000 ( 51277 PWs)   bands (ev):

   -21.8184 -21.8087 -20.7485 -20.7356 -19.4242 -19.3769 -18.7180 -18.7020
   -17.8505 -17.8347 -13.9975 -13.9467 -13.3053 -13.3043 -11.4505 -11.3991
   -11.2123 -11.0677  -9.9031  -9.6682  -9.5473  -9.4251  -9.4040  -9.2675
    -7.7283  -7.6877  -7.3392  -7.2700  -6.0300  -5.9410  -5.7630  -5.6678
    -5.5211  -5.4302  -5.1949  -4.7921  -4.7189  -4.6995  -4.5900  -4.5223
    -4.5067  -4.4629  -4.3714  -4.0807  -3.8870  -3.6483  -3.6054  -3.5912
    -3.4757  -3.4525  -3.4230  -3.3714  -3.3706  -3.2278  -3.1573  -3.0487
    -2.8480  -2.6398  -2.3946  -2.1056  -1.9740  -1.9095  -1.1175  -0.9912
    -0.9547  -0.8605  -0.4559  -0.4045  -0.0511  -0.0022   0.5065   0.7288
     4.2098   4.4461   4.9366   5.0719   6.0265   7.0756   7.2748   7.3250
     7.5931   7.6577   7.8841   8.0540   8.1074   8.2660

          k = 0.0000 0.0000-0.2677 ( 51220 PWs)   bands (ev):

   -21.8150 -21.8121 -20.7470 -20.7371 -19.4236 -19.3775 -18.7165 -18.7034
   -17.8505 -17.8346 -13.9877 -13.9417 -13.3375 -13.3049 -11.4561 -11.3809
   -11.1688 -11.0508  -9.8730  -9.8448  -9.4988  -9.4694  -9.3236  -9.2843
    -7.7365  -7.6917  -7.2964  -7.2787  -6.0366  -5.9394  -5.6785  -5.6402
    -5.5534  -5.5293  -5.1201  -4.8247  -4.7322  -4.6999  -4.5905  -4.4983
    -4.4962  -4.3975  -4.3362  -4.0202  -3.8764  -3.8339  -3.6502  -3.6457
    -3.5349  -3.4907  -3.4759  -3.4161  -3.3581  -3.1467  -3.1092  -3.0018
    -2.8169  -2.6172  -2.2662  -2.1741  -2.0820  -1.8412  -1.0998  -1.0059
    -0.9241  -0.8709  -0.4420  -0.4187  -0.0610   0.0102   0.4931   0.7233
     4.2190   4.4452   4.9765   5.0344   6.1462   6.8179   7.1181   7.5821
     7.5919   7.7276   7.8378   7.9692   8.2167   8.3103

          k = 0.0000-0.3051-0.0716 ( 51220 PWs)   bands (ev):

   -21.8154 -21.8116 -20.7463 -20.7384 -19.4137 -19.3860 -18.7155 -18.7060
   -17.8653 -17.8191 -13.9916 -13.9528 -13.3328 -13.2771 -11.4313 -11.4150
   -11.1698 -11.1198  -9.8444  -9.7259  -9.4665  -9.4283  -9.3890  -9.3670
    -7.7583  -7.6590  -7.3118  -7.2992  -5.9809  -5.9651  -5.6828  -5.6585
    -5.6055  -5.4931  -4.9401  -4.9162  -4.7729  -4.7260  -4.6814  -4.6778
    -4.4734  -4.3497  -4.2019  -4.0524  -3.8289  -3.7277  -3.6757  -3.6093
    -3.5458  -3.5036  -3.4341  -3.3631  -3.2677  -3.2335  -3.1123  -3.1036
    -2.7319  -2.7266  -2.2897  -2.1251  -2.0188  -1.9519  -1.1436  -0.9931
    -0.9277  -0.8326  -0.4372  -0.3770  -0.0911  -0.0240   0.5885   0.6311
     4.3083   4.3419   4.9910   5.0528   6.5228   6.5459   7.0003   7.0554
     7.6555   7.8134   7.9365   8.2262   8.3556   8.5228

          k = 0.0000-0.3051-0.3394 ( 51228 PWs)   bands (ev):

   -21.8167 -21.8102 -20.7473 -20.7375 -19.4127 -19.3870 -18.7163 -18.7053
   -17.8653 -17.8190 -13.9699 -13.9610 -13.3284 -13.3132 -11.4211 -11.4140
   -11.1143 -11.1086  -9.9626  -9.7235  -9.4401  -9.4126  -9.3800  -9.3787
    -7.7602  -7.6720  -7.3255  -7.2704  -5.9847  -5.9541  -5.6669  -5.6490
    -5.5292  -5.4911  -4.9862  -4.9382  -4.7957  -4.6751  -4.6323  -4.5769
    -4.5195  -4.4721  -4.1914  -4.1071  -3.9559  -3.7759  -3.6202  -3.5629
    -3.5183  -3.4640  -3.4316  -3.3893  -3.3286  -3.1777  -3.1171  -3.0305
    -2.7929  -2.6772  -2.3280  -2.1912  -1.9464  -1.9425  -1.1144  -1.0197
    -0.8808  -0.8666  -0.4221  -0.3972  -0.0859  -0.0276   0.5811   0.6379
     4.3075   4.3469   4.9630   5.0808   6.3907   6.6165   7.0963   7.1103
     7.6561   7.9337   7.9350   8.0914   8.4149   8.4784

          k = 0.2500 0.0571 0.0137 ( 51285 PWs)   bands (ev):

   -21.8129 -21.8043 -20.7516 -20.7415 -19.4135 -19.3800 -18.7170 -18.7065
   -17.8468 -17.8353 -13.9648 -13.9504 -13.3278 -13.3044 -11.4910 -11.4528
   -11.2250 -11.1482  -9.7977  -9.7345  -9.4848  -9.4361  -9.3776  -9.2659
    -7.7300  -7.6909  -7.3182  -7.2646  -6.0106  -5.9322  -5.8032  -5.6830
    -5.6372  -5.4344  -5.1679  -4.9075  -4.7749  -4.7086  -4.5764  -4.5186
    -4.4569  -4.3368  -4.3187  -4.1099  -3.9575  -3.8520  -3.7555  -3.5935
    -3.5283  -3.4045  -3.3262  -3.2650  -3.1809  -3.1119  -3.0513  -2.9923
    -2.7788  -2.6181  -2.3014  -2.1102  -1.9846  -1.8523  -1.1258  -1.0077
    -0.9091  -0.8356  -0.4534  -0.4195  -0.0621  -0.0162   0.5310   0.7003
     4.1061   4.2992   4.9129   4.9854   6.2649   6.8637   7.1877   7.4219
     7.5486   7.6261   7.7562   7.9203   8.0340   8.1793

          k = 0.2500 0.0571-0.2540 ( 51255 PWs)   bands (ev):

   -21.8098 -21.8075 -20.7503 -20.7428 -19.4131 -19.3804 -18.7163 -18.7072
   -17.8467 -17.8353 -13.9820 -13.9286 -13.3251 -13.3166 -11.4702 -11.4281
   -11.2291 -11.1843  -9.8378  -9.6948  -9.5100  -9.4453  -9.3573  -9.2526
    -7.7274  -7.6908  -7.2987  -7.2704  -6.0321  -5.9187  -5.8468  -5.7299
    -5.5581  -5.3927  -5.1879  -4.9422  -4.8278  -4.7103  -4.6435  -4.4579
    -4.4171  -4.3747  -4.2854  -4.0691  -3.9342  -3.7542  -3.6976  -3.6637
    -3.5122  -3.4470  -3.4275  -3.3314  -3.1576  -3.1026  -3.0312  -2.9319
    -2.8218  -2.6143  -2.2723  -2.1018  -1.9816  -1.8833  -1.1369  -1.0048
    -0.8800  -0.8487  -0.4588  -0.4102  -0.0767  -0.0020   0.5259   0.6951
     4.1121   4.2997   4.9391   4.9641   6.2704   6.8641   7.0939   7.4085
     7.5570   7.6551   7.7974   7.8941   8.0347   8.2786

          k = 0.2500-0.2479-0.0579 ( 51273 PWs)   bands (ev):

   -21.8100 -21.8071 -20.7497 -20.7438 -19.4063 -19.3863 -18.7180 -18.7062
   -17.8622 -17.8198 -13.9608 -13.9548 -13.3278 -13.3033 -11.4978 -11.4521
   -11.2291 -11.1295  -9.8707  -9.6463  -9.5160  -9.4469  -9.3230  -9.3076
    -7.7681  -7.6593  -7.3010  -7.2800  -6.0473  -5.9238  -5.7781  -5.6944
    -5.5731  -5.4869  -5.1029  -4.8508  -4.7335  -4.7094  -4.6860  -4.5751
    -4.4813  -4.3739  -4.1637  -4.1217  -3.9295  -3.8559  -3.7200  -3.7167
    -3.5714  -3.3552  -3.3069  -3.2467  -3.2169  -3.1532  -3.0361  -3.0220
    -2.7874  -2.5974  -2.2458  -2.1252  -1.9673  -1.9028  -1.1656  -0.9955
    -0.9054  -0.8034  -0.4347  -0.4009  -0.0930  -0.0048   0.5418   0.6791
     4.1204   4.3014   4.9392   4.9776   6.6408   6.7826   7.0030   7.1769
     7.3477   7.6131   7.7829   8.0109   8.1826   8.3364

          k = 0.2500-0.2479-0.3256 ( 51240 PWs)   bands (ev):

   -21.8114 -21.8057 -20.7506 -20.7430 -19.4059 -19.3867 -18.7180 -18.7062
   -17.8622 -17.8197 -13.9777 -13.9329 -13.3515 -13.2891 -11.4764 -11.4226
   -11.2630 -11.1442  -9.8261  -9.7506  -9.4472  -9.4273  -9.3609  -9.2981
    -7.7676  -7.6549  -7.3120  -7.2617  -6.0381  -5.9144  -5.7725  -5.7213
    -5.5989  -5.4791  -5.0748  -4.9092  -4.7591  -4.7232  -4.6264  -4.5370
    -4.5193  -4.3921  -4.2289  -4.1677  -3.8322  -3.7867  -3.7107  -3.6574
    -3.5369  -3.4089  -3.3055  -3.2805  -3.2270  -3.1592  -3.0526  -2.9779
    -2.7853  -2.6290  -2.2970  -2.0769  -1.9782  -1.9267  -1.1140  -1.0330
    -0.8757  -0.8161  -0.4482  -0.4029  -0.0875  -0.0077   0.5392   0.6853
     4.1279   4.2957   4.9246   4.9923   6.6191   6.7546   6.8303   7.4043
     7.5106   7.7347   7.8108   7.9443   8.0584   8.2883

          k =-0.5000-0.1142-0.0275 ( 51280 PWs)   bands (ev):

   -21.8073 -21.7999 -20.7542 -20.7480 -19.3972 -19.3885 -18.7156 -18.7116
   -17.8414 -17.8374 -13.9547 -13.9303 -13.3267 -13.3264 -11.5770 -11.4983
   -11.2225 -11.1884  -9.7815  -9.6907  -9.4404  -9.4396  -9.4118  -9.2335
    -7.7236  -7.7025  -7.2950  -7.2642  -6.0206  -5.9877  -5.8617  -5.8262
    -5.4665  -5.4252  -5.1056  -4.9542  -4.7990  -4.7777  -4.6333  -4.5813
    -4.3873  -4.2552  -4.2403  -4.0978  -3.9865  -3.9259  -3.9249  -3.5806
    -3.5285  -3.4403  -3.1940  -3.1424  -3.0980  -3.0402  -2.9474  -2.9076
    -2.8485  -2.6744  -2.1724  -2.1603  -1.8652  -1.8041  -1.1271  -1.0208
    -0.8331  -0.8223  -0.4476  -0.4407  -0.0721  -0.0348   0.5746   0.6458
     3.9663   4.1825   4.8998   4.9013   6.5120   6.7631   7.2277   7.2730
     7.4297   7.5148   7.6416   8.0798   8.1341   8.2262

          k =-0.5000-0.1142-0.2952 ( 51330 PWs)   bands (ev):

   -21.8042 -21.8031 -20.7527 -20.7494 -19.3969 -19.3888 -18.7171 -18.7102
   -17.8414 -17.8375 -13.9679 -13.9263 -13.3332 -13.3016 -11.5290 -11.4487
   -11.3426 -11.2259  -9.7088  -9.6879  -9.4615  -9.4247  -9.4084  -9.2350
    -7.7122  -7.6945  -7.3110  -7.2552  -6.0929  -5.9714  -5.8255  -5.7863
    -5.6443  -5.3200  -5.1916  -5.0257  -4.8371  -4.7172  -4.6177  -4.4872
    -4.4735  -4.2873  -4.1880  -4.1111  -4.0142  -3.7640  -3.7336  -3.6443
    -3.4955  -3.3726  -3.3533  -3.1945  -3.1016  -3.0311  -2.9488  -2.8822
    -2.8541  -2.6939  -2.2259  -2.0925  -1.8715  -1.8427  -1.1579  -1.0176
    -0.8367  -0.8015  -0.4420  -0.4383  -0.0860  -0.0211   0.5863   0.6360
     3.9707   4.1788   4.8949   4.9119   6.4554   6.6940   7.2464   7.3010
     7.4273   7.5052   7.8076   7.8219   8.1278   8.3003

          k =-0.5000-0.4193-0.0991 ( 51280 PWs)   bands (ev):

   -21.8045 -21.8027 -20.7518 -20.7505 -19.3949 -19.3905 -18.7190 -18.7079
   -17.8586 -17.8209 -13.9606 -13.9237 -13.3483 -13.3047 -11.5437 -11.5204
   -11.2334 -11.1864  -9.7993  -9.7100  -9.4848  -9.4689  -9.2841  -9.2503
    -7.7744  -7.6585  -7.2960  -7.2636  -6.1077  -5.8965  -5.8395  -5.7153
    -5.6294  -5.4048  -5.2065  -4.8529  -4.7543  -4.7474  -4.6237  -4.4822
    -4.3570  -4.3351  -4.3063  -4.1174  -4.0778  -3.9525  -3.7917  -3.6450
    -3.5151  -3.3027  -3.2494  -3.2403  -3.1211  -3.0890  -2.9820  -2.9236
    -2.7532  -2.6485  -2.2261  -2.1068  -1.8822  -1.7900  -1.1630  -0.9679
    -0.8774  -0.8223  -0.4358  -0.4330  -0.0982   0.0111   0.5150   0.7062
     3.9541   4.2235   4.8891   4.9145   6.8740   6.9098   7.0089   7.2106
     7.2567   7.3209   7.6943   7.9110   8.0790   8.1811

          k =-0.5000-0.4193-0.3668 ( 51258 PWs)   bands (ev):

   -21.8059 -21.8013 -20.7528 -20.7496 -19.3957 -19.3897 -18.7183 -18.7086
   -17.8585 -17.8210 -13.9600 -13.9339 -13.3430 -13.2912 -11.5006 -11.4775
   -11.3320 -11.2307  -9.8137  -9.6123  -9.4535  -9.4529  -9.3112  -9.2934
    -7.7727  -7.6387  -7.2867  -7.2658  -6.0432  -5.9804  -5.8083  -5.7982
    -5.6799  -5.4446  -5.1553  -4.9632  -4.7100  -4.6836  -4.6713  -4.4721
    -4.4540  -4.3405  -4.3186  -4.1075  -3.8623  -3.7688  -3.7166  -3.7161
    -3.5490  -3.3496  -3.2645  -3.2371  -3.1390  -3.1066  -2.9671  -2.9118
    -2.7951  -2.6476  -2.2693  -2.0873  -1.8829  -1.8390  -1.0926  -1.0251
    -0.8807  -0.7991  -0.4700  -0.4195  -0.0957   0.0133   0.5194   0.7116
     3.9591   4.2163   4.8964   4.9076   6.7905   6.8949   6.9302   7.1612
     7.3619   7.3716   7.7328   7.9896   8.0351   8.3252

     highest occupied, lowest unoccupied level (ev):     0.7288    3.9541

!    total energy              =    -711.03621736 Ry
     Harris-Foulkes estimate   =    -711.03621736 Ry
     estimated scf accuracy    <          1.5E-09 Ry

     total all-electron energy =     -2668.634486 Ry

     The total energy is the sum of the following terms:

     one-electron contribution =    -448.68960983 Ry
     hartree contribution      =     278.83734824 Ry
     xc contribution           =    -152.22116516 Ry
     ewald contribution        =    -189.66143946 Ry
     Dispersion Correction     =      -0.20598418 Ry
     one-center paw contrib.   =    -199.09536696 Ry

     convergence has been achieved in  19 iterations

     Forces acting on atoms (cartesian axes, Ry/au):

     atom    1 type  4   force =     0.00038251   -0.00057992   -0.00229320
     atom    2 type  4   force =    -0.00038251    0.00057992    0.00229320
     atom    3 type  4   force =    -0.00162527    0.00275559    0.00047975
     atom    4 type  4   force =     0.00162527   -0.00275559   -0.00047975
     atom    5 type  1   force =    -0.00390443   -0.00132500    0.00432177
     atom    6 type  1   force =     0.00390443    0.00132500   -0.00432177
     atom    7 type  4   force =     0.00131041    0.00095530   -0.00062829
     atom    8 type  4   force =    -0.00131041   -0.00095530    0.00062829
     atom    9 type  2   force =     0.00164665   -0.00143247   -0.00749129
     atom   10 type  2   force =    -0.00164665    0.00143247    0.00749129
     atom   11 type  1   force =    -0.00166078   -0.00349541   -0.00387502
     atom   12 type  1   force =     0.00166078    0.00349541    0.00387502
     atom   13 type  4   force =    -0.00070680    0.00444635    0.00175681
     atom   14 type  4   force =     0.00070680   -0.00444635   -0.00175681
     atom   15 type  1   force =     0.00240440   -0.00051214    0.00166513
     atom   16 type  1   force =    -0.00240440    0.00051214   -0.00166513
     atom   17 type  1   force =     0.00029044    0.00125811    0.00572193
     atom   18 type  1   force =    -0.00029044   -0.00125811   -0.00572193
     atom   19 type  1   force =    -0.00026560    0.00024485   -0.00296497
     atom   20 type  1   force =     0.00026560   -0.00024485    0.00296497
     atom   21 type  1   force =    -0.00055458    0.00492474   -0.00403491
     atom   22 type  1   force =     0.00055458   -0.00492474    0.00403491
     atom   23 type  1   force =    -0.00475913   -0.00014296   -0.00280415
     atom   24 type  1   force =     0.00475913    0.00014296    0.00280415
     atom   25 type  1   force =    -0.00582073   -0.00208671    0.00179383
     atom   26 type  1   force =     0.00582073    0.00208671   -0.00179383
     atom   27 type  3   force =     0.00087122   -0.00204572   -0.00032193
     atom   28 type  3   force =    -0.00087122    0.00204572    0.00032193
     atom   29 type  3   force =    -0.00103238   -0.00062996    0.00031327
     atom   30 type  3   force =     0.00103238    0.00062996   -0.00031327
     atom   31 type  3   force =     0.00116356    0.00025842   -0.00038304
     atom   32 type  3   force =    -0.00116356   -0.00025842    0.00038304
     atom   33 type  3   force =    -0.00230568    0.00243124    0.00159607
     atom   34 type  3   force =     0.00230568   -0.00243124   -0.00159607
     atom   35 type  3   force =     0.00402390   -0.00398094    0.00182414
     atom   36 type  3   force =    -0.00402390    0.00398094   -0.00182414
     atom   37 type  3   force =     0.00190857    0.00031026    0.00063889
     atom   38 type  3   force =    -0.00190857   -0.00031026   -0.00063889
     atom   39 type  3   force =     0.00012494   -0.00102293   -0.00065720
     atom   40 type  3   force =    -0.00012494    0.00102293    0.00065720
     atom   41 type  3   force =     0.00042137    0.00119881    0.00024351
     atom   42 type  3   force =    -0.00042137   -0.00119881   -0.00024351
     atom   43 type  3   force =     0.00057628    0.00040173    0.00110098
     atom   44 type  3   force =    -0.00057628   -0.00040173   -0.00110098
     atom   45 type  3   force =     0.00618180   -0.00147721    0.00291757
     atom   46 type  3   force =    -0.00618180    0.00147721   -0.00291757
     atom   47 type  3   force =     0.00098433    0.00039761    0.00189259
     atom   48 type  3   force =    -0.00098433   -0.00039761   -0.00189259

     Total force =     0.030135     Total SCF correction =     0.000068


     Computing stress (Cartesian axis) and pressure

          total   stress  (Ry/bohr**3)                   (kbar)     P=   -6.37
  -0.00006291   0.00003150  -0.00000918         -9.26      4.63     -1.35
   0.00003150  -0.00002800  -0.00000690          4.63     -4.12     -1.01
  -0.00000918  -0.00000690  -0.00003891         -1.35     -1.01     -5.72


     Writing output data file scf.save
 
     init_run     :     13.66s CPU     14.09s WALL (       1 calls)
     electrons    :    390.98s CPU    404.01s WALL (       1 calls)
     forces       :      7.53s CPU      7.59s WALL (       1 calls)
     stress       :     25.38s CPU     25.40s WALL (       1 calls)

     Called by init_run:
     wfcinit      :      7.65s CPU      8.01s WALL (       1 calls)
     potinit      :      2.11s CPU      2.13s WALL (       1 calls)

     Called by electrons:
     c_bands      :    340.67s CPU    351.87s WALL (      19 calls)
     sum_band     :     42.80s CPU     44.42s WALL (      19 calls)
     v_of_rho     :      1.16s CPU      1.27s WALL (      20 calls)
     newd         :      2.50s CPU      2.54s WALL (      20 calls)
     PAW_pot      :      3.36s CPU      3.36s WALL (      20 calls)
     mix_rho      :      0.34s CPU      0.36s WALL (      19 calls)

     Called by c_bands:
     init_us_2    :      3.84s CPU      3.85s WALL (     492 calls)
     cegterg      :    327.28s CPU    338.40s WALL (     228 calls)

     Called by sum_band:
     sum_band:bec :      0.04s CPU      0.04s WALL (     228 calls)
     addusdens    :      2.71s CPU      2.73s WALL (      19 calls)

     Called by *egterg:
     h_psi        :    214.47s CPU    222.00s WALL (     995 calls)
     s_psi        :     22.50s CPU     22.50s WALL (     995 calls)
     g_psi        :      1.72s CPU      1.72s WALL (     755 calls)
     cdiaghg      :     16.66s CPU     16.66s WALL (     983 calls)

     Called by h_psi:
     h_psi:pot    :    212.32s CPU    219.83s WALL (     995 calls)
     h_psi:calbec :     23.86s CPU     23.95s WALL (     995 calls)
     vloc_psi     :    165.85s CPU    173.26s WALL (     995 calls)
     add_vuspsi   :     22.61s CPU     22.62s WALL (     995 calls)

     General routines
     calbec       :     36.06s CPU     36.20s WALL (    1283 calls)
     fft          :      2.23s CPU      2.44s WALL (     284 calls)
     fftw         :    177.66s CPU    186.34s WALL (  135028 calls)
 
     Parallel routines
     fft_scatter  :     63.39s CPU     68.45s WALL (  135312 calls)
 
     PWSCF        :  7m21.39s CPU     7m35.98s WALL

 
   This run was terminated on:  17:11: 3  20Dec2017            

=------------------------------------------------------------------------------=
   JOB DONE.
=------------------------------------------------------------------------------=
