
     Program PWSCF v.6.1 (svn rev. 13369) starts on 13Dec2017 at  2:38:48 

     This program is part of the open-source Quantum ESPRESSO suite
     for quantum simulation of materials; please cite
         "P. Giannozzi et al., J. Phys.:Condens. Matter 21 395502 (2009);
          URL http://www.quantum-espresso.org", 
     in publications or presentations arising from this work. More details at
     http://www.quantum-espresso.org/quote

     Parallel version (MPI), running on     8 processors
     R & G space division:  proc/nbgrp/npool/nimage =       8
     Waiting for input...
     Reading input from standard input

     Current dimensions of program PWSCF are:
     Max number of different atomic species (ntypx) = 10
     Max number of k-points (npk) =  40000
     Max angular momentum in pseudopotentials (lmaxx) =  3
               file C.pbe-n-kjpaw_psl.0.1.UPF: wavefunction(s)  2P renormalized
               file N.pbe-n-kjpaw_psl.0.1.UPF: wavefunction(s)  2P renormalized
               file H.pbe-kjpaw_psl.0.1.UPF: wavefunction(s)  1S renormalized
               file O.pbe-n-kjpaw_psl.0.1.UPF: wavefunction(s)  2P renormalized

     -------------------------------------
     Parameters for Dispersion Correction:
     -------------------------------------
       atom      VdW radius       C_6     

        C          2.744         60.710
        N          2.640         42.670
        H          1.892          4.857
        O          2.536         24.284

     Subspace diagonalization in iterative solution of the eigenvalue problem:
     a serial algorithm will be used

 
     Parallelization info
     --------------------
     sticks:   dense  smooth     PW     G-vecs:    dense   smooth      PW
     Min        1040    1040    280               156923   156923   21924
     Max        1041    1041    281               156926   156926   21932
     Sum        8325    8325   2243              1255397  1255397  175415
 


     bravais-lattice index     =            0
     lattice parameter (alat)  =       8.6795  a.u.
     unit-cell volume          =    9291.1100 (a.u.)^3
     number of atoms/cell      =          140
     number of atomic types    =            4
     number of electrons       =       392.00
     number of Kohn-Sham states=          235
     kinetic-energy cutoff     =     100.0000  Ry
     charge density cutoff     =     400.0000  Ry
     convergence threshold     =      1.0E-08
     mixing beta               =       0.5000
     number of iterations used =            8  plain     mixing
     Exchange-correlation      =  SLA  PW   PBX  PBC ( 1  4  3  4 0 0)

     celldm(1)=   8.679512  celldm(2)=   0.000000  celldm(3)=   0.000000
     celldm(4)=   0.000000  celldm(5)=   0.000000  celldm(6)=   0.000000

     crystal axes: (cart. coord. in units of alat)
               a(1) = (   1.000000   0.000000   0.000000 )  
               a(2) = (   0.000000   3.472676   0.000000 )  
               a(3) = (  -0.046851   0.000000   4.091828 )  

     reciprocal axes: (cart. coord. in units 2 pi/alat)
               b(1) = (  1.000000  0.000000  0.011450 )  
               b(2) = (  0.000000  0.287962  0.000000 )  
               b(3) = (  0.000000  0.000000  0.244390 )  


     PseudoPot. # 1 for  C read from file:
     /scratch/ahofstet/pseudo/C.pbe-n-kjpaw_psl.0.1.UPF
     MD5 check sum: 430fe95172b1e11ef3f8ed03bac87931
     Pseudo is Projector augmented-wave + core cor, Zval =  4.0
     Generated using "atomic" code by A. Dal Corso  v.5.0.99 svn rev. 10869
     Shape of augmentation charge: BESSEL
     Using radial grid of 1073 points,  4 beta functions with: 
                l(1) =   0
                l(2) =   0
                l(3) =   1
                l(4) =   1
     Q(r) pseudized with 0 coefficients 


     PseudoPot. # 2 for  N read from file:
     /scratch/ahofstet/pseudo/N.pbe-n-kjpaw_psl.0.1.UPF
     MD5 check sum: f73187c8b701007e77325f868c9291d7
     Pseudo is Projector augmented-wave + core cor, Zval =  5.0
     Generated using "atomic" code by A. Dal Corso  v.5.0.99 svn rev. 10869
     Shape of augmentation charge: PSQ
     Using radial grid of 1085 points,  4 beta functions with: 
                l(1) =   0
                l(2) =   0
                l(3) =   1
                l(4) =   1
     Q(r) pseudized with 0 coefficients 


     PseudoPot. # 3 for  H read from file:
     /scratch/ahofstet/pseudo/H.pbe-kjpaw_psl.0.1.UPF
     MD5 check sum: 94e484f906d9e9773b2f6e52662335b2
     Pseudo is Projector augmented-wave, Zval =  1.0
     Generated using "atomic" code by A. Dal Corso  v.5.0.99 svn rev. 10869
     Shape of augmentation charge: PSQ
     Using radial grid of  929 points,  2 beta functions with: 
                l(1) =   0
                l(2) =   0
     Q(r) pseudized with 0 coefficients 


     PseudoPot. # 4 for  O read from file:
     /scratch/ahofstet/pseudo/O.pbe-n-kjpaw_psl.0.1.UPF
     MD5 check sum: 3f94a2996a3169367d6eb21d9b593f20
     Pseudo is Projector augmented-wave + core cor, Zval =  6.0
     Generated using "atomic" code by A. Dal Corso  v.5.0.99 svn rev. 10869
     Shape of augmentation charge: BESSEL
     Using radial grid of 1095 points,  4 beta functions with: 
                l(1) =   0
                l(2) =   0
                l(3) =   1
                l(4) =   1
     Q(r) pseudized with 0 coefficients 


     atomic species   valence    mass     pseudopotential
        C              4.00    12.01070      C( 1.00)
        N              5.00    14.00670      N( 1.00)
        H              1.00     1.00794      H( 1.00)
        O              6.00    15.99940      O( 1.00)

      4 Sym. Ops., with inversion, found ( 2 have fractional translation)



   Cartesian axes

     site n.     atom                  positions (alat units)
         1           O   tau(   1) = (   0.4618140  -0.1642542   1.1868709  )
         2           O   tau(   2) = (   0.5147606   1.5720837   0.8590433  )
         3           O   tau(   3) = (   0.4913351   3.6369300   2.9049576  )
         4           O   tau(   4) = (   0.4383886   1.9005921   3.2327851  )
         5           O   tau(   5) = (   0.1151754   3.1711317   0.8602984  )
         6           O   tau(   6) = (   0.8613991   1.4347938   1.1856158  )
         7           O   tau(   7) = (   0.8379737   0.3015441   3.2315300  )
         8           O   tau(   8) = (   0.0917500   2.0378820   2.9062126  )
         9           O   tau(   9) = (   0.2461062   2.3471397   1.4547996  )
        10           O   tau(  10) = (   0.7304683   0.6108018   0.5911146  )
        11           O   tau(  11) = (   0.7070429   1.1255361   2.6370288  )
        12           O   tau(  12) = (   0.2226808   2.8618740   3.5007139  )
        13           O   tau(  13) = (   0.4493522   2.4326733   1.0124873  )
        14           O   tau(  14) = (   0.5272223   0.6963354   1.0334269  )
        15           O   tau(  15) = (   0.5037969   1.0400025   3.0793412  )
        16           O   tau(  16) = (   0.4259268   2.7763404   3.0584015  )
        17           N   tau(  17) = (   0.9367096   2.8638811   1.8250732  )
        18           N   tau(  18) = (   0.0398649   1.1275432   0.2208411  )
        19           N   tau(  19) = (   0.0164395   0.6087947   2.2667553  )
        20           N   tau(  20) = (   0.9132842   2.3451326   3.8709874  )
        21           C   tau(  21) = (   0.1091195   3.0183828   1.6420276  )
        22           C   tau(  22) = (   0.8674550   1.2820449   0.4038867  )
        23           C   tau(  23) = (   0.8440296   0.4542930   2.4498009  )
        24           C   tau(  24) = (   0.0856941   2.1906309   3.6879418  )
        25           C   tau(  25) = (   1.0656455   2.9997824   1.3360263  )
        26           C   tau(  26) = (  -0.0890709   1.2634445   0.7098879  )
        27           C   tau(  27) = (  -0.1124963   0.4728934   2.7558022  )
        28           C   tau(  28) = (   1.0422200   2.2092314   3.3819405  )
        29           C   tau(  29) = (   0.8436991   2.8197431   1.2340602  )
        30           C   tau(  30) = (   0.1328755   1.0834052   0.8118540  )
        31           C   tau(  31) = (   0.1094500   0.6529327   2.8577683  )
        32           C   tau(  32) = (   0.8202737   2.3892706   3.2799744  )
        33           H   tau(  33) = (   0.8066348   2.8073082   1.0012321  )
        34           H   tau(  34) = (   0.1699398   1.0709703   1.0446821  )
        35           H   tau(  35) = (   0.1465144   0.6653676   3.0905963  )
        36           H   tau(  36) = (   0.7832093   2.4017055   3.0471464  )
        37           C   tau(  37) = (   0.6700426   2.6555722   1.4209388  )
        38           C   tau(  38) = (   0.3065320   0.9192343   0.6249755  )
        39           C   tau(  39) = (   0.2831065   0.8171036   2.6708897  )
        40           C   tau(  40) = (   0.6466172   2.5534415   3.4668530  )
        41           C   tau(  41) = (   0.7255668   2.6857945   1.7246879  )
        42           C   tau(  42) = (   0.2510078   0.9494566   0.3212263  )
        43           C   tau(  43) = (   0.2275823   0.7868813   2.3671406  )
        44           C   tau(  44) = (   0.7021414   2.5232193   3.7706021  )
        45           C   tau(  45) = (   0.3170279   3.2170379   1.7889020  )
        46           C   tau(  46) = (   0.6595467   1.4807000   0.2570122  )
        47           C   tau(  47) = (   0.6361213   0.2556379   2.3029265  )
        48           C   tau(  48) = (   0.2936024   1.9919758   3.8348162  )
        49           H   tau(  49) = (   0.3306786  -0.0442612   1.6781614  )
        50           H   tau(  50) = (   0.6458960   1.6920767   0.3677528  )
        51           H   tau(  51) = (   0.6224706   3.5169370   2.4136671  )
        52           H   tau(  52) = (   0.3072532   1.7805991   3.7240756  )
        53           H   tau(  53) = (   0.5419894   3.1304190   1.7856450  )
        54           H   tau(  54) = (   0.4345852   1.3940811   0.2602693  )
        55           H   tau(  55) = (   0.4111597   0.3422568   2.3061835  )
        56           H   tau(  56) = (   0.5185640   2.0785947   3.8315592  )
        57           H   tau(  57) = (   0.2519090   3.2430570   2.0169718  )
        58           H   tau(  58) = (   0.7246656   1.5067191   0.0289424  )
        59           H   tau(  59) = (   0.7012401   0.2296188   2.0748567  )
        60           H   tau(  60) = (   0.2284836   1.9659567   4.0628860  )
        61           C   tau(  61) = (   0.5415453   2.5529794   1.9519096  )
        62           C   tau(  62) = (   0.4350293   0.8166414   0.0940046  )
        63           C   tau(  63) = (   0.4116039   0.9196965   2.1399188  )
        64           C   tau(  64) = (   0.5181198   2.6560344   3.9978238  )
        65           H   tau(  65) = (   0.6391056   2.5895997   2.1663910  )
        66           H   tau(  66) = (   0.2906181   0.8532618   3.9713517  )
        67           H   tau(  67) = (   0.3140435   0.8830761   1.9254375  )
        68           H   tau(  68) = (   0.6625311   2.6194140   0.1204767  )
        69           H   tau(  69) = (   0.4986743   2.3212950   1.9113032  )
        70           H   tau(  70) = (   0.4779003   0.5849571   0.1346110  )
        71           H   tau(  71) = (   0.4544748   1.1513808   2.1805252  )
        72           H   tau(  72) = (   0.4752489   2.8877187   3.9572175  )
        73           H   tau(  73) = (   0.3212378   2.6558190   1.9432315  )
        74           H   tau(  74) = (   0.6553367   0.9194811   0.1026827  )
        75           H   tau(  75) = (   0.6319113   0.8168568   2.1485970  )
        76           H   tau(  76) = (   0.2978124   2.5531947   3.9891457  )
        77           C   tau(  77) = (   0.2397585   3.1730703   1.1277930  )
        78           C   tau(  78) = (   0.7368161   1.4367324   0.9181212  )
        79           C   tau(  79) = (   0.7133906   0.2996055   2.9640354  )
        80           C   tau(  80) = (   0.2163331   2.0359434   3.1737073  )
        81           C   tau(  81) = (   0.1666576   3.4134385   0.6642174  )
        82           C   tau(  82) = (   0.8099170   1.6771005   1.3816968  )
        83           C   tau(  83) = (   0.7864916   0.0592374   3.4276111  )
        84           C   tau(  84) = (   0.1432321   1.7955753   2.7101316  )
        85           H   tau(  85) = (   0.3886087   3.3909817   0.5543380  )
        86           H   tau(  86) = (   0.5879658   1.6546438   1.4915762  )
        87           H   tau(  87) = (   0.5645404   0.0816941   3.5374905  )
        88           H   tau(  88) = (   0.3651833   1.8180320   2.6002522  )
        89           H   tau(  89) = (   0.1737527   0.1425073   0.7926897  )
        90           H   tau(  90) = (   0.8028218   1.8788452   1.2532245  )
        91           H   tau(  91) = (   0.7793964   3.3301685   3.2991387  )
        92           H   tau(  92) = (   0.1503273   1.5938306   2.8386040  )
        93           C   tau(  93) = (  -0.0748520   3.4087601   0.4503383  )
        94           C   tau(  94) = (   1.0514266   1.6724222   1.5955760  )
        95           C   tau(  95) = (   1.0280012   0.0639157   3.6414902  )
        96           C   tau(  96) = (  -0.0982775   1.8002536   2.4962525  )
        97           H   tau(  97) = (  -0.0744400   3.2098790   0.3171509  )
        98           H   tau(  98) = (   1.0510145   1.4735411   1.7287633  )
        99           H   tau(  99) = (   1.0275891   0.2627968   3.7746776  )
       100           H   tau( 100) = (  -0.0978654   1.9991347   2.3630651  )
       101           H   tau( 101) = (  -0.0672847   3.6017646   0.3090740  )
       102           H   tau( 102) = (   1.0438592   1.8654267   1.7368402  )
       103           H   tau( 103) = (   1.0204338  -0.1290888   3.7827545  )
       104           H   tau( 104) = (  -0.0907101   1.6072491   2.3549882  )
       105           H   tau( 105) = (   0.7110231   3.4154932   0.5725976  )
       106           H   tau( 106) = (   0.2655515   1.6791553   1.4733167  )
       107           H   tau( 107) = (   0.2421260   0.0571826   3.5192309  )
       108           H   tau( 108) = (   0.6875977   1.7935205   2.6185118  )
       109           C   tau( 109) = (   0.4351449   2.4649111   1.3087563  )
       110           C   tau( 110) = (   0.5414297   0.7285732   0.7371579  )
       111           C   tau( 111) = (   0.5180043   1.0077647   2.7830722  )
       112           C   tau( 112) = (   0.4117194   2.7441026   3.3546705  )
       113           C   tau( 113) = (   0.2080579   2.2788220   0.8779499  )
       114           C   tau( 114) = (   0.7685166   0.5424841   1.1679643  )
       115           C   tau( 115) = (   0.7450912   1.1938538   3.2138786  )
       116           C   tau( 116) = (   0.1846325   2.9301917   2.9238641  )
       117           H   tau( 117) = (  -0.0020168   2.3602181   0.9682631  )
       118           H   tau( 118) = (   0.9785914   0.6238802   1.0776512  )
       119           H   tau( 119) = (   0.9551659   1.1124577   3.1235654  )
       120           H   tau( 120) = (  -0.0254422   2.8487956   3.0141773  )
       121           H   tau( 121) = (   0.2283956   2.0462397   0.9310827  )
       122           H   tau( 122) = (   0.7481790   0.3099018   1.1148316  )
       123           H   tau( 123) = (   0.7247535   1.4264361   3.1607458  )
       124           H   tau( 124) = (   0.2049702   3.1627740   2.9769969  )
       125           C   tau( 125) = (   0.2321105   2.3324330   0.5545637  )
       126           C   tau( 126) = (   0.7444641   0.5960951   1.4913505  )
       127           C   tau( 127) = (   0.7210387   1.1402428   3.5372648  )
       128           C   tau( 128) = (   0.2086850   2.8765807   2.6004779  )
       129           H   tau( 129) = (   0.2134136   2.5659690   0.5050644  )
       130           H   tau( 130) = (   0.7631610   0.8296311   1.5408498  )
       131           H   tau( 131) = (   0.7397355   0.9067068   3.5867640  )
       132           H   tau( 132) = (   0.1899882   2.6430447   2.5509786  )
       133           H   tau( 133) = (   0.0565003   2.2204681   0.4396058  )
       134           H   tau( 134) = (   0.9200743   0.4841302   1.6063085  )
       135           H   tau( 135) = (   0.8966488   1.2522077   3.6522227  )
       136           H   tau( 136) = (   0.0330749   2.9885456   2.4855200  )
       137           H   tau( 137) = (   0.4407752   2.2553350   0.4725071  )
       138           H   tau( 138) = (   0.5357994   0.5189971   1.5734071  )
       139           H   tau( 139) = (   0.5123739   1.2173408   3.6193213  )
       140           H   tau( 140) = (   0.4173498   2.9536787   2.5184214  )

     number of k points=     6
                       cart. coord. in units 2pi/alat
        k(    1) = (   0.0000000   0.0000000   0.0000000), wk =   0.2500000
        k(    2) = (   0.0000000  -0.1439812   0.0000000), wk =   0.2500000
        k(    3) = (   0.2500000   0.0000000   0.0028625), wk =   0.5000000
        k(    4) = (   0.2500000  -0.1439812   0.0028625), wk =   0.5000000
        k(    5) = (  -0.5000000   0.0000000  -0.0057249), wk =   0.2500000
        k(    6) = (  -0.5000000  -0.1439812  -0.0057249), wk =   0.2500000

     Dense  grid:  1255397 G-vectors     FFT dimensions: (  60, 192, 240)

     Estimated max dynamical RAM per process >    1391.23MB

     Estimated total allocated dynamical RAM >   11129.85MB

     Check: negative/imaginary core charge=   -0.000002    0.000000

     Initial potential from superposition of free atoms

     starting charge  391.99714, renormalised to  392.00000
     Starting wfc are  356 randomized atomic wfcs
     Checking if some PAW data can be deallocated... 

     total cpu time spent up to now is       72.9 secs

     per-process dynamical memory:   888.4 Mb

     Self-consistent Calculation

     iteration #  1     ecut=   100.00 Ry     beta=0.50
     Davidson diagonalization with overlap
     ethr =  1.00E-02,  avg # of iterations =  3.7

     total cpu time spent up to now is      266.3 secs

     total energy              =   -1816.43752294 Ry
     Harris-Foulkes estimate   =   -1824.29438522 Ry
     estimated scf accuracy    <      14.86344805 Ry

     iteration #  2     ecut=   100.00 Ry     beta=0.50
     Davidson diagonalization with overlap
     ethr =  3.79E-03,  avg # of iterations =  2.0

     total cpu time spent up to now is      364.4 secs

     total energy              =   -1817.13851142 Ry
     Harris-Foulkes estimate   =   -1818.18533340 Ry
     estimated scf accuracy    <       2.04525849 Ry

     iteration #  3     ecut=   100.00 Ry     beta=0.50
     Davidson diagonalization with overlap
     ethr =  5.22E-04,  avg # of iterations =  5.0

     total cpu time spent up to now is      572.5 secs

     total energy              =   -1818.92504742 Ry
     Harris-Foulkes estimate   =   -1819.82050929 Ry
     estimated scf accuracy    <       2.52648958 Ry

     iteration #  4     ecut=   100.00 Ry     beta=0.50
     Davidson diagonalization with overlap
     ethr =  5.22E-04,  avg # of iterations =  1.7

     total cpu time spent up to now is      665.7 secs

     total energy              =   -1818.48873353 Ry
     Harris-Foulkes estimate   =   -1819.05367317 Ry
     estimated scf accuracy    <       0.85496199 Ry

     iteration #  5     ecut=   100.00 Ry     beta=0.50
     Davidson diagonalization with overlap
     ethr =  2.18E-04,  avg # of iterations =  6.3

     total cpu time spent up to now is      872.5 secs

     total energy              =   -1819.08608480 Ry
     Harris-Foulkes estimate   =   -1819.37803432 Ry
     estimated scf accuracy    <       1.00314457 Ry

     iteration #  6     ecut=   100.00 Ry     beta=0.50
     Davidson diagonalization with overlap
     ethr =  2.18E-04,  avg # of iterations =  1.0

     total cpu time spent up to now is      963.6 secs

     total energy              =   -1818.86169655 Ry
     Harris-Foulkes estimate   =   -1819.10795511 Ry
     estimated scf accuracy    <       0.48745495 Ry

     iteration #  7     ecut=   100.00 Ry     beta=0.50
     Davidson diagonalization with overlap
     ethr =  1.24E-04,  avg # of iterations =  4.2

     total cpu time spent up to now is     1110.8 secs

     total energy              =   -1819.05254017 Ry
     Harris-Foulkes estimate   =   -1819.06080045 Ry
     estimated scf accuracy    <       0.03155756 Ry

     iteration #  8     ecut=   100.00 Ry     beta=0.50
     Davidson diagonalization with overlap
     c_bands:  1 eigenvalues not converged
     c_bands:  2 eigenvalues not converged
     ethr =  8.05E-06,  avg # of iterations = 13.5

     total cpu time spent up to now is     1244.5 secs

     total energy              =   -1819.04661333 Ry
     Harris-Foulkes estimate   =   -1819.05449436 Ry
     estimated scf accuracy    <       0.01575465 Ry

     iteration #  9     ecut=   100.00 Ry     beta=0.50
     Davidson diagonalization with overlap
     ethr =  4.02E-06,  avg # of iterations = 11.5

     total cpu time spent up to now is     1429.2 secs

     total energy              =   -1819.05251332 Ry
     Harris-Foulkes estimate   =   -1819.05269636 Ry
     estimated scf accuracy    <       0.00116083 Ry

     iteration # 10     ecut=   100.00 Ry     beta=0.50
     Davidson diagonalization with overlap
     ethr =  2.96E-07,  avg # of iterations =  2.5

     total cpu time spent up to now is     1528.4 secs

     total energy              =   -1819.05219364 Ry
     Harris-Foulkes estimate   =   -1819.05262094 Ry
     estimated scf accuracy    <       0.00072888 Ry

     iteration # 11     ecut=   100.00 Ry     beta=0.50
     Davidson diagonalization with overlap
     ethr =  1.86E-07,  avg # of iterations =  3.3

     total cpu time spent up to now is     1678.4 secs

     total energy              =   -1819.05245011 Ry
     Harris-Foulkes estimate   =   -1819.05248353 Ry
     estimated scf accuracy    <       0.00011038 Ry

     iteration # 12     ecut=   100.00 Ry     beta=0.50
     Davidson diagonalization with overlap
     ethr =  2.82E-08,  avg # of iterations =  2.2

     total cpu time spent up to now is     1773.7 secs

     total energy              =   -1819.05243714 Ry
     Harris-Foulkes estimate   =   -1819.05245604 Ry
     estimated scf accuracy    <       0.00004602 Ry

     iteration # 13     ecut=   100.00 Ry     beta=0.50
     Davidson diagonalization with overlap
     ethr =  1.17E-08,  avg # of iterations =  4.0

     total cpu time spent up to now is     1930.8 secs

     total energy              =   -1819.05245553 Ry
     Harris-Foulkes estimate   =   -1819.05245568 Ry
     estimated scf accuracy    <       0.00000445 Ry

     iteration # 14     ecut=   100.00 Ry     beta=0.50
     Davidson diagonalization with overlap
     ethr =  1.14E-09,  avg # of iterations =  2.8

     total cpu time spent up to now is     2033.5 secs

     total energy              =   -1819.05245383 Ry
     Harris-Foulkes estimate   =   -1819.05245607 Ry
     estimated scf accuracy    <       0.00000456 Ry

     iteration # 15     ecut=   100.00 Ry     beta=0.50
     Davidson diagonalization with overlap
     ethr =  1.14E-09,  avg # of iterations =  3.2

     total cpu time spent up to now is     2135.5 secs

     total energy              =   -1819.05245423 Ry
     Harris-Foulkes estimate   =   -1819.05245440 Ry
     estimated scf accuracy    <       0.00000044 Ry

     iteration # 16     ecut=   100.00 Ry     beta=0.50
     Davidson diagonalization with overlap
     ethr =  1.11E-10,  avg # of iterations =  4.0

     total cpu time spent up to now is     2332.3 secs

     total energy              =   -1819.05245471 Ry
     Harris-Foulkes estimate   =   -1819.05245481 Ry
     estimated scf accuracy    <       0.00000022 Ry

     iteration # 17     ecut=   100.00 Ry     beta=0.50
     Davidson diagonalization with overlap
     ethr =  5.62E-11,  avg # of iterations =  1.3

     total cpu time spent up to now is     2424.2 secs

     total energy              =   -1819.05245467 Ry
     Harris-Foulkes estimate   =   -1819.05245472 Ry
     estimated scf accuracy    <       0.00000008 Ry

     iteration # 18     ecut=   100.00 Ry     beta=0.50
     Davidson diagonalization with overlap
     ethr =  1.96E-11,  avg # of iterations =  4.0

     total cpu time spent up to now is     2601.5 secs

     total energy              =   -1819.05245473 Ry
     Harris-Foulkes estimate   =   -1819.05245476 Ry
     estimated scf accuracy    <       0.00000009 Ry

     iteration # 19     ecut=   100.00 Ry     beta=0.50
     Davidson diagonalization with overlap
     ethr =  1.96E-11,  avg # of iterations =  1.0

     total cpu time spent up to now is     2692.7 secs

     total energy              =   -1819.05245471 Ry
     Harris-Foulkes estimate   =   -1819.05245473 Ry
     estimated scf accuracy    <       0.00000004 Ry

     iteration # 20     ecut=   100.00 Ry     beta=0.50
     Davidson diagonalization with overlap
     ethr =  9.78E-12,  avg # of iterations =  4.0

     total cpu time spent up to now is     2850.0 secs

     End of self-consistent calculation

          k = 0.0000 0.0000 0.0000 (156917 PWs)   bands (ev):

   -21.8595 -21.8595 -21.8550 -21.8550 -21.8057 -21.8057 -21.8011 -21.8011
   -19.6748 -19.6748 -19.6734 -19.6734 -19.6180 -19.6179 -19.6166 -19.6165
   -18.1315 -18.1314 -18.1306 -18.1305 -14.8871 -14.8837 -14.8804 -14.8780
   -14.4079 -14.4034 -14.4010 -14.3981 -13.6590 -13.6486 -13.6357 -13.6250
   -13.3260 -13.3254 -13.3136 -13.3050 -12.3000 -12.2786 -12.2427 -12.2321
   -12.0359 -12.0324 -12.0248 -11.9989 -10.4887 -10.4579 -10.4499 -10.4463
   -10.1213 -10.1136 -10.0835 -10.0505  -9.8286  -9.8033  -9.7570  -9.7486
    -9.2742  -9.2431  -9.2364  -9.2052  -8.5206  -8.5066  -8.4419  -8.4082
    -8.1380  -8.1371  -8.0453  -8.0431  -7.4740  -7.4683  -7.4184  -7.4074
    -6.7885  -6.7756  -6.7648  -6.7576  -6.4326  -6.4236  -6.3552  -6.3465
    -6.3007  -6.2988  -6.1740  -6.1515  -6.0855  -6.0813  -5.9421  -5.8868
    -5.8820  -5.8561  -5.8190  -5.8125  -5.6386  -5.5736  -5.5454  -5.5251
    -5.4116  -5.4031  -5.3997  -5.3981  -5.0786  -5.0478  -5.0318  -5.0104
    -4.7380  -4.7125  -4.6908  -4.6757  -4.5323  -4.5288  -4.5205  -4.5052
    -4.4831  -4.4424  -4.4159  -4.3988  -4.3938  -4.3656  -4.3574  -4.3392
    -4.2231  -4.2133  -4.1915  -4.1495  -4.0713  -4.0615  -4.0326  -3.9364
    -3.8806  -3.8577  -3.8233  -3.7689  -3.6911  -3.6752  -3.6730  -3.6637
    -3.5547  -3.5499  -3.5395  -3.5372  -3.5158  -3.5090  -3.5046  -3.4725
    -3.4689  -3.4519  -3.4205  -3.3804  -3.3633  -3.3328  -3.2775  -3.2684
    -3.2602  -3.2124  -3.2122  -3.1832  -2.8822  -2.8690  -2.8591  -2.8553
    -2.8277  -2.7740  -2.7515  -2.6936  -2.6083  -2.6048  -2.5707  -2.5239
    -2.0499  -2.0437  -2.0420  -2.0318  -1.6607  -1.6546  -1.6106  -1.6096
    -1.2283  -1.2186  -1.2041  -1.1990  -1.0360  -1.0336  -1.0168  -0.9831
    -0.7868  -0.7835  -0.7715  -0.7704  -0.6295  -0.6203  -0.5989  -0.5958
    -0.4745  -0.4523  -0.4268  -0.3975   2.9882   2.9972   3.0113   3.0160
     3.6018   3.6024   3.6375   3.6486   5.0248   5.0470   5.0731   5.0918
     5.1142   5.1865   5.4541   5.6152   5.6263   5.7119   6.0608   6.0618
     6.2035   6.3000   6.3369   6.4544   6.4778   6.5149   6.5409   6.7139
     6.7982   6.8532   6.9433   7.1783   7.2942   7.3398   7.3438   7.4527
     7.5568   7.6280   7.7636

          k = 0.0000-0.1440 0.0000 (156888 PWs)   bands (ev):

   -21.8574 -21.8574 -21.8574 -21.8574 -21.8033 -21.8033 -21.8033 -21.8033
   -19.6741 -19.6741 -19.6741 -19.6741 -19.6173 -19.6173 -19.6172 -19.6172
   -18.1314 -18.1314 -18.1305 -18.1305 -14.8838 -14.8838 -14.8809 -14.8809
   -14.4057 -14.4057 -14.3995 -14.3995 -13.6476 -13.6476 -13.6372 -13.6372
   -13.3197 -13.3197 -13.3146 -13.3146 -12.2904 -12.2904 -12.2362 -12.2362
   -12.0357 -12.0357 -12.0104 -12.0104 -10.4720 -10.4720 -10.4493 -10.4493
   -10.1179 -10.1179 -10.0673 -10.0673  -9.8161  -9.8161  -9.7521  -9.7521
    -9.2654  -9.2654  -9.2143  -9.2143  -8.4862  -8.4862  -8.4611  -8.4611
    -8.0887  -8.0887  -8.0852  -8.0852  -7.4464  -7.4464  -7.4376  -7.4376
    -6.7771  -6.7771  -6.7649  -6.7649  -6.4057  -6.4057  -6.3954  -6.3954
    -6.2326  -6.2326  -6.2241  -6.2241  -6.0147  -6.0147  -6.0103  -6.0103
    -5.8465  -5.8465  -5.7946  -5.7946  -5.6075  -5.6075  -5.5290  -5.5290
    -5.4095  -5.4095  -5.4002  -5.4002  -5.0587  -5.0587  -5.0305  -5.0305
    -4.7303  -4.7303  -4.6806  -4.6806  -4.5267  -4.5267  -4.5115  -4.5115
    -4.4498  -4.4498  -4.4071  -4.4071  -4.3796  -4.3796  -4.3606  -4.3606
    -4.2170  -4.2170  -4.1715  -4.1715  -4.0651  -4.0651  -4.0028  -4.0028
    -3.8487  -3.8487  -3.8121  -3.8121  -3.6736  -3.6736  -3.6592  -3.6592
    -3.5610  -3.5610  -3.5350  -3.5350  -3.5267  -3.5267  -3.4842  -3.4842
    -3.4408  -3.4408  -3.4141  -3.4141  -3.3456  -3.3456  -3.2746  -3.2746
    -3.2240  -3.2240  -3.2084  -3.2084  -2.8778  -2.8778  -2.8553  -2.8553
    -2.7964  -2.7964  -2.7393  -2.7393  -2.5870  -2.5870  -2.5541  -2.5541
    -2.0462  -2.0462  -2.0376  -2.0376  -1.6358  -1.6358  -1.6319  -1.6319
    -1.2180  -1.2180  -1.2111  -1.2111  -1.0278  -1.0278  -1.0035  -1.0035
    -0.7792  -0.7792  -0.7751  -0.7751  -0.6148  -0.6148  -0.6084  -0.6084
    -0.4666  -0.4666  -0.4089  -0.4089   2.9920   2.9920   3.0139   3.0139
     3.6199   3.6199   3.6250   3.6250   5.0508   5.0508   5.0651   5.0651
     5.2140   5.2140   5.3932   5.3932   5.6836   5.6836   6.1061   6.1061
     6.3442   6.3442   6.3726   6.3726   6.4939   6.4939   6.6109   6.6109
     6.8369   6.8369   7.0751   7.0751   7.1918   7.1918   7.4519   7.4519
     7.5904   7.5904   7.7429

          k = 0.2500 0.0000 0.0029 (156869 PWs)   bands (ev):

   -21.8454 -21.8454 -21.8424 -21.8424 -21.7966 -21.7966 -21.7935 -21.7935
   -19.6824 -19.6824 -19.6819 -19.6818 -19.6123 -19.6122 -19.6118 -19.6117
   -18.0870 -18.0869 -18.0864 -18.0863 -14.8674 -14.8667 -14.8629 -14.8622
   -14.5576 -14.5566 -14.5552 -14.5496 -13.6282 -13.6219 -13.6008 -13.5973
   -13.3185 -13.3124 -13.2937 -13.2881 -12.2513 -12.2461 -12.2088 -12.2036
   -12.1076 -12.0922 -12.0912 -12.0745 -10.4939 -10.4781 -10.4662 -10.4442
   -10.1461 -10.1107 -10.1065 -10.0631  -9.7638  -9.7547  -9.7338  -9.7170
    -9.2370  -9.2102  -9.2078  -9.1646  -8.5959  -8.5815  -8.5176  -8.5075
    -8.2102  -8.2091  -8.1390  -8.1386  -7.4990  -7.4984  -7.4744  -7.4726
    -6.7906  -6.7732  -6.7651  -6.7646  -6.6474  -6.6438  -6.4794  -6.4773
    -6.4038  -6.3957  -6.3149  -6.3091  -6.2440  -6.2322  -6.1466  -6.1428
    -5.9191  -5.9054  -5.8942  -5.8796  -5.7947  -5.7377  -5.7259  -5.7178
    -5.5337  -5.5227  -5.4595  -5.4434  -5.4177  -5.3900  -5.3846  -5.3808
    -4.7979  -4.7845  -4.7759  -4.7672  -4.6582  -4.6573  -4.6330  -4.5910
    -4.5080  -4.4404  -4.4326  -4.4155  -4.1929  -4.1574  -4.1446  -4.0659
    -4.0542  -4.0212  -4.0022  -3.9687  -3.8230  -3.8212  -3.8047  -3.7982
    -3.7757  -3.7451  -3.7221  -3.7210  -3.6978  -3.6724  -3.6336  -3.6289
    -3.5795  -3.5780  -3.5318  -3.5088  -3.4606  -3.4095  -3.3961  -3.3848
    -3.3726  -3.3176  -3.2992  -3.2680  -3.0998  -3.0981  -3.0962  -3.0487
    -2.9439  -2.9121  -2.8736  -2.8705  -2.8045  -2.7946  -2.7457  -2.7383
    -2.6914  -2.6538  -2.6208  -2.5980  -2.5449  -2.5389  -2.5114  -2.4814
    -1.6757  -1.6690  -1.6391  -1.6368  -1.4938  -1.4889  -1.4120  -1.4087
    -1.2539  -1.2485  -1.2142  -1.2139  -0.8823  -0.8781  -0.8386  -0.8289
    -0.6529  -0.6444  -0.6258  -0.6130  -0.5152  -0.5133  -0.5002  -0.4971
    -0.3910  -0.3861  -0.3809  -0.3632   3.0542   3.0579   3.0796   3.0825
     3.3733   3.3787   3.3925   3.3980   4.7740   4.7835   4.8065   4.8129
     5.3204   5.3759   5.7566   5.8043   5.9057   6.0104   6.1241   6.1247
     6.1772   6.2038   6.2679   6.2844   6.3779   6.5267   6.6889   6.8007
     6.8179   6.8846   7.0665   7.0985   7.1570   7.2051   7.2764   7.3470
     7.4272   7.4338   7.4994

          k = 0.2500-0.1440 0.0029 (156924 PWs)   bands (ev):

   -21.8439 -21.8439 -21.8439 -21.8439 -21.7950 -21.7950 -21.7950 -21.7950
   -19.6821 -19.6821 -19.6821 -19.6821 -19.6120 -19.6120 -19.6120 -19.6120
   -18.0870 -18.0870 -18.0863 -18.0863 -14.8652 -14.8652 -14.8644 -14.8644
   -14.5574 -14.5574 -14.5521 -14.5521 -13.6170 -13.6170 -13.6081 -13.6081
   -13.3060 -13.3060 -13.2993 -13.2993 -12.2493 -12.2493 -12.2053 -12.2053
   -12.1027 -12.1027 -12.0803 -12.0803 -10.4825 -10.4825 -10.4588 -10.4588
   -10.1362 -10.1362 -10.0770 -10.0770  -9.7606  -9.7606  -9.7240  -9.7240
    -9.2296  -9.2296  -9.1804  -9.1804  -8.5597  -8.5597  -8.5473  -8.5473
    -8.1720  -8.1720  -8.1707  -8.1707  -7.4872  -7.4872  -7.4847  -7.4847
    -6.7802  -6.7802  -6.7683  -6.7683  -6.5844  -6.5844  -6.5770  -6.5770
    -6.3636  -6.3636  -6.3497  -6.3497  -6.1636  -6.1636  -6.1543  -6.1543
    -5.9205  -5.9205  -5.8904  -5.8904  -5.7765  -5.7765  -5.7415  -5.7415
    -5.4969  -5.4969  -5.4639  -5.4639  -5.4099  -5.4099  -5.3788  -5.3788
    -4.7920  -4.7920  -4.7736  -4.7736  -4.6474  -4.6474  -4.6175  -4.6175
    -4.4777  -4.4777  -4.4220  -4.4220  -4.1745  -4.1745  -4.1165  -4.1165
    -4.0324  -4.0324  -3.9785  -3.9785  -3.8233  -3.8233  -3.8078  -3.8078
    -3.7563  -3.7563  -3.7273  -3.7273  -3.6698  -3.6698  -3.6359  -3.6359
    -3.5837  -3.5837  -3.5213  -3.5213  -3.4364  -3.4364  -3.3878  -3.3878
    -3.3509  -3.3509  -3.2761  -3.2761  -3.1034  -3.1034  -3.0688  -3.0688
    -2.9219  -2.9219  -2.8848  -2.8848  -2.7765  -2.7765  -2.7555  -2.7555
    -2.6603  -2.6603  -2.6382  -2.6382  -2.5250  -2.5250  -2.4988  -2.4988
    -1.6611  -1.6611  -1.6556  -1.6556  -1.4514  -1.4514  -1.4479  -1.4479
    -1.2330  -1.2330  -1.2285  -1.2285  -0.8622  -0.8622  -0.8547  -0.8547
    -0.6388  -0.6388  -0.6284  -0.6284  -0.5084  -0.5084  -0.5020  -0.5020
    -0.3897  -0.3897  -0.3711  -0.3711   3.0582   3.0582   3.0787   3.0787
     3.3821   3.3821   3.3892   3.3892   4.7789   4.7789   4.8097   4.8097
     5.3587   5.3587   5.7389   5.7389   5.9766   5.9766   6.1047   6.1047
     6.1933   6.1933   6.2728   6.2728   6.5293   6.5293   6.7299   6.7299
     6.7941   6.7941   7.1315   7.1315   7.1887   7.1887   7.3236   7.3236
     7.4138   7.4140   7.5292

          k =-0.5000 0.0000-0.0057 (156978 PWs)   bands (ev):

   -21.8307 -21.8307 -21.8296 -21.8296 -21.7875 -21.7875 -21.7863 -21.7863
   -19.6907 -19.6907 -19.6905 -19.6905 -19.6066 -19.6066 -19.6066 -19.6065
   -18.0396 -18.0395 -18.0393 -18.0393 -14.8595 -14.8567 -14.8560 -14.8533
   -14.6981 -14.6939 -14.6933 -14.6920 -13.6107 -13.5971 -13.5885 -13.5804
   -13.2885 -13.2809 -13.2675 -13.2524 -12.2123 -12.2059 -12.1898 -12.1694
   -12.1623 -12.1516 -12.1311 -12.1297 -10.5278 -10.5207 -10.5142 -10.4715
   -10.1758 -10.1468 -10.0971 -10.0860  -9.7176  -9.7020  -9.6994  -9.6982
    -9.2519  -9.2062  -9.2028  -9.1844  -8.6568  -8.6490  -8.5987  -8.5939
    -8.2395  -8.2366  -8.1976  -8.1948  -7.5681  -7.5541  -7.5458  -7.5312
    -6.9197  -6.9125  -6.8987  -6.8939  -6.6434  -6.6412  -6.6373  -6.6270
    -6.4729  -6.4485  -6.4398  -6.4374  -6.2147  -6.2125  -6.2051  -6.2050
    -6.0770  -6.0681  -6.0047  -5.9763  -5.7982  -5.7547  -5.7152  -5.6503
    -5.6178  -5.5887  -5.5604  -5.5552  -5.4438  -5.4149  -5.3828  -5.3580
    -4.9400  -4.9052  -4.8765  -4.8688  -4.6751  -4.6358  -4.6239  -4.5963
    -4.5826  -4.5806  -4.5653  -4.5632  -4.1868  -4.1574  -4.1205  -4.1192
    -4.0651  -4.0620  -4.0458  -3.9916  -3.8810  -3.8611  -3.8381  -3.8126
    -3.7869  -3.7708  -3.7598  -3.7358  -3.7089  -3.7078  -3.6690  -3.6578
    -3.6123  -3.5480  -3.5438  -3.5437  -3.4691  -3.4378  -3.4378  -3.4192
    -3.3377  -3.3237  -3.2590  -3.2515  -3.0165  -2.9694  -2.9656  -2.9447
    -2.7594  -2.7330  -2.7287  -2.6828  -2.5357  -2.5238  -2.4798  -2.4641
    -2.4217  -2.4041  -2.3903  -2.3838  -2.0946  -2.0482  -2.0443  -2.0434
    -1.3142  -1.3053  -1.2832  -1.2714  -1.0770  -1.0765  -1.0632  -1.0615
    -0.9943  -0.9897  -0.9865  -0.9757  -0.7276  -0.7250  -0.7056  -0.7028
    -0.6148  -0.6125  -0.6100  -0.6037  -0.5505  -0.5386  -0.5339  -0.5232
    -0.2429  -0.2379  -0.2252  -0.2220   2.9669   2.9693   2.9740   2.9906
     3.2028   3.2144   3.2244   3.2305   4.4683   4.4758   4.5071   4.5282
     5.7369   5.8033   5.8227   5.8482   5.9895   6.0064   6.1816   6.2178
     6.3555   6.4026   6.4445   6.4791   6.5731   6.5740   6.5908   6.7020
     6.7032   6.7595   6.8898   6.8927   6.9329   7.0420   7.0588   7.2212
     7.2380   7.2547   7.2810

          k =-0.5000-0.1440-0.0057 (157016 PWs)   bands (ev):

   -21.8301 -21.8301 -21.8301 -21.8301 -21.7869 -21.7869 -21.7869 -21.7869
   -19.6906 -19.6906 -19.6906 -19.6906 -19.6066 -19.6066 -19.6066 -19.6066
   -18.0396 -18.0396 -18.0393 -18.0393 -14.8578 -14.8578 -14.8550 -14.8550
   -14.6962 -14.6962 -14.6925 -14.6925 -13.6005 -13.6005 -13.5885 -13.5885
   -13.2783 -13.2783 -13.2656 -13.2656 -12.2112 -12.2112 -12.1779 -12.1779
   -12.1568 -12.1568 -12.1302 -12.1302 -10.5242 -10.5242 -10.4935 -10.4935
   -10.1624 -10.1624 -10.0902 -10.0902  -9.7098  -9.7098  -9.6986  -9.6986
    -9.2356  -9.2356  -9.1872  -9.1872  -8.6284  -8.6284  -8.6224  -8.6224
    -8.2183  -8.2183  -8.2147  -8.2147  -7.5565  -7.5565  -7.5421  -7.5421
    -6.9131  -6.9131  -6.9044  -6.9044  -6.6444  -6.6444  -6.6325  -6.6325
    -6.4342  -6.4342  -6.4242  -6.4242  -6.2409  -6.2409  -6.2377  -6.2377
    -6.0338  -6.0338  -6.0176  -6.0176  -5.7641  -5.7641  -5.6738  -5.6738
    -5.5976  -5.5976  -5.5681  -5.5681  -5.4312  -5.4312  -5.3708  -5.3708
    -4.9089  -4.9089  -4.8863  -4.8863  -4.6486  -4.6486  -4.6143  -4.6143
    -4.5899  -4.5899  -4.5610  -4.5610  -4.1750  -4.1750  -4.1111  -4.1111
    -4.0710  -4.0710  -4.0179  -4.0179  -3.8630  -3.8630  -3.8127  -3.8127
    -3.7960  -3.7960  -3.7510  -3.7510  -3.7130  -3.7130  -3.6557  -3.6557
    -3.5774  -3.5774  -3.5487  -3.5487  -3.4530  -3.4530  -3.4255  -3.4255
    -3.3333  -3.3333  -3.2546  -3.2546  -2.9972  -2.9972  -2.9546  -2.9546
    -2.7361  -2.7361  -2.7095  -2.7095  -2.5240  -2.5240  -2.4779  -2.4779
    -2.4134  -2.4134  -2.3899  -2.3899  -2.0778  -2.0778  -2.0359  -2.0359
    -1.2995  -1.2995  -1.2889  -1.2889  -1.0699  -1.0699  -1.0678  -1.0678
    -0.9937  -0.9937  -0.9796  -0.9796  -0.7181  -0.7181  -0.7139  -0.7139
    -0.6113  -0.6113  -0.6058  -0.6058  -0.5468  -0.5468  -0.5278  -0.5278
    -0.2406  -0.2406  -0.2234  -0.2234   2.9667   2.9667   2.9837   2.9837
     3.2148   3.2148   3.2210   3.2210   4.4731   4.4731   4.5166   4.5166
     5.7679   5.7679   5.8428   5.8428   5.9873   5.9873   6.2124   6.2124
     6.4074   6.4074   6.4614   6.4614   6.5155   6.5155   6.6765   6.6765
     6.7490   6.7490   6.8778   6.8778   6.9376   6.9376   7.1825   7.1825
     7.2285   7.2285   7.2841

     highest occupied, lowest unoccupied level (ev):    -0.2220    2.9667

!    total energy              =   -1819.05245473 Ry
     Harris-Foulkes estimate   =   -1819.05245473 Ry
     estimated scf accuracy    <          8.9E-09 Ry

     total all-electron energy =     -6889.530917 Ry

     The total energy is the sum of the following terms:

     one-electron contribution =   -1525.40231569 Ry
     hartree contribution      =     902.19590409 Ry
     xc contribution           =    -404.18786700 Ry
     ewald contribution        =    -259.75721925 Ry
     Dispersion Correction     =      -0.59144371 Ry
     one-center paw contrib.   =    -531.30951318 Ry

     convergence has been achieved in  20 iterations

     Forces acting on atoms (cartesian axes, Ry/au):

     atom    1 type  4   force =    -0.01075829    0.00593157   -0.00511799
     atom    2 type  4   force =     0.01075829    0.00593157    0.00511799
     atom    3 type  4   force =     0.01075829   -0.00593157    0.00511799
     atom    4 type  4   force =    -0.01075829   -0.00593157   -0.00511799
     atom    5 type  4   force =    -0.00270668   -0.00013878    0.00001262
     atom    6 type  4   force =     0.00270668   -0.00013878   -0.00001262
     atom    7 type  4   force =     0.00270668    0.00013878   -0.00001262
     atom    8 type  4   force =    -0.00270668    0.00013878    0.00001262
     atom    9 type  4   force =     0.01155419   -0.00408866   -0.00107133
     atom   10 type  4   force =    -0.01155419   -0.00408866    0.00107133
     atom   11 type  4   force =    -0.01155419    0.00408866    0.00107133
     atom   12 type  4   force =     0.01155419    0.00408866   -0.00107133
     atom   13 type  4   force =     0.00031426    0.01224397    0.01883564
     atom   14 type  4   force =    -0.00031426    0.01224397   -0.01883564
     atom   15 type  4   force =    -0.00031426   -0.01224397   -0.01883564
     atom   16 type  4   force =     0.00031426   -0.01224397    0.01883564
     atom   17 type  2   force =     0.00583721   -0.00012356   -0.01621229
     atom   18 type  2   force =    -0.00583721   -0.00012356    0.01621229
     atom   19 type  2   force =    -0.00583721    0.00012356    0.01621229
     atom   20 type  2   force =     0.00583721    0.00012356   -0.01621229
     atom   21 type  1   force =    -0.03263416   -0.00733648   -0.00957833
     atom   22 type  1   force =     0.03263416   -0.00733648    0.00957833
     atom   23 type  1   force =     0.03263416    0.00733648    0.00957833
     atom   24 type  1   force =    -0.03263416    0.00733648   -0.00957833
     atom   25 type  1   force =     0.00604585   -0.00265625    0.01662566
     atom   26 type  1   force =    -0.00604585   -0.00265625   -0.01662566
     atom   27 type  1   force =    -0.00604585    0.00265625   -0.01662566
     atom   28 type  1   force =     0.00604585    0.00265625    0.01662566
     atom   29 type  1   force =    -0.00465531   -0.00740741   -0.00242254
     atom   30 type  1   force =     0.00465531   -0.00740741    0.00242254
     atom   31 type  1   force =     0.00465531    0.00740741    0.00242254
     atom   32 type  1   force =    -0.00465531    0.00740741   -0.00242254
     atom   33 type  3   force =    -0.00231468    0.00101322   -0.00153479
     atom   34 type  3   force =     0.00231468    0.00101322    0.00153479
     atom   35 type  3   force =     0.00231468   -0.00101322    0.00153479
     atom   36 type  3   force =    -0.00231468   -0.00101322   -0.00153479
     atom   37 type  1   force =     0.01289159    0.00520406    0.01590092
     atom   38 type  1   force =    -0.01289159    0.00520406   -0.01590092
     atom   39 type  1   force =    -0.01289159   -0.00520406   -0.01590092
     atom   40 type  1   force =     0.01289159   -0.00520406    0.01590092
     atom   41 type  1   force =     0.01043223    0.00672693   -0.01649088
     atom   42 type  1   force =    -0.01043223    0.00672693    0.01649088
     atom   43 type  1   force =    -0.01043223   -0.00672693    0.01649088
     atom   44 type  1   force =     0.01043223   -0.00672693   -0.01649088
     atom   45 type  1   force =     0.01637751    0.01115414    0.00239816
     atom   46 type  1   force =    -0.01637751    0.01115414   -0.00239816
     atom   47 type  1   force =    -0.01637751   -0.01115414   -0.00239816
     atom   48 type  1   force =     0.01637751   -0.01115414    0.00239816
     atom   49 type  3   force =    -0.00281546    0.00001894    0.00131886
     atom   50 type  3   force =     0.00281546    0.00001894   -0.00131886
     atom   51 type  3   force =     0.00281546   -0.00001894   -0.00131886
     atom   52 type  3   force =    -0.00281546   -0.00001894    0.00131886
     atom   53 type  3   force =    -0.01621069    0.00930064   -0.00015195
     atom   54 type  3   force =     0.01621069    0.00930064    0.00015195
     atom   55 type  3   force =     0.01621069   -0.00930064    0.00015195
     atom   56 type  3   force =    -0.01621069   -0.00930064   -0.00015195
     atom   57 type  3   force =    -0.00046642    0.00089792    0.00016025
     atom   58 type  3   force =     0.00046642    0.00089792   -0.00016025
     atom   59 type  3   force =     0.00046642   -0.00089792   -0.00016025
     atom   60 type  3   force =    -0.00046642   -0.00089792    0.00016025
     atom   61 type  1   force =    -0.01852731   -0.00929765    0.01004556
     atom   62 type  1   force =     0.01852731   -0.00929765   -0.01004556
     atom   63 type  1   force =     0.01852731    0.00929765   -0.01004556
     atom   64 type  1   force =    -0.01852731    0.00929765    0.01004556
     atom   65 type  3   force =    -0.00023858   -0.00143270    0.00077320
     atom   66 type  3   force =     0.00023858   -0.00143270   -0.00077320
     atom   67 type  3   force =     0.00023858    0.00143270   -0.00077320
     atom   68 type  3   force =    -0.00023858    0.00143270    0.00077320
     atom   69 type  3   force =     0.00390454   -0.00085208    0.00167723
     atom   70 type  3   force =    -0.00390454   -0.00085208   -0.00167723
     atom   71 type  3   force =    -0.00390454    0.00085208   -0.00167723
     atom   72 type  3   force =     0.00390454    0.00085208    0.00167723
     atom   73 type  3   force =     0.01818765   -0.01072333    0.00983889
     atom   74 type  3   force =    -0.01818765   -0.01072333   -0.00983889
     atom   75 type  3   force =    -0.01818765    0.01072333   -0.00983889
     atom   76 type  3   force =     0.01818765    0.01072333    0.00983889
     atom   77 type  1   force =     0.00374616    0.01404008   -0.00437562
     atom   78 type  1   force =    -0.00374616    0.01404008    0.00437562
     atom   79 type  1   force =    -0.00374616   -0.01404008    0.00437562
     atom   80 type  1   force =     0.00374616   -0.01404008   -0.00437562
     atom   81 type  1   force =     0.06130827   -0.00497249   -0.00162051
     atom   82 type  1   force =    -0.06130827   -0.00497249    0.00162051
     atom   83 type  1   force =    -0.06130827    0.00497249    0.00162051
     atom   84 type  1   force =     0.06130827    0.00497249   -0.00162051
     atom   85 type  3   force =    -0.05172049   -0.00157959    0.02261978
     atom   86 type  3   force =     0.05172049   -0.00157959   -0.02261978
     atom   87 type  3   force =     0.05172049    0.00157959   -0.02261978
     atom   88 type  3   force =    -0.05172049    0.00157959    0.02261978
     atom   89 type  3   force =    -0.00238792    0.00140731    0.00072158
     atom   90 type  3   force =     0.00238792    0.00140731   -0.00072158
     atom   91 type  3   force =     0.00238792   -0.00140731   -0.00072158
     atom   92 type  3   force =    -0.00238792   -0.00140731    0.00072158
     atom   93 type  1   force =    -0.05226775    0.00438639   -0.00086602
     atom   94 type  1   force =     0.05226775    0.00438639    0.00086602
     atom   95 type  1   force =     0.05226775   -0.00438639    0.00086602
     atom   96 type  1   force =    -0.05226775   -0.00438639   -0.00086602
     atom   97 type  3   force =     0.00303031    0.00022452   -0.00127610
     atom   98 type  3   force =    -0.00303031    0.00022452    0.00127610
     atom   99 type  3   force =    -0.00303031   -0.00022452    0.00127610
     atom  100 type  3   force =     0.00303031   -0.00022452   -0.00127610
     atom  101 type  3   force =     0.00123130   -0.00183625    0.00019401
     atom  102 type  3   force =    -0.00123130   -0.00183625   -0.00019401
     atom  103 type  3   force =    -0.00123130    0.00183625   -0.00019401
     atom  104 type  3   force =     0.00123130    0.00183625    0.00019401
     atom  105 type  3   force =     0.04560400    0.00222846   -0.02031769
     atom  106 type  3   force =    -0.04560400    0.00222846    0.02031769
     atom  107 type  3   force =    -0.04560400   -0.00222846    0.02031769
     atom  108 type  3   force =     0.04560400   -0.00222846   -0.02031769
     atom  109 type  1   force =    -0.00665248   -0.01297035   -0.01336842
     atom  110 type  1   force =     0.00665248   -0.01297035    0.01336842
     atom  111 type  1   force =     0.00665248    0.01297035    0.01336842
     atom  112 type  1   force =    -0.00665248    0.01297035   -0.01336842
     atom  113 type  1   force =    -0.01457610   -0.00128812    0.00398551
     atom  114 type  1   force =     0.01457610   -0.00128812   -0.00398551
     atom  115 type  1   force =     0.01457610    0.00128812   -0.00398551
     atom  116 type  1   force =    -0.01457610    0.00128812    0.00398551
     atom  117 type  3   force =     0.01937991   -0.00646351   -0.00615043
     atom  118 type  3   force =    -0.01937991   -0.00646351    0.00615043
     atom  119 type  3   force =    -0.01937991    0.00646351    0.00615043
     atom  120 type  3   force =     0.01937991    0.00646351   -0.00615043
     atom  121 type  3   force =     0.00056733   -0.00074637    0.00063875
     atom  122 type  3   force =    -0.00056733   -0.00074637   -0.00063875
     atom  123 type  3   force =    -0.00056733    0.00074637   -0.00063875
     atom  124 type  3   force =     0.00056733    0.00074637    0.00063875
     atom  125 type  1   force =    -0.00695683    0.00993686    0.00614468
     atom  126 type  1   force =     0.00695683    0.00993686   -0.00614468
     atom  127 type  1   force =     0.00695683   -0.00993686   -0.00614468
     atom  128 type  1   force =    -0.00695683   -0.00993686    0.00614468
     atom  129 type  3   force =     0.00038400   -0.00045311    0.00061707
     atom  130 type  3   force =    -0.00038400   -0.00045311   -0.00061707
     atom  131 type  3   force =    -0.00038400    0.00045311   -0.00061707
     atom  132 type  3   force =     0.00038400    0.00045311    0.00061707
     atom  133 type  3   force =    -0.00367257   -0.00504110   -0.00509160
     atom  134 type  3   force =     0.00367257   -0.00504110    0.00509160
     atom  135 type  3   force =     0.00367257    0.00504110    0.00509160
     atom  136 type  3   force =    -0.00367257    0.00504110   -0.00509160
     atom  137 type  3   force =     0.00900903   -0.00552414   -0.00672040
     atom  138 type  3   force =    -0.00900903   -0.00552414    0.00672040
     atom  139 type  3   force =    -0.00900903    0.00552414    0.00672040
     atom  140 type  3   force =     0.00900903    0.00552414   -0.00672040

     Total force =     0.278915     Total SCF correction =     0.000145


     Computing stress (Cartesian axis) and pressure

          total   stress  (Ry/bohr**3)                   (kbar)     P=    1.44
   0.00001265   0.00000000   0.00004075          1.86      0.00      5.99
   0.00000000   0.00004170   0.00000000          0.00      6.13      0.00
   0.00004075   0.00000000  -0.00002500          5.99      0.00     -3.68


     Writing output data file scf.save
 
     init_run     :     69.38s CPU     72.22s WALL (       1 calls)
     electrons    :   2651.44s CPU   2777.34s WALL (       1 calls)
     forces       :     36.58s CPU     36.96s WALL (       1 calls)
     stress       :    241.78s CPU    242.31s WALL (       1 calls)

     Called by init_run:
     wfcinit      :     51.64s CPU     54.25s WALL (       1 calls)
     potinit      :      6.24s CPU      6.27s WALL (       1 calls)

     Called by electrons:
     c_bands      :   2372.16s CPU   2478.02s WALL (      20 calls)
     sum_band     :    250.39s CPU    267.32s WALL (      20 calls)
     v_of_rho     :      4.09s CPU      4.46s WALL (      21 calls)
     newd         :     10.64s CPU     13.39s WALL (      21 calls)
     PAW_pot      :     12.96s CPU     12.96s WALL (      21 calls)
     mix_rho      :      1.13s CPU      1.22s WALL (      20 calls)

     Called by c_bands:
     init_us_2    :     16.94s CPU     17.00s WALL (     258 calls)
     cegterg      :   2309.47s CPU   2415.05s WALL (     120 calls)

     Called by sum_band:
     sum_band:bec :      0.12s CPU      0.12s WALL (     120 calls)
     addusdens    :     11.25s CPU     13.89s WALL (      20 calls)

     Called by *egterg:
     h_psi        :   1273.29s CPU   1357.29s WALL (     613 calls)
     s_psi        :    271.72s CPU    271.75s WALL (     613 calls)
     g_psi        :      8.63s CPU      8.63s WALL (     487 calls)
     cdiaghg      :    123.54s CPU    123.55s WALL (     607 calls)

     Called by h_psi:
     h_psi:pot    :   1263.20s CPU   1347.05s WALL (     613 calls)
     h_psi:calbec :    260.89s CPU    261.33s WALL (     613 calls)
     vloc_psi     :    730.65s CPU    814.02s WALL (     613 calls)
     add_vuspsi   :    271.66s CPU    271.70s WALL (     613 calls)

     General routines
     calbec       :    376.58s CPU    377.19s WALL (     763 calls)
     fft          :      2.30s CPU      2.91s WALL (     297 calls)
     fftw         :    773.36s CPU    870.51s WALL (  192028 calls)
 
     Parallel routines
     fft_scatter  :    163.79s CPU    260.76s WALL (  192325 calls)
 
     PWSCF        : 50m14.42s CPU    53m 1.38s WALL

 
   This run was terminated on:   3:31:49  13Dec2017            

=------------------------------------------------------------------------------=
   JOB DONE.
=------------------------------------------------------------------------------=
