
     Program PWSCF v.6.1 (svn rev. 13369) starts on 18Dec2017 at 11:36: 7 

     This program is part of the open-source Quantum ESPRESSO suite
     for quantum simulation of materials; please cite
         "P. Giannozzi et al., J. Phys.:Condens. Matter 21 395502 (2009);
          URL http://www.quantum-espresso.org", 
     in publications or presentations arising from this work. More details at
     http://www.quantum-espresso.org/quote

     Parallel version (MPI), running on     8 processors
     R & G space division:  proc/nbgrp/npool/nimage =       8
     Waiting for input...
     Reading input from standard input

     Current dimensions of program PWSCF are:
     Max number of different atomic species (ntypx) = 10
     Max number of k-points (npk) =  40000
     Max angular momentum in pseudopotentials (lmaxx) =  3
               file C.pbe-n-kjpaw_psl.0.1.UPF: wavefunction(s)  2P renormalized
               file N.pbe-n-kjpaw_psl.0.1.UPF: wavefunction(s)  2P renormalized
               file H.pbe-kjpaw_psl.0.1.UPF: wavefunction(s)  1S renormalized
               file O.pbe-n-kjpaw_psl.0.1.UPF: wavefunction(s)  2P renormalized

     -------------------------------------
     Parameters for Dispersion Correction:
     -------------------------------------
       atom      VdW radius       C_6     

        C          2.744         60.710
        N          2.640         42.670
        H          1.892          4.857
        O          2.536         24.284

     Subspace diagonalization in iterative solution of the eigenvalue problem:
     a serial algorithm will be used

 
     Parallelization info
     --------------------
     sticks:   dense  smooth     PW     G-vecs:    dense   smooth      PW
     Min         756     756    207                71784    71784   10200
     Max         757     757    208                71787    71787   10203
     Sum        6053    6053   1657               574289   574289   81613
 


     bravais-lattice index     =            0
     lattice parameter (alat)  =      21.9019  a.u.
     unit-cell volume          =    4251.1996 (a.u.)^3
     number of atoms/cell      =           64
     number of atomic types    =            4
     number of electrons       =       200.00
     number of Kohn-Sham states=          120
     kinetic-energy cutoff     =     100.0000  Ry
     charge density cutoff     =     400.0000  Ry
     convergence threshold     =      1.0E-08
     mixing beta               =       0.5000
     number of iterations used =            8  plain     mixing
     Exchange-correlation      =  SLA  PW   PBX  PBC ( 1  4  3  4 0 0)

     celldm(1)=  21.901926  celldm(2)=   0.000000  celldm(3)=   0.000000
     celldm(4)=   0.000000  celldm(5)=   0.000000  celldm(6)=   0.000000

     crystal axes: (cart. coord. in units of alat)
               a(1) = (   1.000000   0.000000   0.000000 )  
               a(2) = (   0.000000   0.397161   0.000000 )  
               a(3) = (  -0.369089   0.000000   1.018820 )  

     reciprocal axes: (cart. coord. in units 2 pi/alat)
               b(1) = (  1.000000  0.000000  0.362271 )  
               b(2) = (  0.000000  2.517868  0.000000 )  
               b(3) = (  0.000000  0.000000  0.981527 )  


     PseudoPot. # 1 for  C read from file:
     /scratch/ahofstet/pseudo/C.pbe-n-kjpaw_psl.0.1.UPF
     MD5 check sum: 430fe95172b1e11ef3f8ed03bac87931
     Pseudo is Projector augmented-wave + core cor, Zval =  4.0
     Generated using "atomic" code by A. Dal Corso  v.5.0.99 svn rev. 10869
     Shape of augmentation charge: BESSEL
     Using radial grid of 1073 points,  4 beta functions with: 
                l(1) =   0
                l(2) =   0
                l(3) =   1
                l(4) =   1
     Q(r) pseudized with 0 coefficients 


     PseudoPot. # 2 for  N read from file:
     /scratch/ahofstet/pseudo/N.pbe-n-kjpaw_psl.0.1.UPF
     MD5 check sum: f73187c8b701007e77325f868c9291d7
     Pseudo is Projector augmented-wave + core cor, Zval =  5.0
     Generated using "atomic" code by A. Dal Corso  v.5.0.99 svn rev. 10869
     Shape of augmentation charge: PSQ
     Using radial grid of 1085 points,  4 beta functions with: 
                l(1) =   0
                l(2) =   0
                l(3) =   1
                l(4) =   1
     Q(r) pseudized with 0 coefficients 


     PseudoPot. # 3 for  H read from file:
     /scratch/ahofstet/pseudo/H.pbe-kjpaw_psl.0.1.UPF
     MD5 check sum: 94e484f906d9e9773b2f6e52662335b2
     Pseudo is Projector augmented-wave, Zval =  1.0
     Generated using "atomic" code by A. Dal Corso  v.5.0.99 svn rev. 10869
     Shape of augmentation charge: PSQ
     Using radial grid of  929 points,  2 beta functions with: 
                l(1) =   0
                l(2) =   0
     Q(r) pseudized with 0 coefficients 


     PseudoPot. # 4 for  O read from file:
     /scratch/ahofstet/pseudo/O.pbe-n-kjpaw_psl.0.1.UPF
     MD5 check sum: 3f94a2996a3169367d6eb21d9b593f20
     Pseudo is Projector augmented-wave + core cor, Zval =  6.0
     Generated using "atomic" code by A. Dal Corso  v.5.0.99 svn rev. 10869
     Shape of augmentation charge: BESSEL
     Using radial grid of 1095 points,  4 beta functions with: 
                l(1) =   0
                l(2) =   0
                l(3) =   1
                l(4) =   1
     Q(r) pseudized with 0 coefficients 


     atomic species   valence    mass     pseudopotential
        C              4.00    12.01070      C( 1.00)
        N              5.00    14.00670      N( 1.00)
        H              1.00     1.00794      H( 1.00)
        O              6.00    15.99940      O( 1.00)

      2 Sym. Ops., with inversion, found



   Cartesian axes

     site n.     atom                  positions (alat units)
         1           N   tau(   1) = (   0.0922291   0.2999154   0.0671773  )
         2           N   tau(   2) = (   0.7235726   0.1012269   0.4420578  )
         3           N   tau(   3) = (   0.5386815   0.0972460   0.9516431  )
         4           N   tau(   4) = (  -0.0926620   0.2959345   0.5767626  )
         5           N   tau(   5) = (   0.0498105   0.3359147   0.1675624  )
         6           N   tau(   6) = (   0.7657222   0.1374834   0.3416109  )
         7           N   tau(   7) = (   0.5811001   0.0612466   0.8512580  )
         8           N   tau(   8) = (  -0.1348116   0.2596780   0.6772094  )
         9           N   tau(   9) = (   0.0956543   0.2921552   0.2634054  )
        10           N   tau(  10) = (   0.7194926   0.0940637   0.2458120  )
        11           N   tau(  11) = (   0.5352563   0.1050062   0.7554149  )
        12           N   tau(  12) = (  -0.0885820   0.3030977   0.7730083  )
        13           C   tau(  13) = (   0.1720018   0.2122273   0.2224822  )
        14           C   tau(  14) = (   0.6432833   0.4111626   0.2868009  )
        15           C   tau(  15) = (   0.4589088   0.1849340   0.7963381  )
        16           C   tau(  16) = (  -0.0123727  -0.0140012   0.7320195  )
        17           C   tau(  17) = (   0.2302185   0.1240665   0.2804160  )
        18           C   tau(  18) = (   0.5849499   0.3231124   0.2288278  )
        19           C   tau(  19) = (   0.4006921   0.2730949   0.7384044  )
        20           C   tau(  20) = (   0.0459607   0.0740490   0.7899925  )
        21           C   tau(  21) = (   0.2850861   0.0417475   0.2131038  )
        22           C   tau(  22) = (   0.5304232   0.2404229   0.2959539  )
        23           C   tau(  23) = (   0.3458245   0.3554138   0.8057165  )
        24           C   tau(  24) = (   0.1004874   0.1567385   0.7228665  )
        25           C   tau(  25) = (   0.2821725   0.0465168   0.0906528  )
        26           C   tau(  26) = (   0.5335531   0.2449017   0.4184126  )
        27           C   tau(  27) = (   0.3487381   0.3506446   0.9281675  )
        28           C   tau(  28) = (   0.0973575   0.1522596   0.6004077  )
        29           C   tau(  29) = (  -0.1420911   0.1350436   1.0505588  )
        30           C   tau(  30) = (   0.5888722   0.3332944   0.4773932  )
        31           C   tau(  31) = (   0.7730017   0.2621177  -0.0317385  )
        32           C   tau(  32) = (   0.0420384   0.0638670   0.5414271  )
        33           C   tau(  33) = (   0.1712405   0.2182195   0.0988448  )
        34           C   tau(  34) = (   0.6444738   0.0195989   0.4104605  )
        35           C   tau(  35) = (   0.4596701   0.1789419   0.9199756  )
        36           C   tau(  36) = (  -0.0135632   0.3775625   0.6083598  )
        37           N   tau(  37) = (  -0.0341026   0.4207616   0.1741469  )
        38           N   tau(  38) = (   0.8497009   0.2223184   0.3351051  )
        39           N   tau(  39) = (   0.6650132  -0.0236002   0.8446734  )
        40           N   tau(  40) = (  -0.2187903   0.1748430   0.6837152  )
        41           H   tau(  41) = (   0.2291529   0.1180459   0.3741782  )
        42           H   tau(  42) = (   0.5854265   0.3175760   0.1350438  )
        43           H   tau(  43) = (   0.4017577   0.2791155   0.6446421  )
        44           H   tau(  44) = (   0.0454841   0.0795854   0.8837766  )
        45           H   tau(  45) = (   0.3279581  -0.0308144   0.2544539  )
        46           H   tau(  46) = (   0.4873021   0.1681191   0.2543763  )
        47           H   tau(  47) = (   0.3029525   0.4279757   0.7643664  )
        48           H   tau(  48) = (   0.1436085   0.2290423   0.7644441  )
        49           H   tau(  49) = (  -0.0492267  -0.0246086   1.0608096  )
        50           H   tau(  50) = (   0.4959120   0.1737905   0.4671339  )
        51           H   tau(  51) = (   0.6801373   0.4217699  -0.0419893  )
        52           H   tau(  52) = (   0.1349986   0.2233709   0.5516865  )
        53           H   tau(  53) = (  -0.1446616   0.1384428   0.9566820  )
        54           H   tau(  54) = (   0.5916183  -0.0610956   0.5712790  )
        55           H   tau(  55) = (   0.7755722   0.2587185   0.0621383  )
        56           H   tau(  56) = (   0.0392923   0.4582569   0.4475413  )
        57           H   tau(  57) = (   0.8945941   0.3842473   0.2124814  )
        58           H   tau(  58) = (  -0.0788828   0.1858729   0.2968729  )
        59           H   tau(  59) = (  -0.2636835   0.0129140   0.8063390  )
        60           H   tau(  60) = (   0.7097934   0.2112884   0.7219474  )
        61           H   tau(  61) = (   0.9459141   0.4448093   0.0901949  )
        62           H   tau(  62) = (  -0.1303497   0.2461055   0.4191277  )
        63           H   tau(  63) = (  -0.3150035  -0.0476480   0.9286255  )
        64           H   tau(  64) = (   0.7612603   0.1510558   0.5996926  )

     number of k points=    12
                       cart. coord. in units 2pi/alat
        k(    1) = (   0.0000000   0.0000000   0.0000000), wk =   0.1250000
        k(    2) = (   0.0000000   0.0000000  -0.4907637), wk =   0.1250000
        k(    3) = (   0.0000000   0.6294671   0.0000000), wk =   0.2500000
        k(    4) = (   0.0000000   0.6294671  -0.4907637), wk =   0.2500000
        k(    5) = (   0.0000000  -1.2589342   0.0000000), wk =   0.1250000
        k(    6) = (   0.0000000  -1.2589342  -0.4907637), wk =   0.1250000
        k(    7) = (  -0.5000000   0.0000000  -0.1811357), wk =   0.1250000
        k(    8) = (  -0.5000000   0.0000000  -0.6718993), wk =   0.1250000
        k(    9) = (  -0.5000000   0.6294671  -0.1811357), wk =   0.2500000
        k(   10) = (  -0.5000000   0.6294671  -0.6718993), wk =   0.2500000
        k(   11) = (  -0.5000000  -1.2589342  -0.1811357), wk =   0.1250000
        k(   12) = (  -0.5000000  -1.2589342  -0.6718993), wk =   0.1250000

     Dense  grid:   574289 G-vectors     FFT dimensions: ( 144,  60, 160)

     Estimated max dynamical RAM per process >     447.03MB

     Estimated total allocated dynamical RAM >    3576.22MB

     Check: negative/imaginary core charge=   -0.000002    0.000000

     Initial potential from superposition of free atoms

     starting charge  199.99866, renormalised to  200.00000
     Starting wfc are  184 randomized atomic wfcs
     Checking if some PAW data can be deallocated... 

     total cpu time spent up to now is       30.3 secs

     per-process dynamical memory:   352.6 Mb

     Self-consistent Calculation

     iteration #  1     ecut=   100.00 Ry     beta=0.50
     Davidson diagonalization with overlap
     ethr =  1.00E-02,  avg # of iterations =  4.2

     total cpu time spent up to now is      106.8 secs

     total energy              =    -920.71366488 Ry
     Harris-Foulkes estimate   =    -924.34656758 Ry
     estimated scf accuracy    <       6.80640122 Ry

     iteration #  2     ecut=   100.00 Ry     beta=0.50
     Davidson diagonalization with overlap
     ethr =  3.40E-03,  avg # of iterations =  1.5

     total cpu time spent up to now is      144.8 secs

     total energy              =    -920.90852627 Ry
     Harris-Foulkes estimate   =    -921.59757204 Ry
     estimated scf accuracy    <       1.34239469 Ry

     iteration #  3     ecut=   100.00 Ry     beta=0.50
     Davidson diagonalization with overlap
     ethr =  6.71E-04,  avg # of iterations =  5.8

     total cpu time spent up to now is      230.9 secs

     total energy              =    -921.83473222 Ry
     Harris-Foulkes estimate   =    -922.24427463 Ry
     estimated scf accuracy    <       1.03628777 Ry

     iteration #  4     ecut=   100.00 Ry     beta=0.50
     Davidson diagonalization with overlap
     ethr =  5.18E-04,  avg # of iterations =  3.7

     total cpu time spent up to now is      271.9 secs

     total energy              =    -921.82101878 Ry
     Harris-Foulkes estimate   =    -921.94423048 Ry
     estimated scf accuracy    <       0.23727732 Ry

     iteration #  5     ecut=   100.00 Ry     beta=0.50
     Davidson diagonalization with overlap
     ethr =  1.19E-04,  avg # of iterations =  8.8

     total cpu time spent up to now is      357.1 secs

     total energy              =    -921.95698825 Ry
     Harris-Foulkes estimate   =    -921.97725532 Ry
     estimated scf accuracy    <       0.07824201 Ry

     iteration #  6     ecut=   100.00 Ry     beta=0.50
     Davidson diagonalization with overlap
     ethr =  3.91E-05,  avg # of iterations =  1.0

     total cpu time spent up to now is      394.3 secs

     total energy              =    -921.94111324 Ry
     Harris-Foulkes estimate   =    -921.96107580 Ry
     estimated scf accuracy    <       0.03493502 Ry

     iteration #  7     ecut=   100.00 Ry     beta=0.50
     Davidson diagonalization with overlap
     ethr =  1.75E-05,  avg # of iterations =  5.4

     total cpu time spent up to now is      459.6 secs

     total energy              =    -921.95448993 Ry
     Harris-Foulkes estimate   =    -921.95539317 Ry
     estimated scf accuracy    <       0.00440737 Ry

     iteration #  8     ecut=   100.00 Ry     beta=0.50
     Davidson diagonalization with overlap
     c_bands:  1 eigenvalues not converged
     ethr =  2.20E-06,  avg # of iterations =  7.1

     total cpu time spent up to now is      507.1 secs

     total energy              =    -921.95369543 Ry
     Harris-Foulkes estimate   =    -921.95489911 Ry
     estimated scf accuracy    <       0.00219736 Ry

     iteration #  9     ecut=   100.00 Ry     beta=0.50
     Davidson diagonalization with overlap
     ethr =  1.10E-06,  avg # of iterations =  4.6

     total cpu time spent up to now is      563.0 secs

     total energy              =    -921.95437510 Ry
     Harris-Foulkes estimate   =    -921.95445947 Ry
     estimated scf accuracy    <       0.00028173 Ry

     iteration # 10     ecut=   100.00 Ry     beta=0.50
     Davidson diagonalization with overlap
     ethr =  1.41E-07,  avg # of iterations =  2.5

     total cpu time spent up to now is      604.2 secs

     total energy              =    -921.95439420 Ry
     Harris-Foulkes estimate   =    -921.95442334 Ry
     estimated scf accuracy    <       0.00008736 Ry

     iteration # 11     ecut=   100.00 Ry     beta=0.50
     Davidson diagonalization with overlap
     ethr =  4.37E-08,  avg # of iterations =  3.8

     total cpu time spent up to now is      656.9 secs

     total energy              =    -921.95441262 Ry
     Harris-Foulkes estimate   =    -921.95442202 Ry
     estimated scf accuracy    <       0.00002437 Ry

     iteration # 12     ecut=   100.00 Ry     beta=0.50
     Davidson diagonalization with overlap
     ethr =  1.22E-08,  avg # of iterations =  3.3

     total cpu time spent up to now is      704.8 secs

     total energy              =    -921.95441505 Ry
     Harris-Foulkes estimate   =    -921.95441715 Ry
     estimated scf accuracy    <       0.00000494 Ry

     iteration # 13     ecut=   100.00 Ry     beta=0.50
     Davidson diagonalization with overlap
     ethr =  2.47E-09,  avg # of iterations =  4.0

     total cpu time spent up to now is      767.2 secs

     total energy              =    -921.95441763 Ry
     Harris-Foulkes estimate   =    -921.95441769 Ry
     estimated scf accuracy    <       0.00000026 Ry

     iteration # 14     ecut=   100.00 Ry     beta=0.50
     Davidson diagonalization with overlap
     ethr =  1.28E-10,  avg # of iterations =  3.5

     total cpu time spent up to now is      823.2 secs

     total energy              =    -921.95441768 Ry
     Harris-Foulkes estimate   =    -921.95441772 Ry
     estimated scf accuracy    <       0.00000007 Ry

     iteration # 15     ecut=   100.00 Ry     beta=0.50
     Davidson diagonalization with overlap
     ethr =  3.64E-11,  avg # of iterations =  4.0

     total cpu time spent up to now is      880.9 secs

     total energy              =    -921.95441771 Ry
     Harris-Foulkes estimate   =    -921.95441772 Ry
     estimated scf accuracy    <       0.00000001 Ry

     iteration # 16     ecut=   100.00 Ry     beta=0.50
     Davidson diagonalization with overlap
     ethr =  5.53E-12,  avg # of iterations =  3.4

     total cpu time spent up to now is      929.2 secs

     End of self-consistent calculation

          k = 0.0000 0.0000 0.0000 ( 71741 PWs)   bands (ev):

   -21.8662 -21.8366 -21.8340 -21.8061 -17.1207 -17.0775 -17.0392 -17.0046
   -15.9196 -15.9157 -15.8683 -15.8564 -14.4892 -14.4579 -14.4305 -14.4193
   -12.0037 -11.9788 -11.9758 -11.9566 -11.9165 -11.8920 -11.8634 -11.8354
    -9.5166  -9.4856  -9.4374  -9.4096  -9.0067  -8.9877  -8.9379  -8.9321
    -8.0273  -7.8833  -7.8080  -7.7171  -6.9832  -6.9790  -6.9131  -6.6854
    -6.6821  -6.5350  -6.4692  -6.4648  -5.8494  -5.8368  -5.8001  -5.7988
    -5.3652  -5.3567  -5.0711  -5.0105  -4.8478  -4.6535  -4.6288  -4.6149
    -4.2846  -4.2819  -4.1750  -4.1533  -4.1531  -4.1184  -3.8693  -3.8603
    -2.7500  -2.7406  -2.6195  -2.5863  -2.4656  -2.4539  -2.4191  -2.3718
    -2.3317  -2.2634  -2.2419  -2.2061  -1.5955  -1.4275  -1.1949  -1.1223
    -1.0295  -0.9829  -0.8925  -0.8095  -0.7652  -0.7094  -0.6911  -0.6508
    -0.5761  -0.5662  -0.5439  -0.5220   0.4888   0.5126   0.5304   0.6390
     0.7237   0.7626   1.0010   1.0128   4.4768   4.5100   4.5360   4.7035
     5.8470   5.8637   5.8935   5.8962   6.2709   6.3481   6.4609   6.5692
     6.6447   6.9845   7.3768   7.6061   7.8955   7.9236   8.3340   8.8276

          k = 0.0000 0.0000-0.4908 ( 71800 PWs)   bands (ev):

   -21.8588 -21.8550 -21.8163 -21.8128 -17.1046 -17.1029 -17.0181 -17.0167
   -15.9193 -15.9154 -15.8646 -15.8608 -14.4737 -14.4733 -14.4252 -14.4248
   -11.9881 -11.9880 -11.9453 -11.9446 -11.9306 -11.9301 -11.8486 -11.8480
    -9.5041  -9.5039  -9.4215  -9.4213  -8.9945  -8.9941  -8.9370  -8.9368
    -7.9179  -7.9169  -7.8052  -7.8038  -6.9894  -6.9884  -6.8301  -6.8290
    -6.5570  -6.5570  -6.4801  -6.4797  -5.8479  -5.8460  -5.7999  -5.7999
    -5.3672  -5.3647  -5.0523  -5.0507  -4.7511  -4.7462  -4.6097  -4.6044
    -4.1903  -4.1890  -4.1582  -4.1571  -4.0598  -4.0577  -4.0467  -4.0414
    -2.7484  -2.7451  -2.6219  -2.6208  -2.4354  -2.4343  -2.3976  -2.3957
    -2.3245  -2.3223  -2.2130  -2.2117  -1.5031  -1.5028  -1.1497  -1.1483
    -0.9104  -0.9099  -0.8630  -0.8617  -0.8218  -0.8192  -0.6780  -0.6755
    -0.5583  -0.5571  -0.5408  -0.5354   0.4979   0.4983   0.5797   0.5804
     0.7446   0.7450   1.0062   1.0071   4.4888   4.4888   4.6250   4.6256
     5.8621   5.8626   5.8861   5.8866   6.3758   6.3789   6.4333   6.4361
     6.8101   6.8115   7.3972   7.3979   8.1324   8.1332   8.5005   8.5088

          k = 0.0000 0.6295 0.0000 ( 71776 PWs)   bands (ev):

   -21.8482 -21.8249 -21.8219 -21.7999 -17.1241 -17.0853 -17.0677 -17.0363
   -15.8955 -15.8910 -15.8559 -15.8473 -14.4581 -14.4310 -14.4118 -14.4013
   -12.0646 -12.0272 -12.0011 -11.9928 -11.9845 -11.9370 -11.8947 -11.8930
    -9.5204  -9.4629  -9.4478  -9.3976  -9.0867  -9.0774  -9.0415  -9.0123
    -7.8980  -7.8794  -7.6976  -7.6735  -6.9560  -6.9385  -6.9070  -6.7452
    -6.6849  -6.5524  -6.4889  -6.4517  -6.0169  -5.9978  -5.9303  -5.8831
    -5.3130  -5.3092  -5.1329  -4.9750  -4.8213  -4.7888  -4.6831  -4.6737
    -4.2547  -4.2303  -4.1248  -4.1181  -4.1163  -4.1126  -3.8709  -3.8625
    -2.8282  -2.8176  -2.6271  -2.5893  -2.3881  -2.3440  -2.3417  -2.3263
    -2.1959  -2.1943  -2.1136  -2.0675  -1.3937  -1.2843  -1.2667  -1.2139
    -1.1252  -0.9870  -0.9269  -0.8453  -0.8188  -0.7922  -0.7873  -0.6967
    -0.5768  -0.5163  -0.4894  -0.4544   0.8633   0.8866   0.9456   0.9781
     1.1108   1.1165   1.1397   1.1662   4.3261   4.3926   4.4259   4.5771
     5.8881   5.9461   5.9673   5.9724   6.0488   6.0864   6.2197   6.2333
     6.6976   7.0774   7.7427   7.7997   7.8262   8.2855   8.2960   8.5006

          k = 0.0000 0.6295-0.4908 ( 71776 PWs)   bands (ev):

   -21.8427 -21.8386 -21.8087 -21.8048 -17.1110 -17.1089 -17.0477 -17.0459
   -15.8953 -15.8913 -15.8535 -15.8496 -14.4456 -14.4452 -14.4061 -14.4056
   -12.0480 -12.0477 -11.9951 -11.9944 -11.9375 -11.9368 -11.9187 -11.9181
    -9.5030  -9.5024  -9.4117  -9.4113  -9.0834  -9.0829  -9.0258  -9.0255
    -7.8304  -7.8282  -7.7486  -7.7468  -6.9544  -6.9536  -6.8437  -6.8427
    -6.5965  -6.5942  -6.4686  -6.4686  -6.0161  -6.0145  -5.8992  -5.8985
    -5.3186  -5.3171  -5.0779  -5.0767  -4.8096  -4.8051  -4.6660  -4.6611
    -4.1411  -4.1393  -4.1237  -4.1224  -4.0445  -4.0421  -4.0162  -4.0134
    -2.8510  -2.8479  -2.5939  -2.5921  -2.3748  -2.3742  -2.3307  -2.3291
    -2.1779  -2.1763  -2.1044  -2.1024  -1.3684  -1.3647  -1.2356  -1.2347
    -1.0116  -1.0096  -0.9175  -0.9136  -0.7873  -0.7852  -0.7402  -0.7397
    -0.5524  -0.5502  -0.4745  -0.4711   0.8741   0.8746   0.9608   0.9615
     1.1161   1.1181   1.1446   1.1474   4.3488   4.3494   4.5135   4.5144
     5.9196   5.9202   5.9665   5.9686   6.0771   6.0794   6.2071   6.2098
     6.8520   6.8536   7.7112   7.7129   8.1366   8.1394   8.4665   8.4697

          k = 0.0000-1.2589 0.0000 ( 71824 PWs)   bands (ev):

   -21.8252 -21.8198 -21.8032 -21.7980 -17.1144 -17.1106 -17.0831 -17.0797
   -15.8671 -15.8629 -15.8460 -15.8422 -14.4093 -14.4088 -14.3865 -14.3858
   -12.1303 -12.1288 -12.0867 -12.0857 -11.9792 -11.9786 -11.9004 -11.9003
    -9.4768  -9.4760  -9.4104  -9.4097  -9.1470  -9.1462  -9.1307  -9.1301
    -7.7806  -7.7787  -7.6533  -7.6531  -6.9367  -6.9357  -6.8217  -6.8205
    -6.6806  -6.6798  -6.4438  -6.4428  -6.1089  -6.1075  -6.0521  -6.0506
    -5.3179  -5.3179  -5.1231  -5.1214  -4.8145  -4.8107  -4.7150  -4.7147
    -4.2107  -4.2101  -4.0531  -4.0521  -4.0462  -4.0461  -3.8674  -3.8671
    -2.6522  -2.6518  -2.5759  -2.5757  -2.4577  -2.4572  -2.3270  -2.3259
    -2.2676  -2.2676  -2.1370  -2.1361  -1.4567  -1.4555  -1.3635  -1.3627
    -0.9717  -0.9662  -0.8437  -0.8372  -0.6269  -0.6255  -0.5886  -0.5874
    -0.3214  -0.3199  -0.2165  -0.2162   0.9447   0.9452   0.9573   0.9580
     1.4886   1.4898   1.5129   1.5132   4.3213   4.3222   4.3890   4.3903
     5.4444   5.4463   5.7474   5.7493   6.2243   6.2251   6.3376   6.3384
     7.3041   7.3045   7.8062   7.8069   8.1353   8.1367   8.3854   8.3882

          k = 0.0000-1.2589-0.4908 ( 71780 PWs)   bands (ev):

   -21.8252 -21.8198 -21.8033 -21.7980 -17.1142 -17.1104 -17.0833 -17.0798
   -15.8672 -15.8630 -15.8460 -15.8421 -14.4045 -14.4034 -14.3920 -14.3908
   -12.1295 -12.1281 -12.0870 -12.0859 -11.9482 -11.9455 -11.9347 -11.9325
    -9.4780  -9.4772  -9.4094  -9.4086  -9.1429  -9.1420  -9.1338  -9.1330
    -7.7340  -7.7304  -7.7012  -7.6989  -6.9109  -6.9100  -6.8601  -6.8589
    -6.6587  -6.6560  -6.4581  -6.4572  -6.1128  -6.1109  -6.0471  -6.0453
    -5.2917  -5.2897  -5.1945  -5.1920  -4.7944  -4.7882  -4.7180  -4.7166
    -4.0841  -4.0822  -4.0599  -4.0576  -4.0013  -3.9989  -3.9980  -3.9979
    -2.6711  -2.6690  -2.5627  -2.5595  -2.4185  -2.4147  -2.3700  -2.3690
    -2.2694  -2.2681  -2.1513  -2.1502  -1.4655  -1.4644  -1.3590  -1.3576
    -0.9640  -0.9575  -0.8557  -0.8480  -0.5956  -0.5925  -0.5910  -0.5868
    -0.3266  -0.3247  -0.2224  -0.2219   0.9463   0.9470   0.9551   0.9557
     1.4982   1.4985   1.5011   1.5026   4.3439   4.3453   4.3709   4.3727
     5.4662   5.4673   5.7047   5.7087   6.2362   6.2371   6.3237   6.3246
     7.3021   7.3025   7.8283   7.8325   8.1076   8.1084   8.3200   8.3245

          k =-0.5000 0.0000-0.1811 ( 71714 PWs)   bands (ev):

   -21.8662 -21.8365 -21.8340 -21.8061 -17.1202 -17.0769 -17.0399 -17.0054
   -15.9195 -15.9156 -15.8680 -15.8565 -14.4635 -14.4572 -14.4517 -14.4259
   -11.9765 -11.9726 -11.9563 -11.9141 -11.9140 -11.9108 -11.8913 -11.8899
    -9.5051  -9.4787  -9.4365  -9.4067  -8.9837  -8.9684  -8.9680  -8.9632
    -8.0407  -7.8837  -7.7917  -7.7298  -6.9837  -6.9706  -6.8991  -6.6785
    -6.6596  -6.5138  -6.5028  -6.4953  -5.8531  -5.8286  -5.8253  -5.7679
    -5.4009  -5.3075  -5.1165  -4.9860  -4.8557  -4.6572  -4.6467  -4.5852
    -4.2708  -4.2629  -4.1708  -4.1676  -4.1579  -4.1455  -3.8707  -3.8479
    -2.7964  -2.6599  -2.6043  -2.6015  -2.4785  -2.4540  -2.4507  -2.4238
    -2.2547  -2.2456  -2.2430  -2.2309  -1.6885  -1.3406  -1.2733  -1.0275
    -1.0132  -1.0029  -0.8730  -0.8234  -0.7803  -0.7023  -0.6869  -0.6669
    -0.5646  -0.5643  -0.5554  -0.5119   0.4766   0.5414   0.5782   0.5857
     0.7245   0.7681   0.9747   1.0060   4.3572   4.5654   4.6320   4.6827
     5.7798   5.8201   5.9378   5.9805   6.2866   6.2959   6.3781   6.5621
     6.9470   6.9604   7.2733   7.3530   7.8806   8.2411   8.3649   8.4177

          k =-0.5000 0.0000-0.6719 ( 71730 PWs)   bands (ev):

   -21.8588 -21.8550 -21.8163 -21.8128 -17.1040 -17.1023 -17.0187 -17.0173
   -15.9192 -15.9153 -15.8645 -15.8607 -14.4598 -14.4592 -14.4401 -14.4395
   -11.9505 -11.9498 -11.9427 -11.9414 -11.9299 -11.9277 -11.8927 -11.8917
    -9.4952  -9.4950  -9.4191  -9.4190  -8.9765  -8.9746  -8.9664  -8.9646
    -7.9259  -7.9250  -7.8020  -7.8005  -6.9866  -6.9857  -6.8154  -6.8142
    -6.5420  -6.5417  -6.5064  -6.5063  -5.8503  -5.8483  -5.7954  -5.7954
    -5.3772  -5.3747  -5.0363  -5.0349  -4.7637  -4.7590  -4.6039  -4.5994
    -4.1880  -4.1865  -4.1684  -4.1672  -4.0582  -4.0572  -4.0406  -4.0363
    -2.7422  -2.7379  -2.5914  -2.5895  -2.4739  -2.4727  -2.4418  -2.4418
    -2.2873  -2.2849  -2.2051  -2.2026  -1.5348  -1.5340  -1.1136  -1.1124
    -0.9212  -0.9212  -0.8578  -0.8569  -0.8213  -0.8188  -0.6748  -0.6723
    -0.5552  -0.5534  -0.5371  -0.5324   0.5046   0.5048   0.5792   0.5797
     0.7461   0.7463   0.9886   0.9890   4.4564   4.4564   4.6633   4.6637
     5.7928   5.7937   5.9593   5.9596   6.3128   6.3158   6.4536   6.4558
     6.8746   6.8748   7.4205   7.4224   8.0419   8.0442   8.5528   8.5572

          k =-0.5000 0.6295-0.1811 ( 71768 PWs)   bands (ev):

   -21.8481 -21.8249 -21.8219 -21.7999 -17.1237 -17.0848 -17.0681 -17.0368
   -15.8955 -15.8910 -15.8558 -15.8474 -14.4358 -14.4347 -14.4247 -14.4077
   -12.0597 -12.0145 -12.0039 -11.9915 -11.9716 -11.9602 -11.9106 -11.8828
    -9.5185  -9.4598  -9.4494  -9.3948  -9.0695  -9.0640  -9.0602  -9.0343
    -7.9013  -7.8709  -7.7088  -7.6686  -6.9421  -6.9206  -6.9054  -6.7611
    -6.6582  -6.5836  -6.5002  -6.4429  -6.0091  -6.0069  -5.9224  -5.8969
    -5.3803  -5.2406  -5.1088  -5.0197  -4.8363  -4.7674  -4.6793  -4.6648
    -4.2597  -4.2365  -4.1396  -4.1155  -4.1023  -4.0945  -3.8756  -3.8515
    -2.9091  -2.7398  -2.6029  -2.5611  -2.4241  -2.3799  -2.3526  -2.3441
    -2.2059  -2.1446  -2.1152  -2.0728  -1.3830  -1.3063  -1.2622  -1.2098
    -1.1120  -1.0036  -0.9821  -0.8705  -0.8499  -0.7723  -0.7346  -0.6154
    -0.5753  -0.5330  -0.4905  -0.4566   0.8588   0.8768   0.9927   1.0082
     1.0534   1.1267   1.1328   1.1426   4.2798   4.4352   4.4626   4.5629
     5.8531   5.9126   5.9573   6.0034   6.0064   6.0705   6.2312   6.2873
     6.7662   7.0734   7.4506   7.8115   8.0704   8.1540   8.4706   8.6541

          k =-0.5000 0.6295-0.6719 ( 71814 PWs)   bands (ev):

   -21.8427 -21.8386 -21.8087 -21.8048 -17.1107 -17.1085 -17.0481 -17.0462
   -15.8953 -15.8913 -15.8535 -15.8496 -14.4335 -14.4326 -14.4191 -14.4180
   -12.0391 -12.0385 -11.9959 -11.9951 -11.9433 -11.9416 -11.9219 -11.9208
    -9.5009  -9.5003  -9.4112  -9.4108  -9.0683  -9.0673  -9.0457  -9.0449
    -7.8339  -7.8317  -7.7453  -7.7435  -6.9427  -6.9418  -6.8387  -6.8377
    -6.6044  -6.6022  -6.4742  -6.4742  -6.0131  -6.0115  -5.9068  -5.9059
    -5.3190  -5.3181  -5.0780  -5.0768  -4.8036  -4.7992  -4.6708  -4.6656
    -4.1510  -4.1507  -4.1128  -4.1121  -4.0499  -4.0474  -4.0037  -4.0022
    -2.8422  -2.8389  -2.5938  -2.5915  -2.3805  -2.3791  -2.3585  -2.3564
    -2.1657  -2.1638  -2.1005  -2.0979  -1.3622  -1.3577  -1.2429  -1.2420
    -1.0313  -1.0283  -0.9066  -0.9026  -0.8164  -0.8147  -0.7064  -0.7052
    -0.5484  -0.5465  -0.4640  -0.4611   0.8688   0.8691   0.9982   0.9992
     1.0849   1.0876   1.1355   1.1374   4.3488   4.3494   4.5226   4.5235
     5.8511   5.8542   5.9791   5.9796   6.0723   6.0734   6.2451   6.2484
     6.9177   6.9188   7.6463   7.6494   8.0998   8.1027   8.5754   8.5768

          k =-0.5000-1.2589-0.1811 ( 71832 PWs)   bands (ev):

   -21.8252 -21.8198 -21.8032 -21.7980 -17.1144 -17.1106 -17.0831 -17.0797
   -15.8671 -15.8629 -15.8460 -15.8422 -14.4094 -14.4087 -14.3864 -14.3855
   -12.1298 -12.1283 -12.0910 -12.0898 -11.9795 -11.9794 -11.8963 -11.8961
    -9.4784  -9.4777  -9.4144  -9.4137  -9.1434  -9.1431  -9.1254  -9.1252
    -7.7810  -7.7791  -7.6499  -7.6498  -6.9474  -6.9465  -6.8336  -6.8321
    -6.6905  -6.6898  -6.4424  -6.4415  -6.0905  -6.0889  -6.0318  -6.0302
    -5.3494  -5.3483  -5.0827  -5.0820  -4.8040  -4.7983  -4.7437  -4.7421
    -4.2151  -4.2144  -4.0604  -4.0593  -4.0472  -4.0470  -3.8628  -3.8611
    -2.7211  -2.7197  -2.5047  -2.5024  -2.4438  -2.4438  -2.3356  -2.3353
    -2.2700  -2.2696  -2.1354  -2.1343  -1.4683  -1.4672  -1.3574  -1.3567
    -0.9764  -0.9711  -0.8423  -0.8358  -0.6161  -0.6142  -0.5950  -0.5932
    -0.3219  -0.3205  -0.2200  -0.2198   0.9336   0.9343   0.9569   0.9576
     1.4947   1.4949   1.5259   1.5266   4.3147   4.3170   4.3881   4.3904
     5.4504   5.4514   5.7377   5.7399   6.2387   6.2388   6.3159   6.3171
     7.3136   7.3139   7.7803   7.7817   8.1075   8.1089   8.3001   8.3007

          k =-0.5000-1.2589-0.6719 ( 71868 PWs)   bands (ev):

   -21.8252 -21.8198 -21.8033 -21.7980 -17.1142 -17.1105 -17.0833 -17.0798
   -15.8672 -15.8630 -15.8460 -15.8421 -14.4046 -14.4035 -14.3917 -14.3904
   -12.1296 -12.1281 -12.0915 -12.0902 -11.9481 -11.9454 -11.9305 -11.9282
    -9.4791  -9.4783  -9.4137  -9.4129  -9.1382  -9.1376  -9.1302  -9.1298
    -7.7324  -7.7289  -7.7000  -7.6977  -6.9229  -6.9221  -6.8711  -6.8699
    -6.6641  -6.6618  -6.4580  -6.4572  -6.0968  -6.0950  -6.0302  -6.0284
    -5.3029  -5.3017  -5.1820  -5.1809  -4.7779  -4.7718  -4.7380  -4.7364
    -4.0858  -4.0837  -4.0534  -4.0527  -4.0384  -4.0362  -3.9742  -3.9711
    -2.6604  -2.6597  -2.6044  -2.6025  -2.4338  -2.4299  -2.3480  -2.3462
    -2.2447  -2.2428  -2.1423  -2.1404  -1.4685  -1.4673  -1.3601  -1.3593
    -0.9587  -0.9524  -0.8525  -0.8452  -0.6083  -0.6050  -0.6028  -0.5986
    -0.3134  -0.3111  -0.2242  -0.2237   0.9393   0.9402   0.9494   0.9502
     1.5036   1.5072   1.5123   1.5158   4.3516   4.3545   4.3557   4.3586
     5.4400   5.4414   5.7363   5.7394   6.2617   6.2622   6.2853   6.2870
     7.3085   7.3090   7.8187   7.8218   8.1390   8.1416   8.3757   8.3800

     highest occupied, lowest unoccupied level (ev):     1.5266    4.2798

!    total energy              =    -921.95441772 Ry
     Harris-Foulkes estimate   =    -921.95441772 Ry
     estimated scf accuracy    <          8.6E-10 Ry

     total all-electron energy =     -3609.073566 Ry

     The total energy is the sum of the following terms:

     one-electron contribution =    -682.37876105 Ry
     hartree contribution      =     416.29137370 Ry
     xc contribution           =    -203.09636948 Ry
     ewald contribution        =    -160.30054362 Ry
     Dispersion Correction     =      -0.32329743 Ry
     one-center paw contrib.   =    -292.14681983 Ry

     convergence has been achieved in  16 iterations

     Forces acting on atoms (cartesian axes, Ry/au):

     atom    1 type  2   force =    -0.01333656   -0.01123063    0.00152628
     atom    2 type  2   force =     0.01363717   -0.01129733   -0.00131592
     atom    3 type  2   force =     0.01333656    0.01123063   -0.00152628
     atom    4 type  2   force =    -0.01363717    0.01129733    0.00131592
     atom    5 type  2   force =     0.02333189   -0.00477305    0.00488339
     atom    6 type  2   force =    -0.02360960   -0.00486089   -0.00430837
     atom    7 type  2   force =    -0.02333189    0.00477305   -0.00488339
     atom    8 type  2   force =     0.02360960    0.00486089    0.00430837
     atom    9 type  2   force =    -0.01960277   -0.00670829   -0.00063083
     atom   10 type  2   force =     0.01981882   -0.00719987    0.00075388
     atom   11 type  2   force =     0.01960277    0.00670829    0.00063083
     atom   12 type  2   force =    -0.01981882    0.00719987   -0.00075388
     atom   13 type  1   force =    -0.02370267    0.00018556   -0.01997232
     atom   14 type  1   force =     0.02402487   -0.00013266    0.01989778
     atom   15 type  1   force =     0.02370267   -0.00018556    0.01997232
     atom   16 type  1   force =    -0.02402487    0.00013266   -0.01989778
     atom   17 type  1   force =     0.01463533   -0.00016708    0.00384915
     atom   18 type  1   force =    -0.01490188   -0.00011124   -0.00426185
     atom   19 type  1   force =    -0.01463533    0.00016708   -0.00384915
     atom   20 type  1   force =     0.01490188    0.00011124    0.00426185
     atom   21 type  1   force =     0.00918787    0.01347968   -0.00585235
     atom   22 type  1   force =    -0.00998600    0.01405275    0.00598087
     atom   23 type  1   force =    -0.00918787   -0.01347968    0.00585235
     atom   24 type  1   force =     0.00998600   -0.01405275   -0.00598087
     atom   25 type  1   force =     0.01270453    0.01283727    0.00301895
     atom   26 type  1   force =    -0.01240862    0.01309085   -0.00320964
     atom   27 type  1   force =    -0.01270453   -0.01283727   -0.00301895
     atom   28 type  1   force =     0.01240862   -0.01309085    0.00320964
     atom   29 type  1   force =     0.01470240    0.00008554   -0.00410379
     atom   30 type  1   force =    -0.01458683   -0.00000112    0.00433109
     atom   31 type  1   force =    -0.01470240   -0.00008554    0.00410379
     atom   32 type  1   force =     0.01458683    0.00000112   -0.00433109
     atom   33 type  1   force =    -0.02720293   -0.00620519    0.01795551
     atom   34 type  1   force =     0.02703896   -0.00635248   -0.01835909
     atom   35 type  1   force =     0.02720293    0.00620519   -0.01795551
     atom   36 type  1   force =    -0.02703896    0.00635248    0.01835909
     atom   37 type  2   force =     0.00252120   -0.00517435   -0.00110506
     atom   38 type  2   force =    -0.00261205   -0.00539367    0.00119817
     atom   39 type  2   force =    -0.00252120    0.00517435    0.00110506
     atom   40 type  2   force =     0.00261205    0.00539367   -0.00119817
     atom   41 type  3   force =    -0.00083879   -0.00054683    0.00070229
     atom   42 type  3   force =     0.00114731   -0.00066995   -0.00094173
     atom   43 type  3   force =     0.00083879    0.00054683   -0.00070229
     atom   44 type  3   force =    -0.00114731    0.00066995    0.00094173
     atom   45 type  3   force =     0.00361107    0.00312892   -0.00016581
     atom   46 type  3   force =    -0.00335775    0.00313962    0.00043919
     atom   47 type  3   force =    -0.00361107   -0.00312892    0.00016581
     atom   48 type  3   force =     0.00335775   -0.00313962   -0.00043919
     atom   49 type  3   force =     0.00521586    0.00522064    0.00006640
     atom   50 type  3   force =    -0.00515003    0.00507177   -0.00033264
     atom   51 type  3   force =    -0.00521586   -0.00522064   -0.00006640
     atom   52 type  3   force =     0.00515003   -0.00507177    0.00033264
     atom   53 type  3   force =    -0.00081984   -0.00067134   -0.00128566
     atom   54 type  3   force =     0.00106892   -0.00002808    0.00132213
     atom   55 type  3   force =     0.00081984    0.00067134    0.00128566
     atom   56 type  3   force =    -0.00106892    0.00002808   -0.00132213
     atom   57 type  3   force =    -0.00065307    0.00048966   -0.00005456
     atom   58 type  3   force =     0.00016966    0.00028546    0.00000692
     atom   59 type  3   force =     0.00065307   -0.00048966    0.00005456
     atom   60 type  3   force =    -0.00016966   -0.00028546   -0.00000692
     atom   61 type  3   force =    -0.00058111    0.00044802   -0.00170925
     atom   62 type  3   force =     0.00046373    0.00088768    0.00180463
     atom   63 type  3   force =     0.00058111   -0.00044802    0.00170925
     atom   64 type  3   force =    -0.00046373   -0.00088768   -0.00180463

     Total force =     0.136452     Total SCF correction =     0.000060


     Computing stress (Cartesian axis) and pressure

          total   stress  (Ry/bohr**3)                   (kbar)     P=    2.77
   0.00005909  -0.00000180  -0.00001583          8.69     -0.26     -2.33
  -0.00000180   0.00009320   0.00000187         -0.26     13.71      0.27
  -0.00001583   0.00000187  -0.00009571         -2.33      0.27    -14.08


     Writing output data file scf.save
 
     init_run     :     28.44s CPU     29.65s WALL (       1 calls)
     electrons    :    857.38s CPU    898.96s WALL (       1 calls)
     forces       :     13.78s CPU     13.90s WALL (       1 calls)
     stress       :     47.10s CPU     47.33s WALL (       1 calls)

     Called by init_run:
     wfcinit      :     21.39s CPU     22.51s WALL (       1 calls)
     potinit      :      2.48s CPU      2.51s WALL (       1 calls)

     Called by electrons:
     c_bands      :    764.92s CPU    800.52s WALL (      16 calls)
     sum_band     :     83.51s CPU     88.85s WALL (      16 calls)
     v_of_rho     :      1.47s CPU      1.61s WALL (      17 calls)
     newd         :      2.83s CPU      3.30s WALL (      17 calls)
     PAW_pot      :      4.24s CPU      4.24s WALL (      17 calls)
     mix_rho      :      0.33s CPU      0.36s WALL (      16 calls)

     Called by c_bands:
     init_us_2    :      5.81s CPU      5.84s WALL (     420 calls)
     cegterg      :    743.25s CPU    778.78s WALL (     192 calls)

     Called by sum_band:
     sum_band:bec :      0.07s CPU      0.07s WALL (     192 calls)
     addusdens    :      2.95s CPU      3.41s WALL (      16 calls)

     Called by *egterg:
     h_psi        :    424.30s CPU    452.39s WALL (    1003 calls)
     s_psi        :     82.85s CPU     82.88s WALL (    1003 calls)
     g_psi        :      2.49s CPU      2.49s WALL (     799 calls)
     cdiaghg      :     45.82s CPU     45.81s WALL (     991 calls)

     Called by h_psi:
     h_psi:pot    :    420.99s CPU    449.02s WALL (    1003 calls)
     h_psi:calbec :     83.08s CPU     83.30s WALL (    1003 calls)
     vloc_psi     :    254.52s CPU    282.30s WALL (    1003 calls)
     add_vuspsi   :     83.39s CPU     83.41s WALL (    1003 calls)

     General routines
     calbec       :    121.39s CPU    121.71s WALL (    1255 calls)
     fft          :      1.00s CPU      1.23s WALL (     245 calls)
     fftw         :    271.77s CPU    302.00s WALL (  155868 calls)
 
     Parallel routines
     fft_scatter  :     71.94s CPU     92.33s WALL (  156113 calls)
 
     PWSCF        : 15m54.22s CPU    17m25.30s WALL

 
   This run was terminated on:  11:53:32  18Dec2017            

=------------------------------------------------------------------------------=
   JOB DONE.
=------------------------------------------------------------------------------=
