
     Program PWSCF v.6.1 (svn rev. 13369) starts on 22Dec2017 at  8:57:13 

     This program is part of the open-source Quantum ESPRESSO suite
     for quantum simulation of materials; please cite
         "P. Giannozzi et al., J. Phys.:Condens. Matter 21 395502 (2009);
          URL http://www.quantum-espresso.org", 
     in publications or presentations arising from this work. More details at
     http://www.quantum-espresso.org/quote

     Parallel version (MPI), running on     8 processors
     R & G space division:  proc/nbgrp/npool/nimage =       8
     Waiting for input...
     Reading input from standard input

     Current dimensions of program PWSCF are:
     Max number of different atomic species (ntypx) = 10
     Max number of k-points (npk) =  40000
     Max angular momentum in pseudopotentials (lmaxx) =  3
               file C.pbe-n-kjpaw_psl.0.1.UPF: wavefunction(s)  2P renormalized
               file N.pbe-n-kjpaw_psl.0.1.UPF: wavefunction(s)  2P renormalized
               file H.pbe-kjpaw_psl.0.1.UPF: wavefunction(s)  1S renormalized
               file O.pbe-n-kjpaw_psl.0.1.UPF: wavefunction(s)  2P renormalized

     -------------------------------------
     Parameters for Dispersion Correction:
     -------------------------------------
       atom      VdW radius       C_6     

        C          2.744         60.710
        N          2.640         42.670
        H          1.892          4.857
        O          2.536         24.284

     Subspace diagonalization in iterative solution of the eigenvalue problem:
     a serial algorithm will be used

 
     Parallelization info
     --------------------
     sticks:   dense  smooth     PW     G-vecs:    dense   smooth      PW
     Min        2434    2434    657                71436    71436   10084
     Max        2435    2435    658                71437    71437   10085
     Sum       19473   19473   5257               571491   571491   80677
 


     bravais-lattice index     =            0
     lattice parameter (alat)  =      11.4555  a.u.
     unit-cell volume          =    4231.6827 (a.u.)^3
     number of atoms/cell      =           60
     number of atomic types    =            4
     number of electrons       =       232.00
     number of Kohn-Sham states=          139
     kinetic-energy cutoff     =     100.0000  Ry
     charge density cutoff     =     400.0000  Ry
     convergence threshold     =      1.0E-08
     mixing beta               =       0.5000
     number of iterations used =            8  plain     mixing
     Exchange-correlation      =  SLA  PW   PBX  PBC ( 1  4  3  4 0 0)

     celldm(1)=  11.455520  celldm(2)=   0.000000  celldm(3)=   0.000000
     celldm(4)=   0.000000  celldm(5)=   0.000000  celldm(6)=   0.000000

     crystal axes: (cart. coord. in units of alat)
               a(1) = (   1.000000   0.000000   0.000000 )  
               a(2) = (   0.000000   4.663312   0.000000 )  
               a(3) = (  -0.018759   0.000000   0.603635 )  

     reciprocal axes: (cart. coord. in units 2 pi/alat)
               b(1) = (  1.000000  0.000000  0.031077 )  
               b(2) = (  0.000000  0.214440  0.000000 )  
               b(3) = (  0.000000  0.000000  1.656631 )  


     PseudoPot. # 1 for  C read from file:
     /scratch/ahofstet/pseudo/C.pbe-n-kjpaw_psl.0.1.UPF
     MD5 check sum: 430fe95172b1e11ef3f8ed03bac87931
     Pseudo is Projector augmented-wave + core cor, Zval =  4.0
     Generated using "atomic" code by A. Dal Corso  v.5.0.99 svn rev. 10869
     Shape of augmentation charge: BESSEL
     Using radial grid of 1073 points,  4 beta functions with: 
                l(1) =   0
                l(2) =   0
                l(3) =   1
                l(4) =   1
     Q(r) pseudized with 0 coefficients 


     PseudoPot. # 2 for  N read from file:
     /scratch/ahofstet/pseudo/N.pbe-n-kjpaw_psl.0.1.UPF
     MD5 check sum: f73187c8b701007e77325f868c9291d7
     Pseudo is Projector augmented-wave + core cor, Zval =  5.0
     Generated using "atomic" code by A. Dal Corso  v.5.0.99 svn rev. 10869
     Shape of augmentation charge: PSQ
     Using radial grid of 1085 points,  4 beta functions with: 
                l(1) =   0
                l(2) =   0
                l(3) =   1
                l(4) =   1
     Q(r) pseudized with 0 coefficients 


     PseudoPot. # 3 for  H read from file:
     /scratch/ahofstet/pseudo/H.pbe-kjpaw_psl.0.1.UPF
     MD5 check sum: 94e484f906d9e9773b2f6e52662335b2
     Pseudo is Projector augmented-wave, Zval =  1.0
     Generated using "atomic" code by A. Dal Corso  v.5.0.99 svn rev. 10869
     Shape of augmentation charge: PSQ
     Using radial grid of  929 points,  2 beta functions with: 
                l(1) =   0
                l(2) =   0
     Q(r) pseudized with 0 coefficients 


     PseudoPot. # 4 for  O read from file:
     /scratch/ahofstet/pseudo/O.pbe-n-kjpaw_psl.0.1.UPF
     MD5 check sum: 3f94a2996a3169367d6eb21d9b593f20
     Pseudo is Projector augmented-wave + core cor, Zval =  6.0
     Generated using "atomic" code by A. Dal Corso  v.5.0.99 svn rev. 10869
     Shape of augmentation charge: BESSEL
     Using radial grid of 1095 points,  4 beta functions with: 
                l(1) =   0
                l(2) =   0
                l(3) =   1
                l(4) =   1
     Q(r) pseudized with 0 coefficients 


     atomic species   valence    mass     pseudopotential
        C              4.00    12.01070      C( 1.00)
        N              5.00    14.00670      N( 1.00)
        H              1.00     1.00794      H( 1.00)
        O              6.00    15.99940      O( 1.00)

      2 Sym. Ops., with inversion, found
          (note:  2 additional sym.ops. were found but ignored
           their fractional translations are incommensurate with FFT grid)


   Cartesian axes

     site n.     atom                  positions (alat units)
         1           O   tau(   1) = (   0.4790931   0.2328494   0.1522519  )
         2           O   tau(   2) = (   1.0115273   2.5645056   0.1495655  )
         3           O   tau(   3) = (   0.5021478   4.4304631   0.4513828  )
         4           O   tau(   4) = (  -0.0302864   2.0988068   0.4540692  )
         5           O   tau(   5) = (   0.2749417   0.1372604   0.4462693  )
         6           O   tau(   6) = (   0.1969197   2.4689166   0.4591828  )
         7           O   tau(   7) = (   0.7062992   4.5260520   0.1573654  )
         8           O   tau(   8) = (   0.7843212   2.1943958   0.1444519  )
         9           H   tau(   9) = (   0.3662557   4.6584819   0.4430634  )
        10           H   tau(  10) = (   0.1056057   2.3268257   0.4623886  )
        11           H   tau(  11) = (   0.6149852   0.0048305   0.1605713  )
        12           H   tau(  12) = (   0.8756353   2.3364867   0.1412461  )
        13           O   tau(  13) = (   0.6251684   0.8449257  -0.1521265  )
        14           O   tau(  14) = (   0.8654521   3.1765819   0.4539438  )
        15           O   tau(  15) = (   0.3560725   3.8183867   0.7557611  )
        16           O   tau(  16) = (   0.1157889   1.4867305   0.1496909  )
        17           O   tau(  17) = (   0.7442172   1.0296357  -0.4486099  )
        18           O   tau(  18) = (   0.7464033   3.3612919   0.7504273  )
        19           O   tau(  19) = (   0.2370237   3.6336768   1.0522446  )
        20           O   tau(  20) = (   0.2348377   1.3020205  -0.1467926  )
        21           H   tau(  21) = (   0.6101754   1.1145862  -0.4161459  )
        22           H   tau(  22) = (   0.8804451   3.4462424   0.7179632  )
        23           H   tau(  23) = (   0.3710656   3.5487262   1.0197805  )
        24           H   tau(  24) = (   0.1007958   1.2170700  -0.1143285  )
        25           N   tau(  25) = (   0.0697222   0.7725170   0.1016046  )
        26           N   tau(  26) = (   0.4021392   3.1041732   0.8038474  )
        27           N   tau(  27) = (   0.9115187   3.8907954   0.5020301  )
        28           N   tau(  28) = (   0.5791018   1.5591392  -0.2002127  )
        29           N   tau(  29) = (   0.2193522   0.6088772   0.1039553  )
        30           N   tau(  30) = (   0.2525091   2.9405334   0.8014967  )
        31           N   tau(  31) = (   0.7618887   4.0544352   0.4996794  )
        32           N   tau(  32) = (   0.7287318   1.7227790  -0.1978620  )
        33           H   tau(  33) = (   0.3460558   0.6123701  -0.0055531  )
        34           H   tau(  34) = (   0.1258056   2.9440263   0.9110052  )
        35           H   tau(  35) = (   0.6351852   4.0509423   0.6091878  )
        36           H   tau(  36) = (   0.8554353   1.7192861  -0.3073705  )
        37           C   tau(  37) = (   0.3283633   0.2697918   0.2855630  )
        38           C   tau(  38) = (   0.1434981   2.6014480   0.6198890  )
        39           C   tau(  39) = (   0.6528776   4.3935207   0.3180717  )
        40           C   tau(  40) = (   0.8377428   2.0618645  -0.0162543  )
        41           C   tau(  41) = (   0.1908421   0.4670181   0.2673717  )
        42           C   tau(  42) = (   0.2810193   2.7986743   0.6380804  )
        43           C   tau(  43) = (   0.7903988   4.1962943   0.3362630  )
        44           C   tau(  44) = (   0.7002216   1.8646381  -0.0344457  )
        45           C   tau(  45) = (   0.0132227   0.5465571   0.3900463  )
        46           C   tau(  46) = (   0.4586387   2.8782133   0.5154058  )
        47           C   tau(  47) = (   0.9680182   4.1167553   0.2135884  )
        48           C   tau(  48) = (   0.5226022   1.7850991   0.0882289  )
        49           H   tau(  49) = (   0.9373401   0.4537277  -0.0949824  )
        50           H   tau(  50) = (   0.5532804   2.7853840   0.3967997  )
        51           H   tau(  51) = (   0.0439008   4.2095847   0.6986170  )
        52           H   tau(  52) = (   0.4279606   1.8779285   0.2068350  )
        53           C   tau(  53) = (  -0.0578232   0.7361917   0.2716481  )
        54           C   tau(  54) = (   0.5296846   3.0678479   0.6338040  )
        55           C   tau(  55) = (   1.0390642   3.9271208   0.3319866  )
        56           C   tau(  56) = (   0.4515563   1.5954645  -0.0301693  )
        57           C   tau(  57) = (   0.7632156   0.8735404  -0.2955513  )
        58           C   tau(  58) = (   0.7274049   3.2051966   0.5973686  )
        59           C   tau(  59) = (   0.2180253   3.7897720   0.8991860  )
        60           C   tau(  60) = (   0.2538361   1.4581158   0.0062660  )

     number of k points=     8
                       cart. coord. in units 2pi/alat
        k(    1) = (   0.0000000   0.0000000   0.0000000), wk =   0.1333333
        k(    2) = (   0.0000000   0.0000000   0.3313262), wk =   0.2666667
        k(    3) = (   0.0000000   0.0000000   0.6626524), wk =   0.2666667
        k(    4) = (   0.3333333   0.0000000   0.0103590), wk =   0.2666667
        k(    5) = (   0.3333333   0.0000000   0.3416852), wk =   0.2666667
        k(    6) = (   0.3333333   0.0000000   0.6730114), wk =   0.2666667
        k(    7) = (   0.3333333   0.0000000  -0.6522935), wk =   0.2666667
        k(    8) = (   0.3333333   0.0000000  -0.3209673), wk =   0.2666667

     Dense  grid:   571491 G-vectors     FFT dimensions: (  75, 360,  45)

     Estimated max dynamical RAM per process >     427.65MB

     Estimated total allocated dynamical RAM >    3421.19MB

     Check: negative/imaginary core charge=   -0.000002    0.000000

     Initial potential from superposition of free atoms

     starting charge  231.99893, renormalised to  232.00000
     Starting wfc are  192 randomized atomic wfcs
     Checking if some PAW data can be deallocated... 

     total cpu time spent up to now is       25.3 secs

     per-process dynamical memory:   306.2 Mb

     Self-consistent Calculation

     iteration #  1     ecut=   100.00 Ry     beta=0.50
     Davidson diagonalization with overlap
     ethr =  1.00E-02,  avg # of iterations =  3.5

     total cpu time spent up to now is       89.8 secs

     total energy              =   -1278.23860813 Ry
     Harris-Foulkes estimate   =   -1281.78009395 Ry
     estimated scf accuracy    <       6.36692178 Ry

     iteration #  2     ecut=   100.00 Ry     beta=0.50
     Davidson diagonalization with overlap
     ethr =  2.74E-03,  avg # of iterations =  3.0

     total cpu time spent up to now is      131.5 secs

     total energy              =   -1279.32421706 Ry
     Harris-Foulkes estimate   =   -1279.81628610 Ry
     estimated scf accuracy    <       1.04574530 Ry

     iteration #  3     ecut=   100.00 Ry     beta=0.50
     Davidson diagonalization with overlap
     ethr =  4.51E-04,  avg # of iterations =  7.2

     total cpu time spent up to now is      190.3 secs

     total energy              =   -1279.59903925 Ry
     Harris-Foulkes estimate   =   -1279.69250236 Ry
     estimated scf accuracy    <       0.22811706 Ry

     iteration #  4     ecut=   100.00 Ry     beta=0.50
     Davidson diagonalization with overlap
     ethr =  9.83E-05,  avg # of iterations =  5.4

     total cpu time spent up to now is      230.1 secs

     total energy              =   -1279.63063984 Ry
     Harris-Foulkes estimate   =   -1279.64745071 Ry
     estimated scf accuracy    <       0.04710041 Ry

     iteration #  5     ecut=   100.00 Ry     beta=0.50
     Davidson diagonalization with overlap
     ethr =  2.03E-05,  avg # of iterations =  6.2

     total cpu time spent up to now is      285.2 secs

     total energy              =   -1279.64192455 Ry
     Harris-Foulkes estimate   =   -1279.64695995 Ry
     estimated scf accuracy    <       0.01281266 Ry

     iteration #  6     ecut=   100.00 Ry     beta=0.50
     Davidson diagonalization with overlap
     ethr =  5.52E-06,  avg # of iterations = 11.5

     total cpu time spent up to now is      334.5 secs

     total energy              =   -1279.64395482 Ry
     Harris-Foulkes estimate   =   -1279.64498260 Ry
     estimated scf accuracy    <       0.00269538 Ry

     iteration #  7     ecut=   100.00 Ry     beta=0.50
     Davidson diagonalization with overlap
     ethr =  1.16E-06,  avg # of iterations =  6.6

     total cpu time spent up to now is      383.6 secs

     total energy              =   -1279.64480088 Ry
     Harris-Foulkes estimate   =   -1279.64485301 Ry
     estimated scf accuracy    <       0.00028889 Ry

     iteration #  8     ecut=   100.00 Ry     beta=0.50
     Davidson diagonalization with overlap
     ethr =  1.25E-07,  avg # of iterations =  3.0

     total cpu time spent up to now is      424.2 secs

     total energy              =   -1279.64484118 Ry
     Harris-Foulkes estimate   =   -1279.64486336 Ry
     estimated scf accuracy    <       0.00005768 Ry

     iteration #  9     ecut=   100.00 Ry     beta=0.50
     Davidson diagonalization with overlap
     ethr =  2.49E-08,  avg # of iterations =  3.5

     total cpu time spent up to now is      473.0 secs

     total energy              =   -1279.64485981 Ry
     Harris-Foulkes estimate   =   -1279.64486164 Ry
     estimated scf accuracy    <       0.00000772 Ry

     iteration # 10     ecut=   100.00 Ry     beta=0.50
     Davidson diagonalization with overlap
     ethr =  3.33E-09,  avg # of iterations =  2.9

     total cpu time spent up to now is      510.0 secs

     total energy              =   -1279.64486013 Ry
     Harris-Foulkes estimate   =   -1279.64486127 Ry
     estimated scf accuracy    <       0.00000245 Ry

     iteration # 11     ecut=   100.00 Ry     beta=0.50
     Davidson diagonalization with overlap
     ethr =  1.06E-09,  avg # of iterations =  3.2

     total cpu time spent up to now is      555.9 secs

     total energy              =   -1279.64486080 Ry
     Harris-Foulkes estimate   =   -1279.64486085 Ry
     estimated scf accuracy    <       0.00000016 Ry

     iteration # 12     ecut=   100.00 Ry     beta=0.50
     Davidson diagonalization with overlap
     ethr =  7.11E-11,  avg # of iterations =  3.6

     total cpu time spent up to now is      604.5 secs

     total energy              =   -1279.64486088 Ry
     Harris-Foulkes estimate   =   -1279.64486088 Ry
     estimated scf accuracy    <       0.00000003 Ry

     iteration # 13     ecut=   100.00 Ry     beta=0.50
     Davidson diagonalization with overlap
     ethr =  1.38E-11,  avg # of iterations =  3.1

     total cpu time spent up to now is      647.1 secs

     End of self-consistent calculation

          k = 0.0000 0.0000 0.0000 ( 71287 PWs)   bands (ev):

   -21.4102 -21.4099 -21.0966 -21.0954 -20.9076 -20.9006 -20.8744 -20.8685
   -20.2290 -20.2269 -20.2141 -20.2120 -18.5590 -18.5587 -18.2285 -18.2283
   -18.0189 -18.0189 -18.0137 -18.0137 -14.5884 -14.5792 -14.5604 -14.5509
   -12.7472 -12.7464 -12.6940 -12.6929 -10.4385 -10.4176 -10.1894 -10.1436
   -10.0177  -9.9988  -9.6659  -9.6604  -8.8751  -8.8747  -8.8678  -8.8676
    -7.4384  -7.3890  -7.3729  -7.3275  -6.9247  -6.9135  -6.8390  -6.8291
    -5.9670  -5.9578  -5.6560  -5.6392  -5.4442  -5.4330  -5.1280  -5.1189
    -5.0731  -5.0686  -4.8305  -4.8147  -4.7060  -4.6709  -4.6633  -4.6419
    -4.4706  -4.4265  -4.2382  -4.1772  -3.8798  -3.8795  -3.7780  -3.7667
    -3.6559  -3.5890  -3.5862  -3.4834  -3.1442  -3.1278  -2.8905  -2.8733
    -2.8721  -2.8587  -2.0762  -2.0724  -2.0336  -2.0260  -1.9276  -1.9177
    -1.9101  -1.9005  -1.5785  -1.5508  -1.4727  -1.4558  -1.3392  -1.3300
    -1.0857  -1.0609  -1.0564  -1.0336  -0.1218  -0.1064  -0.0872  -0.0805
    -0.0458  -0.0193   0.0316   0.0615   0.3076   0.3094   0.3192   0.3250
     0.5431   0.5535   0.6265   0.6287   4.5486   4.5787   4.6291   4.6638
     5.3258   5.3463   5.3482   5.3726   6.4749   6.6423   6.6531   7.0211
     7.2359   7.6131   7.8504   7.9934   8.0767   8.0860   8.6118   8.8271
     9.0114   9.1760   9.2827

          k = 0.0000 0.0000 0.3313 ( 71493 PWs)   bands (ev):

   -21.2936 -21.2934 -20.9890 -20.9880 -20.8048 -20.7986 -20.7761 -20.7708
   -20.1502 -20.1483 -20.1377 -20.1359 -18.7153 -18.7151 -18.3776 -18.3774
   -18.1523 -18.1523 -18.1505 -18.1504 -14.5063 -14.4986 -14.4817 -14.4739
   -13.0650 -13.0646 -13.0242 -13.0236 -10.4235 -10.4069 -10.2087 -10.1764
   -10.0775 -10.0660  -9.7382  -9.7351  -8.7323  -8.7299  -8.7212  -8.7209
    -7.4646  -7.4183  -7.4032  -7.3700  -7.0731  -7.0563  -6.8363  -6.8351
    -6.0010  -5.9993  -5.5236  -5.5116  -5.3982  -5.3876  -5.1908  -5.1772
    -5.1568  -5.1397  -5.0012  -5.0002  -4.7586  -4.7510  -4.7041  -4.6931
    -4.5135  -4.5131  -4.2787  -4.2618  -3.9705  -3.9700  -3.9574  -3.9571
    -3.6530  -3.6365  -3.6174  -3.6118  -3.2677  -3.2624  -3.2210  -3.1970
    -3.1594  -3.1503  -2.5783  -2.5537  -2.4081  -2.3794  -2.2430  -2.2338
    -1.2071  -1.1862  -1.1432  -1.1350  -0.9882  -0.9796  -0.9151  -0.9142
    -0.4109  -0.4000  -0.3762  -0.3436  -0.1050  -0.0878   0.0026   0.0080
     0.1090   0.1340   0.1393   0.1764   0.3808   0.4177   0.4742   0.5021
     0.7749   0.7845   0.7859   0.7935   4.6051   4.6144   4.7432   4.7567
     5.1757   5.1905   5.1914   5.2104   6.9992   7.0939   7.1367   7.3356
     7.6078   7.8274   7.8986   7.9987   8.1758   8.2027   8.8799   8.9678
     8.9754   9.0445   9.0992

          k = 0.0000 0.0000 0.6627 ( 71493 PWs)   bands (ev):

   -21.0656 -21.0653 -20.7845 -20.7841 -20.6078 -20.6037 -20.5953 -20.5914
   -20.0180 -20.0172 -20.0133 -20.0125 -18.9967 -18.9964 -18.6478 -18.6475
   -18.3951 -18.3951 -18.3939 -18.3939 -14.3667 -14.3638 -14.3522 -14.3493
   -13.5648 -13.5647 -13.5305 -13.5304 -10.3322 -10.3275 -10.2392 -10.2298
   -10.1942 -10.1907  -9.8337  -9.8324  -8.5132  -8.5128  -8.4332  -8.4321
    -7.4850  -7.4662  -7.4605  -7.4481  -7.1451  -7.1352  -6.6969  -6.6896
    -5.9268  -5.9256  -5.6326  -5.6162  -5.5400  -5.5378  -5.4338  -5.4322
    -5.2692  -5.2479  -5.0484  -5.0414  -4.9909  -4.9592  -4.9113  -4.9105
    -4.5842  -4.5546  -4.4472  -4.4302  -4.3894  -4.3639  -4.3366  -4.3104
    -4.0580  -4.0241  -3.9739  -3.9347  -3.5761  -3.5745  -3.5597  -3.5563
    -3.1146  -3.1075  -2.5066  -2.4595  -2.4125  -2.3692  -2.0388  -2.0359
    -0.7168  -0.6746  -0.6432  -0.6023  -0.3635  -0.3566  -0.2794  -0.2560
    -0.1374  -0.0861  -0.0239  -0.0009   0.0244   0.0281   0.3058   0.3081
     0.3815   0.3871   0.4633   0.4642   0.6357   0.6421   0.6783   0.6840
     1.6101   1.6138   1.6416   1.6455   4.3067   4.3076   4.4870   4.4883
     5.1146   5.1219   5.1367   5.1435   7.7906   7.8247   7.8963   7.9525
     8.0166   8.0837   8.1117   8.2193   8.4768   8.5482   8.6467   8.6607
     8.8463   8.9449   9.0260

          k = 0.3333 0.0000 0.0104 ( 71319 PWs)   bands (ev):

   -21.4081 -21.4079 -21.0952 -21.0947 -20.8914 -20.8869 -20.8745 -20.8704
   -20.2399 -20.2384 -20.2244 -20.2230 -18.5606 -18.5604 -18.2278 -18.2276
   -18.0178 -18.0178 -18.0151 -18.0151 -14.5807 -14.5761 -14.5521 -14.5474
   -12.7408 -12.7404 -12.6850 -12.6844 -10.4337 -10.4224 -10.2028 -10.1799
   -10.0412 -10.0326  -9.6738  -9.6711  -8.8913  -8.8910  -8.8716  -8.8714
    -7.3897  -7.3632  -7.3265  -7.3028  -6.9444  -6.9379  -6.8114  -6.8087
    -5.9270  -5.9224  -5.5917  -5.5773  -5.4174  -5.4015  -5.2079  -5.1966
    -5.1833  -5.1739  -4.8733  -4.8679  -4.7150  -4.6898  -4.6462  -4.6326
    -4.4233  -4.4082  -4.2112  -4.1774  -3.8714  -3.8702  -3.7227  -3.7172
    -3.6302  -3.6010  -3.5509  -3.4982  -3.1365  -3.1243  -2.8539  -2.8323
    -2.8094  -2.7901  -2.1190  -2.1158  -2.0752  -2.0740  -1.9272  -1.9268
    -1.9088  -1.9039  -1.5934  -1.5836  -1.4249  -1.4160  -1.3472  -1.3381
    -1.0966  -1.0814  -1.0807  -1.0670  -0.1036  -0.0995  -0.0885  -0.0865
     0.0015   0.0148   0.0662   0.0796   0.2863   0.2884   0.3023   0.3049
     0.5514   0.5562   0.5997   0.6013   4.5294   4.5453   4.5932   4.6106
     5.2963   5.3088   5.3915   5.4044   6.9393   7.0592   7.0957   7.3113
     7.6602   7.7666   7.8717   7.9983   8.0503   8.0665   8.1650   8.2229
     8.5370   8.6179   8.8823

          k = 0.3333 0.0000 0.3417 ( 71457 PWs)   bands (ev):

   -21.2918 -21.2916 -20.9881 -20.9876 -20.7920 -20.7876 -20.7782 -20.7742
   -20.1570 -20.1553 -20.1442 -20.1426 -18.7165 -18.7162 -18.3773 -18.3770
   -18.1525 -18.1525 -18.1502 -18.1502 -14.5042 -14.5006 -14.4794 -14.4758
   -13.0703 -13.0683 -13.0283 -13.0264 -10.4178 -10.4114 -10.1823 -10.1779
   -10.0648 -10.0485  -9.7329  -9.7282  -8.7340  -8.7323  -8.7127  -8.7107
    -7.4766  -7.4311  -7.4112  -7.3827  -7.0702  -7.0557  -6.8782  -6.8663
    -6.0508  -6.0404  -5.6281  -5.6016  -5.4702  -5.4503  -5.0860  -5.0758
    -5.0177  -5.0069  -4.9866  -4.9814  -4.8139  -4.7915  -4.7240  -4.6897
    -4.4645  -4.4608  -4.2559  -4.2472  -3.9498  -3.9451  -3.9143  -3.9124
    -3.7269  -3.7227  -3.6727  -3.6511  -3.2448  -3.2388  -3.1747  -3.1665
    -3.1558  -3.1433  -2.5716  -2.5514  -2.4264  -2.4096  -2.2634  -2.2601
    -1.1388  -1.1344  -1.1080  -1.1030  -0.9384  -0.8910  -0.8797  -0.8414
    -0.5006  -0.4815  -0.3734  -0.3386  -0.1077  -0.0903  -0.0243  -0.0147
     0.1327   0.1476   0.1634   0.1800   0.3654   0.3848   0.4729   0.4877
     0.7489   0.7601   0.7776   0.7869   4.5483   4.5628   4.6662   4.6887
     5.1393   5.1563   5.2001   5.2095   7.3944   7.4331   7.5378   7.5899
     7.8260   7.9318   8.0247   8.1598   8.1796   8.2320   8.2820   8.4445
     8.4987   8.7047   8.7452

          k = 0.3333 0.0000 0.6730 ( 71547 PWs)   bands (ev):

   -21.0643 -21.0640 -20.7845 -20.7842 -20.6026 -20.5991 -20.5972 -20.5938
   -20.0196 -20.0181 -20.0147 -20.0132 -18.9972 -18.9969 -18.6478 -18.6476
   -18.3976 -18.3976 -18.3919 -18.3919 -14.3716 -14.3711 -14.3573 -14.3570
   -13.5727 -13.5715 -13.5374 -13.5364 -10.3302 -10.3300 -10.2100 -10.1762
   -10.1680 -10.1341  -9.8306  -9.8286  -8.5002  -8.4991  -8.4191  -8.4154
    -7.5226  -7.4922  -7.4805  -7.4715  -7.1449  -7.1302  -6.7511  -6.7493
    -6.0103  -6.0052  -5.6922  -5.6805  -5.6073  -5.5825  -5.5190  -5.5126
    -5.3167  -5.2902  -5.0385  -5.0269  -4.9489  -4.9384  -4.8496  -4.8395
    -4.5435  -4.5210  -4.4487  -4.4407  -4.3429  -4.3239  -4.2831  -4.2539
    -3.9544  -3.9416  -3.8561  -3.8533  -3.6001  -3.5966  -3.5758  -3.5749
    -3.0802  -3.0676  -2.5245  -2.4990  -2.3152  -2.2956  -2.0296  -2.0261
    -0.6872  -0.6652  -0.6401  -0.6056  -0.3770  -0.3688  -0.3249  -0.2841
    -0.1452  -0.1068  -0.0330  -0.0127   0.0431   0.0461   0.2834   0.2865
     0.4096   0.4142   0.4351   0.4374   0.5941   0.6017   0.6405   0.6463
     1.6623   1.6637   1.6743   1.6758   4.2882   4.2886   4.4783   4.4785
     5.0862   5.0945   5.0998   5.1085   7.7763   7.8033   7.8965   7.9282
     8.1308   8.1880   8.2846   8.3689   8.4298   8.4361   8.4790   8.5443
     8.5596   8.7302   8.9492

          k = 0.3333 0.0000-0.6523 ( 71477 PWs)   bands (ev):

   -21.0642 -21.0639 -20.7843 -20.7840 -20.6015 -20.5983 -20.5942 -20.5912
   -20.0224 -20.0218 -20.0175 -20.0169 -18.9973 -18.9971 -18.6477 -18.6475
   -18.3963 -18.3963 -18.3919 -18.3919 -14.3684 -14.3661 -14.3541 -14.3516
   -13.5708 -13.5696 -13.5353 -13.5343 -10.3321 -10.3272 -10.2344 -10.1901
   -10.1895 -10.1515  -9.8310  -9.8301  -8.5083  -8.5067  -8.4279  -8.4261
    -7.4919  -7.4826  -7.4663  -7.4581  -7.1440  -7.1399  -6.7140  -6.7104
    -5.9682  -5.9651  -5.7210  -5.6833  -5.6284  -5.6085  -5.4915  -5.4774
    -5.2956  -5.2915  -5.0587  -5.0340  -4.9549  -4.9162  -4.8465  -4.8303
    -4.5581  -4.5579  -4.4501  -4.4492  -4.3715  -4.3507  -4.3078  -4.2806
    -3.9666  -3.9470  -3.8734  -3.8425  -3.5913  -3.5720  -3.5609  -3.5436
    -3.0942  -3.0796  -2.4881  -2.4529  -2.3745  -2.3450  -2.0420  -2.0392
    -0.7518  -0.6985  -0.6871  -0.6290  -0.3627  -0.3583  -0.2697  -0.2643
    -0.1029  -0.0951  -0.0165  -0.0164   0.0876   0.0890   0.2991   0.2996
     0.3837   0.3851   0.4204   0.4260   0.6194   0.6204   0.6967   0.6984
     1.6063   1.6088   1.6309   1.6335   4.3294   4.3297   4.5127   4.5138
     5.0972   5.1000   5.1214   5.1234   7.7561   7.7709   7.8924   7.9053
     8.0694   8.0864   8.1931   8.2709   8.2925   8.4156   8.4166   8.5141
     8.5458   8.7580   8.7908

          k = 0.3333 0.0000-0.3210 ( 71435 PWs)   bands (ev):

   -21.2917 -21.2915 -20.9878 -20.9874 -20.7904 -20.7865 -20.7751 -20.7715
   -20.1602 -20.1595 -20.1474 -20.1466 -18.7167 -18.7164 -18.3771 -18.3768
   -18.1531 -18.1531 -18.1488 -18.1488 -14.4996 -14.4956 -14.4746 -14.4705
   -13.0630 -13.0616 -13.0202 -13.0190 -10.4202 -10.4090 -10.2291 -10.1909
   -10.1054 -10.0775  -9.7419  -9.7407  -8.7426  -8.7386  -8.7293  -8.7275
    -7.4189  -7.4100  -7.3703  -7.3575  -7.0747  -7.0705  -6.8318  -6.8223
    -5.9897  -5.9844  -5.4991  -5.4942  -5.4147  -5.4038  -5.2057  -5.1917
    -5.1903  -5.1728  -5.0435  -5.0400  -4.7847  -4.7569  -4.6634  -4.6497
    -4.4614  -4.4557  -4.2565  -4.2474  -3.9709  -3.9642  -3.9631  -3.9568
    -3.7392  -3.7132  -3.6911  -3.6679  -3.2725  -3.2669  -3.0899  -3.0742
    -3.0650  -3.0565  -2.5421  -2.5117  -2.5072  -2.4766  -2.2553  -2.2542
    -1.1997  -1.1686  -1.1147  -1.0996  -0.9984  -0.9567  -0.8943  -0.8726
    -0.4669  -0.4500  -0.3932  -0.3719  -0.0764  -0.0725  -0.0095   0.0028
     0.1673   0.1808   0.1882   0.2016   0.4403   0.4616   0.4696   0.4896
     0.6953   0.7035   0.7161   0.7224   4.5832   4.5894   4.6956   4.7062
     5.1938   5.2296   5.2421   5.2735   7.3506   7.4172   7.4665   7.5586
     7.8375   7.8982   7.9679   8.0545   8.2136   8.2476   8.4637   8.5025
     8.7177   8.7367   8.7430

     highest occupied, lowest unoccupied level (ev):     1.6758    4.2882

!    total energy              =   -1279.64486088 Ry
     Harris-Foulkes estimate   =   -1279.64486088 Ry
     estimated scf accuracy    <          9.5E-09 Ry

     total all-electron energy =     -4826.867507 Ry

     The total energy is the sum of the following terms:

     one-electron contribution =    -767.68507479 Ry
     hartree contribution      =     480.04577431 Ry
     xc contribution           =    -257.11615556 Ry
     ewald contribution        =    -383.08144788 Ry
     Dispersion Correction     =      -0.27815406 Ry
     one-center paw contrib.   =    -351.52980291 Ry

     convergence has been achieved in  13 iterations

     Forces acting on atoms (cartesian axes, Ry/au):

     atom    1 type  4   force =     0.03863471    0.01861541    0.03285066
     atom    2 type  4   force =    -0.03862062    0.01861587   -0.03286516
     atom    3 type  4   force =    -0.03863471   -0.01861541   -0.03285066
     atom    4 type  4   force =     0.03862062   -0.01861587    0.03286516
     atom    5 type  4   force =    -0.04381070   -0.02865860   -0.02663298
     atom    6 type  4   force =     0.04380464   -0.02865864    0.02665356
     atom    7 type  4   force =     0.04381070    0.02865860    0.02663298
     atom    8 type  4   force =    -0.04380464    0.02865864   -0.02665356
     atom    9 type  3   force =     0.00125035    0.00251470   -0.00156073
     atom   10 type  3   force =    -0.00125034    0.00251524    0.00156073
     atom   11 type  3   force =    -0.00125035   -0.00251470    0.00156073
     atom   12 type  3   force =     0.00125034   -0.00251524   -0.00156073
     atom   13 type  4   force =    -0.01819730   -0.04263148   -0.02504946
     atom   14 type  4   force =     0.01819596   -0.04263372    0.02505048
     atom   15 type  4   force =     0.01819730    0.04263148    0.02504946
     atom   16 type  4   force =    -0.01819596    0.04263372   -0.02505048
     atom   17 type  4   force =     0.01606635    0.05689852    0.03303378
     atom   18 type  4   force =    -0.01606704    0.05689721   -0.03303051
     atom   19 type  4   force =    -0.01606635   -0.05689852   -0.03303378
     atom   20 type  4   force =     0.01606704   -0.05689721    0.03303051
     atom   21 type  3   force =     0.00286799   -0.00137055   -0.00015113
     atom   22 type  3   force =    -0.00286826   -0.00137112    0.00015132
     atom   23 type  3   force =    -0.00286799    0.00137055    0.00015113
     atom   24 type  3   force =     0.00286826    0.00137112   -0.00015132
     atom   25 type  2   force =     0.07890977    0.03151103   -0.01685543
     atom   26 type  2   force =    -0.07891156    0.03150768    0.01685582
     atom   27 type  2   force =    -0.07890977   -0.03151103    0.01685543
     atom   28 type  2   force =     0.07891156   -0.03150768   -0.01685582
     atom   29 type  2   force =     0.03709151    0.08603083   -0.00931716
     atom   30 type  2   force =    -0.03709246    0.08602268    0.00931245
     atom   31 type  2   force =    -0.03709151   -0.08603083    0.00931716
     atom   32 type  2   force =     0.03709246   -0.08602268   -0.00931245
     atom   33 type  3   force =     0.00948122    0.00673062    0.00609240
     atom   34 type  3   force =    -0.00948144    0.00672979   -0.00609183
     atom   35 type  3   force =    -0.00948122   -0.00673062   -0.00609240
     atom   36 type  3   force =     0.00948144   -0.00672979    0.00609183
     atom   37 type  1   force =     0.00299813   -0.00212453   -0.00544336
     atom   38 type  1   force =    -0.00299032   -0.00213379    0.00545977
     atom   39 type  1   force =    -0.00299813    0.00212453    0.00544336
     atom   40 type  1   force =     0.00299032    0.00213379   -0.00545977
     atom   41 type  1   force =    -0.01717939   -0.03575993    0.04238678
     atom   42 type  1   force =     0.01718084   -0.03575677   -0.04238844
     atom   43 type  1   force =     0.01717939    0.03575993   -0.04238678
     atom   44 type  1   force =    -0.01718084    0.03575677    0.04238844
     atom   45 type  1   force =    -0.06150257   -0.04433446   -0.07428252
     atom   46 type  1   force =     0.06149226   -0.04433852    0.07428952
     atom   47 type  1   force =     0.06150257    0.04433446    0.07428252
     atom   48 type  1   force =    -0.06149226    0.04433852   -0.07428952
     atom   49 type  3   force =    -0.00377441   -0.00220833    0.00613307
     atom   50 type  3   force =     0.00377278   -0.00220808   -0.00613195
     atom   51 type  3   force =     0.00377441    0.00220833   -0.00613307
     atom   52 type  3   force =    -0.00377278    0.00220808    0.00613195
     atom   53 type  1   force =    -0.03176984   -0.03340684    0.04140293
     atom   54 type  1   force =     0.03178171   -0.03341277   -0.04138668
     atom   55 type  1   force =     0.03176984    0.03340684   -0.04140293
     atom   56 type  1   force =    -0.03178171    0.03341277    0.04138668
     atom   57 type  1   force =    -0.00897650   -0.01520156   -0.00446077
     atom   58 type  1   force =     0.00897430   -0.01520481    0.00444868
     atom   59 type  1   force =     0.00897650    0.01520156    0.00446077
     atom   60 type  1   force =    -0.00897430    0.01520481   -0.00444868

     Total force =     0.443615     Total SCF correction =     0.000236


     Computing stress (Cartesian axis) and pressure

          total   stress  (Ry/bohr**3)                   (kbar)     P=   66.99
   0.00015511  -0.00000000   0.00011716         22.82     -0.00     17.23
  -0.00000000   0.00013541  -0.00000000         -0.00     19.92     -0.00
   0.00011716  -0.00000000   0.00107554         17.23     -0.00    158.22


     Writing output data file scf.save
 
     init_run     :     24.31s CPU     24.66s WALL (       1 calls)
     electrons    :    603.72s CPU    621.90s WALL (       1 calls)
     forces       :     11.67s CPU     11.74s WALL (       1 calls)
     stress       :     39.36s CPU     39.47s WALL (       1 calls)

     Called by init_run:
     wfcinit      :     17.29s CPU     17.57s WALL (       1 calls)
     potinit      :      2.47s CPU      2.49s WALL (       1 calls)

     Called by electrons:
     c_bands      :    537.89s CPU    554.05s WALL (      13 calls)
     sum_band     :     58.46s CPU     60.00s WALL (      13 calls)
     v_of_rho     :      1.19s CPU      1.30s WALL (      14 calls)
     newd         :      2.39s CPU      2.75s WALL (      14 calls)
     PAW_pot      :      3.56s CPU      3.56s WALL (      14 calls)
     mix_rho      :      0.24s CPU      0.25s WALL (      13 calls)

     Called by c_bands:
     init_us_2    :      3.15s CPU      3.17s WALL (     232 calls)
     cegterg      :    525.01s CPU    541.14s WALL (     104 calls)

     Called by sum_band:
     sum_band:bec :      0.05s CPU      0.05s WALL (     104 calls)
     addusdens    :      2.35s CPU      2.71s WALL (      13 calls)

     Called by *egterg:
     h_psi        :    306.77s CPU    317.90s WALL (     615 calls)
     s_psi        :     54.11s CPU     54.11s WALL (     615 calls)
     g_psi        :      1.52s CPU      1.52s WALL (     503 calls)
     cdiaghg      :     36.80s CPU     36.77s WALL (     607 calls)

     Called by h_psi:
     h_psi:pot    :    304.83s CPU    315.91s WALL (     615 calls)
     h_psi:calbec :     53.91s CPU     54.02s WALL (     615 calls)
     vloc_psi     :    196.79s CPU    207.77s WALL (     615 calls)
     add_vuspsi   :     54.12s CPU     54.12s WALL (     615 calls)

     General routines
     calbec       :     78.56s CPU     78.71s WALL (     759 calls)
     fft          :      1.08s CPU      1.26s WALL (     206 calls)
     fftw         :    213.01s CPU    224.19s WALL (   97340 calls)
 
     Parallel routines
     fft_scatter  :     44.14s CPU     51.47s WALL (   97546 calls)
 
     PWSCF        : 11m25.05s CPU    12m21.35s WALL

 
   This run was terminated on:   9: 9:34  22Dec2017            

=------------------------------------------------------------------------------=
   JOB DONE.
=------------------------------------------------------------------------------=
