
     Program PWSCF v.6.1 (svn rev. 13369) starts on  4Nov2017 at  1: 4: 3 

     This program is part of the open-source Quantum ESPRESSO suite
     for quantum simulation of materials; please cite
         "P. Giannozzi et al., J. Phys.:Condens. Matter 21 395502 (2009);
          URL http://www.quantum-espresso.org", 
     in publications or presentations arising from this work. More details at
     http://www.quantum-espresso.org/quote

     Parallel version (MPI), running on     8 processors
     R & G space division:  proc/nbgrp/npool/nimage =       8
     Waiting for input...
     Reading input from standard input

     Current dimensions of program PWSCF are:
     Max number of different atomic species (ntypx) = 10
     Max number of k-points (npk) =  40000
     Max angular momentum in pseudopotentials (lmaxx) =  3
               file C.pbe-n-kjpaw_psl.0.1.UPF: wavefunction(s)  2P renormalized
               file N.pbe-n-kjpaw_psl.0.1.UPF: wavefunction(s)  2P renormalized
               file H.pbe-kjpaw_psl.0.1.UPF: wavefunction(s)  1S renormalized
               file O.pbe-n-kjpaw_psl.0.1.UPF: wavefunction(s)  2P renormalized

     -------------------------------------
     Parameters for Dispersion Correction:
     -------------------------------------
       atom      VdW radius       C_6     

        C          2.744         60.710
        N          2.640         42.670
        H          1.892          4.857
        O          2.536         24.284

     Subspace diagonalization in iterative solution of the eigenvalue problem:
     a serial algorithm will be used

 
     Parallelization info
     --------------------
     sticks:   dense  smooth     PW     G-vecs:    dense   smooth      PW
     Min         768     768    205                38744    38744    5339
     Max         769     769    206                38747    38747    5340
     Sum        6149    6149   1643               309969   309969   42713
 


     bravais-lattice index     =            0
     lattice parameter (alat)  =      14.6208  a.u.
     unit-cell volume          =    2294.4551 (a.u.)^3
     number of atoms/cell      =           38
     number of atomic types    =            4
     number of electrons       =       108.00
     number of Kohn-Sham states=           64
     kinetic-energy cutoff     =     100.0000  Ry
     charge density cutoff     =     400.0000  Ry
     convergence threshold     =      1.0E-08
     mixing beta               =       0.5000
     number of iterations used =            8  plain     mixing
     Exchange-correlation      =  SLA  PW   PBX  PBC ( 1  4  3  4 0 0)

     celldm(1)=  14.620811  celldm(2)=   0.000000  celldm(3)=   0.000000
     celldm(4)=   0.000000  celldm(5)=   0.000000  celldm(6)=   0.000000

     crystal axes: (cart. coord. in units of alat)
               a(1) = (   1.000000   0.000000   0.000000 )  
               a(2) = (   0.000000   0.903839   0.000000 )  
               a(3) = (  -0.429867   0.000000   0.812221 )  

     reciprocal axes: (cart. coord. in units 2 pi/alat)
               b(1) = (  1.000000  0.000000  0.529249 )  
               b(2) = (  0.000000  1.106392  0.000000 )  
               b(3) = (  0.000000  0.000000  1.231192 )  


     PseudoPot. # 1 for  C read from file:
     /scratch/ahofstet/pseudo/C.pbe-n-kjpaw_psl.0.1.UPF
     MD5 check sum: 430fe95172b1e11ef3f8ed03bac87931
     Pseudo is Projector augmented-wave + core cor, Zval =  4.0
     Generated using "atomic" code by A. Dal Corso  v.5.0.99 svn rev. 10869
     Shape of augmentation charge: BESSEL
     Using radial grid of 1073 points,  4 beta functions with: 
                l(1) =   0
                l(2) =   0
                l(3) =   1
                l(4) =   1
     Q(r) pseudized with 0 coefficients 


     PseudoPot. # 2 for  N read from file:
     /scratch/ahofstet/pseudo/N.pbe-n-kjpaw_psl.0.1.UPF
     MD5 check sum: f73187c8b701007e77325f868c9291d7
     Pseudo is Projector augmented-wave + core cor, Zval =  5.0
     Generated using "atomic" code by A. Dal Corso  v.5.0.99 svn rev. 10869
     Shape of augmentation charge: PSQ
     Using radial grid of 1085 points,  4 beta functions with: 
                l(1) =   0
                l(2) =   0
                l(3) =   1
                l(4) =   1
     Q(r) pseudized with 0 coefficients 


     PseudoPot. # 3 for  H read from file:
     /scratch/ahofstet/pseudo/H.pbe-kjpaw_psl.0.1.UPF
     MD5 check sum: 94e484f906d9e9773b2f6e52662335b2
     Pseudo is Projector augmented-wave, Zval =  1.0
     Generated using "atomic" code by A. Dal Corso  v.5.0.99 svn rev. 10869
     Shape of augmentation charge: PSQ
     Using radial grid of  929 points,  2 beta functions with: 
                l(1) =   0
                l(2) =   0
     Q(r) pseudized with 0 coefficients 


     PseudoPot. # 4 for  O read from file:
     /scratch/ahofstet/pseudo/O.pbe-n-kjpaw_psl.0.1.UPF
     MD5 check sum: 3f94a2996a3169367d6eb21d9b593f20
     Pseudo is Projector augmented-wave + core cor, Zval =  6.0
     Generated using "atomic" code by A. Dal Corso  v.5.0.99 svn rev. 10869
     Shape of augmentation charge: BESSEL
     Using radial grid of 1095 points,  4 beta functions with: 
                l(1) =   0
                l(2) =   0
                l(3) =   1
                l(4) =   1
     Q(r) pseudized with 0 coefficients 


     atomic species   valence    mass     pseudopotential
        C              4.00    12.01070      C( 1.00)
        N              5.00    14.00670      N( 1.00)
        H              1.00     1.00794      H( 1.00)
        O              6.00    15.99940      O( 1.00)

      2 Sym. Ops. (no inversion) found ( 1 have fractional translation)



   Cartesian axes

     site n.     atom                  positions (alat units)
         1           O   tau(   1) = (   0.5469189   0.2356837   0.3645662  )
         2           O   tau(   2) = (   0.0232137   0.6876030   0.4476548  )
         3           O   tau(   3) = (   0.1900757   0.2306124   0.1908821  )
         4           O   tau(   4) = (   0.3800569   0.6825318   0.6213390  )
         5           N   tau(   5) = (   0.2715369   0.1831131   0.4780530  )
         6           N   tau(   6) = (   0.2985957   0.6350325   0.3341680  )
         7           C   tau(   7) = (   0.3210158   0.2604429   0.7693140  )
         8           C   tau(   8) = (   0.2491168   0.7123623   0.0429070  )
         9           C   tau(   9) = (   0.4937659   0.2209210   0.6786940  )
        10           C   tau(  10) = (   0.0763667   0.6728403   0.1335271  )
        11           C   tau(  11) = (   0.4489332   0.2152844   0.4872254  )
        12           C   tau(  12) = (   0.1211993   0.6672038   0.3249956  )
        13           C   tau(  13) = (   0.1546085   0.2133629   0.3443113  )
        14           C   tau(  14) = (   0.4155240   0.6652822   0.4679097  )
        15           C   tau(  15) = (  -0.0236801   0.2221432   0.4274002  )
        16           C   tau(  16) = (   0.5938126   0.6740625   0.3848208  )
        17           C   tau(  17) = (   0.0126115   0.2625957   0.6186351  )
        18           C   tau(  18) = (   0.5575211   0.7145150   0.1935860  )
        19           C   tau(  19) = (   0.1878633   0.1741546   0.6497928  )
        20           C   tau(  20) = (   0.3822693   0.6260740   0.1624282  )
        21           H   tau(  21) = (   0.2996409   0.4011321   0.7701656  )
        22           H   tau(  22) = (   0.2704917   0.8530514   0.0420555  )
        23           H   tau(  23) = (   0.7416369   0.2123074   0.0904290  )
        24           H   tau(  24) = (  -0.1715043   0.6642267   0.7217920  )
        25           H   tau(  25) = (   0.5978524   0.3132820   0.7040535  )
        26           H   tau(  26) = (  -0.0277198   0.7652014   0.1081675  )
        27           H   tau(  27) = (   0.5427187   0.0915147   0.7139880  )
        28           H   tau(  28) = (   0.0274139   0.5434341   0.0982330  )
        29           H   tau(  29) = (  -0.0834300   0.0935619   0.4120939  )
        30           H   tau(  30) = (   0.6535626   0.5454812   0.4001271  )
        31           H   tau(  31) = (  -0.1059276   0.3157606   0.3603761  )
        32           H   tau(  32) = (   0.6760602   0.7676800   0.4518450  )
        33           H   tau(  33) = (  -0.0871499   0.2165757   0.7091263  )
        34           H   tau(  34) = (   0.6572824   0.6684951   0.1030947  )
        35           H   tau(  35) = (   0.0274338   0.4034109   0.6342070  )
        36           H   tau(  36) = (   0.5426988   0.8553303   0.1780140  )
        37           H   tau(  37) = (   0.1709789   0.0368648   0.6834563  )
        38           H   tau(  38) = (   0.3991537   0.4887841   0.1287647  )

     number of k points=    10
                       cart. coord. in units 2pi/alat
        k(    1) = (   0.0000000   0.0000000   0.0000000), wk =   0.0740741
        k(    2) = (   0.0000000   0.0000000   0.4103973), wk =   0.1481481
        k(    3) = (   0.0000000   0.3687974   0.0000000), wk =   0.1481481
        k(    4) = (   0.0000000   0.3687974   0.4103973), wk =   0.2962963
        k(    5) = (   0.3333333   0.0000000   0.1764164), wk =   0.1481481
        k(    6) = (   0.3333333   0.0000000   0.5868137), wk =   0.1481481
        k(    7) = (   0.3333333   0.0000000  -0.2339809), wk =   0.1481481
        k(    8) = (   0.3333333   0.3687974   0.1764164), wk =   0.2962963
        k(    9) = (   0.3333333   0.3687974   0.5868137), wk =   0.2962963
        k(   10) = (   0.3333333   0.3687974  -0.2339809), wk =   0.2962963

     Dense  grid:   309969 G-vectors     FFT dimensions: (  96,  90,  90)

     Estimated max dynamical RAM per process >     130.95MB

     Estimated total allocated dynamical RAM >    1047.58MB

     Check: negative/imaginary core charge=   -0.000002    0.000000

     Initial potential from superposition of free atoms

     starting charge  107.99923, renormalised to  108.00000
     Starting wfc are   98 randomized atomic wfcs
     Checking if some PAW data can be deallocated... 

     total cpu time spent up to now is        7.9 secs

     per-process dynamical memory:   159.9 Mb

     Self-consistent Calculation

     iteration #  1     ecut=   100.00 Ry     beta=0.50
     Davidson diagonalization with overlap
     ethr =  1.00E-02,  avg # of iterations =  4.8

     total cpu time spent up to now is       21.3 secs

     total energy              =    -502.02703768 Ry
     Harris-Foulkes estimate   =    -504.10864387 Ry
     estimated scf accuracy    <       3.97423858 Ry

     iteration #  2     ecut=   100.00 Ry     beta=0.50
     Davidson diagonalization with overlap
     ethr =  3.68E-03,  avg # of iterations =  2.0

     total cpu time spent up to now is       28.4 secs

     total energy              =    -502.23712503 Ry
     Harris-Foulkes estimate   =    -502.53780877 Ry
     estimated scf accuracy    <       0.59626573 Ry

     iteration #  3     ecut=   100.00 Ry     beta=0.50
     Davidson diagonalization with overlap
     ethr =  5.52E-04,  avg # of iterations =  5.0

     total cpu time spent up to now is       41.9 secs

     total energy              =    -502.70304085 Ry
     Harris-Foulkes estimate   =    -502.97076091 Ry
     estimated scf accuracy    <       0.75867609 Ry

     iteration #  4     ecut=   100.00 Ry     beta=0.50
     Davidson diagonalization with overlap
     ethr =  5.52E-04,  avg # of iterations =  1.0

     total cpu time spent up to now is       48.6 secs

     total energy              =    -502.56470387 Ry
     Harris-Foulkes estimate   =    -502.74280000 Ry
     estimated scf accuracy    <       0.25194617 Ry

     iteration #  5     ecut=   100.00 Ry     beta=0.50
     Davidson diagonalization with overlap
     ethr =  2.33E-04,  avg # of iterations =  4.1

     total cpu time spent up to now is       61.8 secs

     total energy              =    -502.73693856 Ry
     Harris-Foulkes estimate   =    -502.89988319 Ry
     estimated scf accuracy    <       0.46216727 Ry

     iteration #  6     ecut=   100.00 Ry     beta=0.50
     Davidson diagonalization with overlap
     ethr =  2.33E-04,  avg # of iterations =  1.0

     total cpu time spent up to now is       68.4 secs

     total energy              =    -502.64333553 Ry
     Harris-Foulkes estimate   =    -502.74909340 Ry
     estimated scf accuracy    <       0.18256046 Ry

     iteration #  7     ecut=   100.00 Ry     beta=0.50
     Davidson diagonalization with overlap
     ethr =  1.69E-04,  avg # of iterations =  5.0

     total cpu time spent up to now is       80.7 secs

     total energy              =    -502.74635771 Ry
     Harris-Foulkes estimate   =    -502.77169231 Ry
     estimated scf accuracy    <       0.06529190 Ry

     iteration #  8     ecut=   100.00 Ry     beta=0.50
     Davidson diagonalization with overlap
     ethr =  6.05E-05,  avg # of iterations =  1.0

     total cpu time spent up to now is       87.3 secs

     total energy              =    -502.73781765 Ry
     Harris-Foulkes estimate   =    -502.74846583 Ry
     estimated scf accuracy    <       0.02352579 Ry

     iteration #  9     ecut=   100.00 Ry     beta=0.50
     Davidson diagonalization with overlap
     ethr =  2.18E-05,  avg # of iterations =  4.1

     total cpu time spent up to now is       98.7 secs

     total energy              =    -502.75095509 Ry
     Harris-Foulkes estimate   =    -502.75204884 Ry
     estimated scf accuracy    <       0.00314744 Ry

     iteration # 10     ecut=   100.00 Ry     beta=0.50
     Davidson diagonalization with overlap
     ethr =  2.91E-06,  avg # of iterations =  2.0

     total cpu time spent up to now is      105.7 secs

     total energy              =    -502.75033414 Ry
     Harris-Foulkes estimate   =    -502.75104998 Ry
     estimated scf accuracy    <       0.00130796 Ry

     iteration # 11     ecut=   100.00 Ry     beta=0.50
     Davidson diagonalization with overlap
     ethr =  1.21E-06,  avg # of iterations =  3.8

     total cpu time spent up to now is      116.7 secs

     total energy              =    -502.75114422 Ry
     Harris-Foulkes estimate   =    -502.75116470 Ry
     estimated scf accuracy    <       0.00030704 Ry

     iteration # 12     ecut=   100.00 Ry     beta=0.50
     Davidson diagonalization with overlap
     ethr =  2.84E-07,  avg # of iterations =  1.0

     total cpu time spent up to now is      123.3 secs

     total energy              =    -502.75101677 Ry
     Harris-Foulkes estimate   =    -502.75114894 Ry
     estimated scf accuracy    <       0.00026213 Ry

     iteration # 13     ecut=   100.00 Ry     beta=0.50
     Davidson diagonalization with overlap
     ethr =  2.43E-07,  avg # of iterations =  3.2

     total cpu time spent up to now is      131.5 secs

     total energy              =    -502.75106001 Ry
     Harris-Foulkes estimate   =    -502.75106163 Ry
     estimated scf accuracy    <       0.00000569 Ry

     iteration # 14     ecut=   100.00 Ry     beta=0.50
     Davidson diagonalization with overlap
     ethr =  5.27E-09,  avg # of iterations =  4.0

     total cpu time spent up to now is      144.4 secs

     total energy              =    -502.75107106 Ry
     Harris-Foulkes estimate   =    -502.75107140 Ry
     estimated scf accuracy    <       0.00000167 Ry

     iteration # 15     ecut=   100.00 Ry     beta=0.50
     Davidson diagonalization with overlap
     ethr =  1.55E-09,  avg # of iterations =  1.0

     total cpu time spent up to now is      151.0 secs

     total energy              =    -502.75107061 Ry
     Harris-Foulkes estimate   =    -502.75107112 Ry
     estimated scf accuracy    <       0.00000095 Ry

     iteration # 16     ecut=   100.00 Ry     beta=0.50
     Davidson diagonalization with overlap
     ethr =  8.82E-10,  avg # of iterations =  3.2

     total cpu time spent up to now is      161.4 secs

     total energy              =    -502.75107093 Ry
     Harris-Foulkes estimate   =    -502.75107096 Ry
     estimated scf accuracy    <       0.00000018 Ry

     iteration # 17     ecut=   100.00 Ry     beta=0.50
     Davidson diagonalization with overlap
     ethr =  1.62E-10,  avg # of iterations =  4.0

     total cpu time spent up to now is      172.9 secs

     total energy              =    -502.75107083 Ry
     Harris-Foulkes estimate   =    -502.75107107 Ry
     estimated scf accuracy    <       0.00000050 Ry

     iteration # 18     ecut=   100.00 Ry     beta=0.50
     Davidson diagonalization with overlap
     ethr =  1.62E-10,  avg # of iterations =  5.3

     total cpu time spent up to now is      184.2 secs

     End of self-consistent calculation

          k = 0.0000 0.0000 0.0000 ( 38711 PWs)   bands (ev):

   -20.2971 -20.2086 -19.6469 -19.6074 -17.7650 -17.7297 -13.7835 -13.7566
   -13.2890 -13.1762 -11.1570 -11.0279 -10.0250  -9.9185  -8.7726  -8.7124
    -8.4901  -8.4312  -6.7508  -6.3148  -5.9187  -5.8948  -5.3727  -5.1031
    -4.8055  -4.7047  -4.4657  -4.3402  -4.3136  -4.2431  -4.0703  -3.9175
    -3.6648  -3.6286  -3.5431  -3.4492  -3.4468  -3.3216  -2.9786  -2.8686
    -2.8077  -2.7755  -1.9506  -1.9257  -1.6952  -1.6425  -1.6425  -1.5669
    -0.4195  -0.2501  -0.1047  -0.0787   0.6473   0.6495   4.2428   4.5693
     5.6750   6.1366   6.4326   7.5062   7.7485   7.8390   8.1260   8.1926

          k = 0.0000 0.0000 0.4104 ( 38755 PWs)   bands (ev):

   -20.2939 -20.2063 -19.6487 -19.6088 -17.7737 -17.7333 -13.7857 -13.7695
   -13.2410 -13.1745 -11.1291 -11.0596  -9.9712  -9.9228  -8.7720  -8.7066
    -8.5012  -8.4729  -6.7446  -6.3604  -5.8939  -5.8402  -5.4359  -5.1839
    -4.9891  -4.6988  -4.6329  -4.3846  -4.3217  -4.2604  -4.0640  -3.9736
    -3.7075  -3.6793  -3.4587  -3.3657  -3.2811  -3.1825  -3.0344  -2.8683
    -2.7445  -2.6792  -1.9349  -1.9026  -1.7227  -1.5908  -1.5715  -1.5117
    -0.3689  -0.1312  -0.0722  -0.0194   0.5694   0.6073   4.1051   4.5781
     5.9019   6.2590   6.3911   6.9879   7.3627   7.6321   7.9328   8.2132

          k = 0.0000 0.3688 0.0000 ( 38754 PWs)   bands (ev):

   -20.2751 -20.2309 -19.6370 -19.6173 -17.7564 -17.7388 -13.7778 -13.7644
   -13.2617 -13.2053 -11.1259 -11.0613  -9.9976  -9.9443  -8.7598  -8.7299
    -8.4707  -8.4418  -6.6375  -6.4201  -5.9036  -5.8987  -5.2881  -5.1562
    -4.7193  -4.6415  -4.5104  -4.4831  -4.3087  -4.2545  -4.0270  -3.9498
    -3.6296  -3.5934  -3.5179  -3.4835  -3.4198  -3.3592  -2.9710  -2.9066
    -2.8181  -2.8056  -1.9602  -1.9592  -1.7223  -1.6903  -1.6210  -1.6091
    -0.3347  -0.2175  -0.1512  -0.0957   0.6527   0.6529   4.3102   4.4707
     5.8032   6.0650   6.7311   7.3142   7.8934   7.9653   8.2573   8.2823

          k = 0.0000 0.3688 0.4104 ( 38744 PWs)   bands (ev):

   -20.2722 -20.2284 -19.6387 -19.6188 -17.7639 -17.7436 -13.7827 -13.7746
   -13.2249 -13.1917 -11.1121 -11.0772  -9.9582  -9.9340  -8.7603  -8.7282
    -8.4905  -8.4772  -6.6295  -6.4396  -5.8675  -5.8434  -5.3513  -5.2451
    -4.8990  -4.7190  -4.6471  -4.5372  -4.3069  -4.2737  -4.0070  -3.9706
    -3.6892  -3.6721  -3.4413  -3.3767  -3.2902  -3.2248  -3.0188  -2.9257
    -2.7834  -2.7463  -1.9280  -1.9032  -1.6779  -1.6146  -1.5444  -1.5107
    -0.2927  -0.1701  -0.0839  -0.0539   0.5846   0.6031   4.1951   4.4311
     6.0067   6.1985   6.6872   7.0937   7.3487   7.6932   8.0163   8.1953

          k = 0.3333 0.0000 0.1764 ( 38699 PWs)   bands (ev):

   -20.2934 -20.2059 -19.6511 -19.6103 -17.7692 -17.7329 -13.7806 -13.7626
   -13.2392 -13.1573 -11.1422 -11.0757 -10.0643  -9.9464  -8.8143  -8.6654
    -8.5017  -8.4710  -6.7367  -6.2723  -5.7988  -5.7876  -5.5550  -5.0570
    -4.8903  -4.6707  -4.4403  -4.3800  -4.3010  -4.2785  -4.0860  -3.9935
    -3.7050  -3.6548  -3.5753  -3.4643  -3.4056  -3.2883  -2.9250  -2.8649
    -2.8196  -2.7466  -1.9721  -1.8372  -1.7345  -1.6009  -1.4659  -1.4511
    -0.3477  -0.2343  -0.0546  -0.0411   0.4368   0.4686   3.9202   4.5372
     6.0715   6.2216   6.5299   7.3480   7.4929   7.7075   7.7831   8.1137

          k = 0.3333 0.0000 0.5868 ( 38729 PWs)   bands (ev):

   -20.2923 -20.2051 -19.6507 -19.6101 -17.7754 -17.7346 -13.7974 -13.7634
   -13.2090 -13.1734 -11.1140 -11.0792 -10.0040  -9.9285  -8.7947  -8.6721
    -8.5063  -8.4979  -6.7264  -6.3558  -5.8331  -5.8193  -5.5184  -5.1590
    -5.0141  -4.7798  -4.5974  -4.4466  -4.2438  -4.1612  -4.1263  -4.0256
    -3.8070  -3.6066  -3.4157  -3.3367  -3.2761  -3.1693  -3.0131  -2.8713
    -2.7765  -2.7007  -2.0066  -1.8174  -1.7639  -1.5666  -1.4770  -1.4328
    -0.3513  -0.1125  -0.0477   0.0154   0.4642   0.5111   3.9540   4.5693
     6.1003   6.2896   6.6367   6.6837   7.2243   7.7252   7.9740   8.1786

          k = 0.3333 0.0000-0.2340 ( 38717 PWs)   bands (ev):

   -20.2942 -20.2066 -19.6485 -19.6085 -17.7728 -17.7326 -13.8009 -13.7642
   -13.2374 -13.1795 -11.1222 -11.0447  -9.9693  -9.9161  -8.7998  -8.7154
    -8.4898  -8.4631  -6.7449  -6.3457  -5.9262  -5.8606  -5.3856  -5.1936
    -5.0091  -4.7583  -4.6547  -4.3902  -4.3027  -4.2598  -4.0715  -3.9141
    -3.7012  -3.6636  -3.4339  -3.3510  -3.2710  -3.1763  -3.0448  -2.8868
    -2.7401  -2.6731  -1.9434  -1.9253  -1.7345  -1.6079  -1.5390  -1.5054
    -0.3723  -0.1306  -0.0813  -0.0321   0.5820   0.6134   4.1164   4.5657
     5.9184   6.2696   6.4294   6.9691   7.4490   7.5990   7.8045   8.1691

          k = 0.3333 0.3688 0.1764 ( 38775 PWs)   bands (ev):

   -20.2717 -20.2279 -19.6409 -19.6205 -17.7604 -17.7423 -13.7771 -13.7681
   -13.2192 -13.1782 -11.1268 -11.0935 -10.0353  -9.9764  -8.7794  -8.7053
    -8.4888  -8.4741  -6.6192  -6.3866  -5.7905  -5.7857  -5.4131  -5.1642
    -4.8094  -4.6116  -4.5916  -4.4534  -4.2832  -4.2727  -4.0637  -4.0201
    -3.6734  -3.6215  -3.5506  -3.4635  -3.3760  -3.3247  -2.9292  -2.8808
    -2.8343  -2.7887  -1.9563  -1.8810  -1.7373  -1.6916  -1.4673  -1.4615
    -0.2571  -0.1771  -0.1040  -0.0741   0.4543   0.4690   4.0288   4.3326
     6.1318   6.2131   6.8825   7.4220   7.5174   7.7888   7.8768   8.1813

          k = 0.3333 0.3688 0.5868 ( 38746 PWs)   bands (ev):

   -20.2706 -20.2270 -19.6405 -19.6203 -17.7655 -17.7451 -13.7900 -13.7730
   -13.2004 -13.1826 -11.1061 -11.0887  -9.9849  -9.9470  -8.7658  -8.7045
    -8.5037  -8.4988  -6.6158  -6.4329  -5.8162  -5.8067  -5.4134  -5.2519
    -4.9065  -4.7583  -4.6611  -4.5906  -4.2182  -4.1772  -4.1174  -4.0615
    -3.7181  -3.6252  -3.3852  -3.3429  -3.2788  -3.2081  -3.0038  -2.9183
    -2.8224  -2.7779  -1.9439  -1.8511  -1.7071  -1.6123  -1.4561  -1.4370
    -0.2674  -0.1519  -0.0510  -0.0244   0.4841   0.5077   4.0668   4.3732
     6.1640   6.2653   6.8928   7.0233   7.2626   7.6330   7.7019   8.1110

          k = 0.3333 0.3688-0.2340 ( 38747 PWs)   bands (ev):

   -20.2725 -20.2287 -19.6385 -19.6185 -17.7630 -17.7429 -13.7925 -13.7742
   -13.2238 -13.1948 -11.1035 -11.0647  -9.9554  -9.9287  -8.7801  -8.7381
    -8.4819  -8.4687  -6.6310  -6.4371  -5.8874  -5.8583  -5.3416  -5.2594
    -4.8843  -4.7275  -4.6643  -4.5388  -4.3098  -4.2806  -4.0054  -3.9371
    -3.6770  -3.6531  -3.4299  -3.3720  -3.3015  -3.2202  -3.0220  -2.9374
    -2.7789  -2.7370  -1.9326  -1.9205  -1.6767  -1.6096  -1.5415  -1.5112
    -0.2954  -0.1745  -0.0883  -0.0617   0.5941   0.6095   4.2115   4.4375
     6.0164   6.1986   6.7093   7.0502   7.4070   7.7349   7.9465   8.0621

     highest occupied, lowest unoccupied level (ev):     0.6529    3.9202

!    total energy              =    -502.75107092 Ry
     Harris-Foulkes estimate   =    -502.75107092 Ry
     estimated scf accuracy    <          6.4E-09 Ry

     total all-electron energy =     -1909.433585 Ry

     The total energy is the sum of the following terms:

     one-electron contribution =    -286.66352780 Ry
     hartree contribution      =     184.59154795 Ry
     xc contribution           =    -111.48528580 Ry
     ewald contribution        =    -141.28304603 Ry
     Dispersion Correction     =      -0.16888381 Ry
     one-center paw contrib.   =    -147.74187542 Ry

     convergence has been achieved in  18 iterations

     Forces acting on atoms (cartesian axes, Ry/au):

     atom    1 type  4   force =    -0.00849773   -0.00179278    0.00414956
     atom    2 type  4   force =     0.00849773   -0.00179278   -0.00414956
     atom    3 type  4   force =     0.00099967   -0.00177154    0.01003288
     atom    4 type  4   force =    -0.00099967   -0.00177154   -0.01003288
     atom    5 type  2   force =     0.00222241    0.00317334   -0.00213603
     atom    6 type  2   force =    -0.00222241    0.00317334    0.00213603
     atom    7 type  1   force =    -0.00047534   -0.00300571    0.00137367
     atom    8 type  1   force =     0.00047534   -0.00300571   -0.00137367
     atom    9 type  1   force =    -0.00173800   -0.00337067    0.00148473
     atom   10 type  1   force =     0.00173800   -0.00337067   -0.00148473
     atom   11 type  1   force =     0.00991250   -0.00010944   -0.00170678
     atom   12 type  1   force =    -0.00991250   -0.00010944    0.00170678
     atom   13 type  1   force =    -0.00690058    0.00223481   -0.01115887
     atom   14 type  1   force =     0.00690058    0.00223481    0.01115887
     atom   15 type  1   force =     0.00080718   -0.00287746    0.00120160
     atom   16 type  1   force =    -0.00080718   -0.00287746   -0.00120160
     atom   17 type  1   force =     0.00003410   -0.00170478    0.00370632
     atom   18 type  1   force =    -0.00003410   -0.00170478   -0.00370632
     atom   19 type  1   force =    -0.00137845    0.00421593    0.00213910
     atom   20 type  1   force =     0.00137845    0.00421593   -0.00213910
     atom   21 type  3   force =    -0.00087946   -0.00087677   -0.00027692
     atom   22 type  3   force =     0.00087946   -0.00087677    0.00027692
     atom   23 type  3   force =     0.00200859    0.00114501   -0.00422399
     atom   24 type  3   force =    -0.00200859    0.00114501    0.00422399
     atom   25 type  3   force =     0.00048306    0.00101540    0.00004776
     atom   26 type  3   force =    -0.00048306    0.00101540   -0.00004776
     atom   27 type  3   force =    -0.00125690    0.00165224    0.00024955
     atom   28 type  3   force =     0.00125690    0.00165224   -0.00024955
     atom   29 type  3   force =     0.00000434    0.00057398    0.00034277
     atom   30 type  3   force =    -0.00000434    0.00057398   -0.00034277
     atom   31 type  3   force =    -0.00078009    0.00070240    0.00014914
     atom   32 type  3   force =     0.00078009    0.00070240   -0.00014914
     atom   33 type  3   force =     0.00366388    0.00221111   -0.00544300
     atom   34 type  3   force =    -0.00366388    0.00221111    0.00544300
     atom   35 type  3   force =     0.00020547   -0.00151805    0.00112322
     atom   36 type  3   force =    -0.00020547   -0.00151805   -0.00112322
     atom   37 type  3   force =    -0.00022018    0.00010296   -0.00110086
     atom   38 type  3   force =     0.00022018    0.00010296    0.00110086

     Total force =     0.036309     Total SCF correction =     0.000129


     Computing stress (Cartesian axis) and pressure

          total   stress  (Ry/bohr**3)                   (kbar)     P=  -10.52
  -0.00005045   0.00000000   0.00003559         -7.42      0.00      5.24
   0.00000000  -0.00008283   0.00000000          0.00    -12.18      0.00
   0.00003559   0.00000000  -0.00008119          5.24      0.00    -11.94


     Writing output data file scf.save
 
     init_run     :      7.22s CPU      7.39s WALL (       1 calls)
     electrons    :    171.56s CPU    176.51s WALL (       1 calls)
     forces       :      3.75s CPU      3.78s WALL (       1 calls)
     stress       :      8.59s CPU      8.60s WALL (       1 calls)

     Called by init_run:
     wfcinit      :      3.77s CPU      3.89s WALL (       1 calls)
     potinit      :      1.21s CPU      1.22s WALL (       1 calls)

     Called by electrons:
     c_bands      :    146.13s CPU    150.47s WALL (      18 calls)
     sum_band     :     20.32s CPU     20.71s WALL (      18 calls)
     v_of_rho     :      0.84s CPU      0.92s WALL (      19 calls)
     newd         :      1.36s CPU      1.39s WALL (      19 calls)
     PAW_pot      :      2.61s CPU      2.61s WALL (      19 calls)
     mix_rho      :      0.19s CPU      0.21s WALL (      18 calls)

     Called by c_bands:
     init_us_2    :      1.93s CPU      1.94s WALL (     390 calls)
     cegterg      :    140.87s CPU    145.20s WALL (     180 calls)

     Called by sum_band:
     sum_band:bec :      0.02s CPU      0.02s WALL (     180 calls)
     addusdens    :      1.47s CPU      1.48s WALL (      18 calls)

     Called by *egterg:
     h_psi        :    104.67s CPU    108.98s WALL (     745 calls)
     s_psi        :      8.23s CPU      8.23s WALL (     745 calls)
     g_psi        :      0.78s CPU      0.78s WALL (     555 calls)
     cdiaghg      :      6.41s CPU      6.41s WALL (     735 calls)

     Called by h_psi:
     h_psi:pot    :    103.79s CPU    108.09s WALL (     745 calls)
     h_psi:calbec :      7.66s CPU      7.71s WALL (     745 calls)
     vloc_psi     :     88.11s CPU     92.37s WALL (     745 calls)
     add_vuspsi   :      8.01s CPU      8.01s WALL (     745 calls)

     General routines
     calbec       :     10.73s CPU     10.78s WALL (     975 calls)
     fft          :      0.49s CPU      0.64s WALL (     271 calls)
     fftw         :     93.81s CPU     98.32s WALL (   81972 calls)
 
     Parallel routines
     fft_scatter  :     20.51s CPU     22.48s WALL (   82243 calls)
 
     PWSCF        :  3m13.16s CPU     3m19.06s WALL

 
   This run was terminated on:   1: 7:22   4Nov2017            

=------------------------------------------------------------------------------=
   JOB DONE.
=------------------------------------------------------------------------------=
