
     Program PWSCF v.6.1 (svn rev. 13369) starts on 20Dec2017 at 12:28:32 

     This program is part of the open-source Quantum ESPRESSO suite
     for quantum simulation of materials; please cite
         "P. Giannozzi et al., J. Phys.:Condens. Matter 21 395502 (2009);
          URL http://www.quantum-espresso.org", 
     in publications or presentations arising from this work. More details at
     http://www.quantum-espresso.org/quote

     Parallel version (MPI), running on     8 processors
     R & G space division:  proc/nbgrp/npool/nimage =       8
     Waiting for input...
     Reading input from standard input

     Current dimensions of program PWSCF are:
     Max number of different atomic species (ntypx) = 10
     Max number of k-points (npk) =  40000
     Max angular momentum in pseudopotentials (lmaxx) =  3
               file C.pbe-n-kjpaw_psl.0.1.UPF: wavefunction(s)  2P renormalized
               file N.pbe-n-kjpaw_psl.0.1.UPF: wavefunction(s)  2P renormalized
               file H.pbe-kjpaw_psl.0.1.UPF: wavefunction(s)  1S renormalized
               file O.pbe-n-kjpaw_psl.0.1.UPF: wavefunction(s)  2P renormalized

     -------------------------------------
     Parameters for Dispersion Correction:
     -------------------------------------
       atom      VdW radius       C_6     

        C          2.744         60.710
        N          2.640         42.670
        H          1.892          4.857
        O          2.536         24.284

     Subspace diagonalization in iterative solution of the eigenvalue problem:
     a serial algorithm will be used

 
     Parallelization info
     --------------------
     sticks:   dense  smooth     PW     G-vecs:    dense   smooth      PW
     Min         713     713    186                66660    66660    8954
     Max         714     714    188                66664    66664    8956
     Sum        5711    5711   1495               533303   533303   71641
 


     bravais-lattice index     =            0
     lattice parameter (alat)  =      12.5759  a.u.
     unit-cell volume          =    3947.6824 (a.u.)^3
     number of atoms/cell      =           64
     number of atomic types    =            4
     number of electrons       =       200.00
     number of Kohn-Sham states=          120
     kinetic-energy cutoff     =     100.0000  Ry
     charge density cutoff     =     400.0000  Ry
     convergence threshold     =      1.0E-08
     mixing beta               =       0.5000
     number of iterations used =            8  plain     mixing
     Exchange-correlation      =  SLA  PW   PBX  PBC ( 1  4  3  4 0 0)

     celldm(1)=  12.575938  celldm(2)=   0.000000  celldm(3)=   0.000000
     celldm(4)=   0.000000  celldm(5)=   0.000000  celldm(6)=   0.000000

     crystal axes: (cart. coord. in units of alat)
               a(1) = (   1.000000   0.000000   0.000000 )  
               a(2) = (   0.000000   1.134953   0.000000 )  
               a(3) = (  -0.500275   0.000000   1.748812 )  

     reciprocal axes: (cart. coord. in units 2 pi/alat)
               b(1) = (  1.000000  0.000000  0.286066 )  
               b(2) = (  0.000000  0.881094  0.000000 )  
               b(3) = (  0.000000  0.000000  0.571817 )  


     PseudoPot. # 1 for  C read from file:
     /scratch/ahofstet/pseudo/C.pbe-n-kjpaw_psl.0.1.UPF
     MD5 check sum: 430fe95172b1e11ef3f8ed03bac87931
     Pseudo is Projector augmented-wave + core cor, Zval =  4.0
     Generated using "atomic" code by A. Dal Corso  v.5.0.99 svn rev. 10869
     Shape of augmentation charge: BESSEL
     Using radial grid of 1073 points,  4 beta functions with: 
                l(1) =   0
                l(2) =   0
                l(3) =   1
                l(4) =   1
     Q(r) pseudized with 0 coefficients 


     PseudoPot. # 2 for  N read from file:
     /scratch/ahofstet/pseudo/N.pbe-n-kjpaw_psl.0.1.UPF
     MD5 check sum: f73187c8b701007e77325f868c9291d7
     Pseudo is Projector augmented-wave + core cor, Zval =  5.0
     Generated using "atomic" code by A. Dal Corso  v.5.0.99 svn rev. 10869
     Shape of augmentation charge: PSQ
     Using radial grid of 1085 points,  4 beta functions with: 
                l(1) =   0
                l(2) =   0
                l(3) =   1
                l(4) =   1
     Q(r) pseudized with 0 coefficients 


     PseudoPot. # 3 for  H read from file:
     /scratch/ahofstet/pseudo/H.pbe-kjpaw_psl.0.1.UPF
     MD5 check sum: 94e484f906d9e9773b2f6e52662335b2
     Pseudo is Projector augmented-wave, Zval =  1.0
     Generated using "atomic" code by A. Dal Corso  v.5.0.99 svn rev. 10869
     Shape of augmentation charge: PSQ
     Using radial grid of  929 points,  2 beta functions with: 
                l(1) =   0
                l(2) =   0
     Q(r) pseudized with 0 coefficients 


     PseudoPot. # 4 for  O read from file:
     /scratch/ahofstet/pseudo/O.pbe-n-kjpaw_psl.0.1.UPF
     MD5 check sum: 3f94a2996a3169367d6eb21d9b593f20
     Pseudo is Projector augmented-wave + core cor, Zval =  6.0
     Generated using "atomic" code by A. Dal Corso  v.5.0.99 svn rev. 10869
     Shape of augmentation charge: BESSEL
     Using radial grid of 1095 points,  4 beta functions with: 
                l(1) =   0
                l(2) =   0
                l(3) =   1
                l(4) =   1
     Q(r) pseudized with 0 coefficients 


     atomic species   valence    mass     pseudopotential
        C              4.00    12.01070      C( 1.00)
        N              5.00    14.00670      N( 1.00)
        H              1.00     1.00794      H( 1.00)
        O              6.00    15.99940      O( 1.00)

      4 Sym. Ops., with inversion, found ( 2 have fractional translation)



   Cartesian axes

     site n.     atom                  positions (alat units)
         1           O   tau(   1) = (   0.6514189   1.1418755   0.3695842  )
         2           O   tau(   2) = (   0.0984437   0.5743989   0.5048217  )
         3           O   tau(   3) = (  -0.1516937  -0.0069223   1.3792275  )
         4           O   tau(   4) = (   0.4012816   0.5605543   1.2439900  )
         5           O   tau(   5) = (   0.2282004   0.0139590   0.4250066  )
         6           O   tau(   6) = (   0.5216623   0.5814356   0.4493993  )
         7           O   tau(   7) = (   0.2715249   1.1209942   1.3238051  )
         8           O   tau(   8) = (  -0.0219370   0.5535176   1.2994124  )
         9           O   tau(   9) = (   0.7445161   0.8577257   0.0685733  )
        10           O   tau(  10) = (   0.0053465   0.2902491   0.8058326  )
        11           O   tau(  11) = (  -0.2447909   0.2772275   1.6802384  )
        12           O   tau(  12) = (   0.4943788   0.8447041   0.9429791  )
        13           N   tau(  13) = (   0.5136103   1.0316450   0.2619483  )
        14           N   tau(  14) = (   0.2362523   0.4641684   0.6124575  )
        15           N   tau(  15) = (  -0.0138850   0.1033082   1.4868634  )
        16           N   tau(  16) = (   0.2634729   0.6707848   1.1363542  )
        17           C   tau(  17) = (   0.3049562   1.0503648   0.2916193  )
        18           C   tau(  18) = (   0.4449064   0.4828882   0.5827866  )
        19           C   tau(  19) = (   0.1947691   0.0845884   1.4571924  )
        20           C   tau(  20) = (   0.0548188   0.6520650   1.1660251  )
        21           C   tau(  21) = (   0.2080345   0.9321211   0.1238043  )
        22           C   tau(  22) = (   0.5418282   0.3646445   0.7506016  )
        23           C   tau(  23) = (   0.2916908   0.2028321   1.6250074  )
        24           C   tau(  24) = (  -0.0421029   0.7703087   0.9982101  )
        25           H   tau(  25) = (   0.1474478   1.0423198   0.0159471  )
        26           H   tau(  26) = (   0.6024149   0.4748432   0.8584588  )
        27           H   tau(  27) = (   0.3522775   0.0926334   1.7328646  )
        28           H   tau(  28) = (  -0.1026896   0.6601100   0.8903529  )
        29           H   tau(  29) = (   0.0787190   0.8451108   0.1786254  )
        30           H   tau(  30) = (   0.6711436   0.2776342   0.6957804  )
        31           H   tau(  31) = (   0.4210063   0.2898424   1.5701863  )
        32           H   tau(  32) = (  -0.1714184   0.8573190   1.0530313  )
        33           C   tau(  33) = (   0.3779572   0.8083667   0.0297320  )
        34           C   tau(  34) = (   0.3719054   0.2408901   0.8446739  )
        35           C   tau(  35) = (   0.1217681   0.3265865   1.7190797  )
        36           C   tau(  36) = (   0.1278198   0.8940631   0.9041378  )
        37           H   tau(  37) = (   0.3708183   0.6500644   0.0763760  )
        38           H   tau(  38) = (   0.3790443   0.0825878   0.7980299  )
        39           H   tau(  39) = (   0.1289069   0.4848888   1.6724357  )
        40           H   tau(  40) = (   0.1206810   1.0523654   0.9507818  )
        41           H   tau(  41) = (  -0.1185735   0.8131236   1.6137079  )
        42           H   tau(  42) = (   0.3681613   0.2456470   1.0095097  )
        43           H   tau(  43) = (   0.6182987   0.3218296   0.1351038  )
        44           H   tau(  44) = (   0.1315639   0.8893062   0.7393020  )
        45           C   tau(  45) = (   0.5702899   0.8950479   0.1142501  )
        46           C   tau(  46) = (   0.1795728   0.3275713   0.7601557  )
        47           C   tau(  47) = (  -0.0705646   0.2399053   1.6345616  )
        48           C   tau(  48) = (   0.3201525   0.8073819   0.9886560  )
        49           C   tau(  49) = (   0.7381824   1.0221825   0.5312732  )
        50           C   tau(  50) = (   0.0116802   0.4547059   0.3431326  )
        51           C   tau(  51) = (  -0.2384571   0.1127707   1.2175385  )
        52           C   tau(  52) = (   0.4880450   0.6802473   1.4056791  )
        53           H   tau(  53) = (  -0.1565674   1.1247494   0.6055513  )
        54           H   tau(  54) = (   0.9064301   0.5572728   0.2688545  )
        55           H   tau(  55) = (   0.6562927   0.0102038   1.1432604  )
        56           H   tau(  56) = (  -0.4067048   0.5776803   1.4799572  )
        57           H   tau(  57) = (   0.8193519   0.8929802   0.4686592  )
        58           H   tau(  58) = (  -0.0694893   0.3255036   0.4057466  )
        59           H   tau(  59) = (  -0.3196267   0.2419730   1.2801525  )
        60           H   tau(  60) = (   0.5692145   0.8094496   1.3430651  )
        61           H   tau(  61) = (   0.6200965   0.9723570   0.6349590  )
        62           H   tau(  62) = (   0.1297661   0.4048804   0.2394468  )
        63           H   tau(  63) = (  -0.1203713   0.1625962   1.1138527  )
        64           H   tau(  64) = (   0.3699592   0.7300728   1.5093649  )

     number of k points=     8
                       cart. coord. in units 2pi/alat
        k(    1) = (   0.0000000   0.0000000   0.0000000), wk =   0.1111111
        k(    2) = (   0.0000000   0.0000000  -0.2859084), wk =   0.1111111
        k(    3) = (   0.0000000   0.2936979   0.0000000), wk =   0.2222222
        k(    4) = (   0.0000000   0.2936979  -0.2859084), wk =   0.2222222
        k(    5) = (   0.3333333   0.0000000   0.0953552), wk =   0.2222222
        k(    6) = (   0.3333333   0.0000000  -0.1905533), wk =   0.2222222
        k(    7) = (   0.3333333   0.2936979   0.0953552), wk =   0.4444444
        k(    8) = (   0.3333333   0.2936979  -0.1905533), wk =   0.4444444

     Dense  grid:   533303 G-vectors     FFT dimensions: (  81,  96, 150)

     Estimated max dynamical RAM per process >     350.69MB

     Estimated total allocated dynamical RAM >    2805.51MB

     Check: negative/imaginary core charge=   -0.000002    0.000000

     Initial potential from superposition of free atoms

     starting charge  199.99885, renormalised to  200.00000
     Starting wfc are  172 randomized atomic wfcs
     Checking if some PAW data can be deallocated... 

     total cpu time spent up to now is       20.8 secs

     per-process dynamical memory:   300.3 Mb

     Self-consistent Calculation

     iteration #  1     ecut=   100.00 Ry     beta=0.50
     Davidson diagonalization with overlap
     ethr =  1.00E-02,  avg # of iterations =  3.2

     total cpu time spent up to now is       68.4 secs

     total energy              =   -1013.38367007 Ry
     Harris-Foulkes estimate   =   -1016.69492972 Ry
     estimated scf accuracy    <       6.35226548 Ry

     iteration #  2     ecut=   100.00 Ry     beta=0.50
     Davidson diagonalization with overlap
     ethr =  3.18E-03,  avg # of iterations =  2.8

     total cpu time spent up to now is       94.6 secs

     total energy              =   -1013.86519628 Ry
     Harris-Foulkes estimate   =   -1014.48043563 Ry
     estimated scf accuracy    <       1.24364085 Ry

     iteration #  3     ecut=   100.00 Ry     beta=0.50
     Davidson diagonalization with overlap
     ethr =  6.22E-04,  avg # of iterations =  6.1

     total cpu time spent up to now is      142.5 secs

     total energy              =   -1014.48920028 Ry
     Harris-Foulkes estimate   =   -1014.78674376 Ry
     estimated scf accuracy    <       0.77604293 Ry

     iteration #  4     ecut=   100.00 Ry     beta=0.50
     Davidson diagonalization with overlap
     ethr =  3.88E-04,  avg # of iterations =  1.1

     total cpu time spent up to now is      166.0 secs

     total energy              =   -1014.41926735 Ry
     Harris-Foulkes estimate   =   -1014.54582449 Ry
     estimated scf accuracy    <       0.18497906 Ry

     iteration #  5     ecut=   100.00 Ry     beta=0.50
     Davidson diagonalization with overlap
     ethr =  9.25E-05,  avg # of iterations =  5.0

     total cpu time spent up to now is      220.2 secs

     total energy              =   -1014.56523766 Ry
     Harris-Foulkes estimate   =   -1014.80066550 Ry
     estimated scf accuracy    <       0.72449670 Ry

     iteration #  6     ecut=   100.00 Ry     beta=0.50
     Davidson diagonalization with overlap
     ethr =  9.25E-05,  avg # of iterations =  2.6

     total cpu time spent up to now is      245.7 secs

     total energy              =   -1014.48110880 Ry
     Harris-Foulkes estimate   =   -1014.58533724 Ry
     estimated scf accuracy    <       0.28448536 Ry

     iteration #  7     ecut=   100.00 Ry     beta=0.50
     Davidson diagonalization with overlap
     ethr =  9.25E-05,  avg # of iterations =  3.8

     total cpu time spent up to now is      285.2 secs

     total energy              =   -1014.57209589 Ry
     Harris-Foulkes estimate   =   -1014.57275625 Ry
     estimated scf accuracy    <       0.00166470 Ry

     iteration #  8     ecut=   100.00 Ry     beta=0.50
     Davidson diagonalization with overlap
     ethr =  8.32E-07,  avg # of iterations =  9.9

     total cpu time spent up to now is      334.7 secs

     total energy              =   -1014.57276398 Ry
     Harris-Foulkes estimate   =   -1014.57281340 Ry
     estimated scf accuracy    <       0.00023567 Ry

     iteration #  9     ecut=   100.00 Ry     beta=0.50
     Davidson diagonalization with overlap
     ethr =  1.18E-07,  avg # of iterations =  3.0

     total cpu time spent up to now is      360.7 secs

     total energy              =   -1014.57278000 Ry
     Harris-Foulkes estimate   =   -1014.57280043 Ry
     estimated scf accuracy    <       0.00004884 Ry

     iteration # 10     ecut=   100.00 Ry     beta=0.50
     Davidson diagonalization with overlap
     ethr =  2.44E-08,  avg # of iterations =  3.0

     total cpu time spent up to now is      402.1 secs

     total energy              =   -1014.57279752 Ry
     Harris-Foulkes estimate   =   -1014.57281242 Ry
     estimated scf accuracy    <       0.00004483 Ry

     iteration # 11     ecut=   100.00 Ry     beta=0.50
     Davidson diagonalization with overlap
     ethr =  2.24E-08,  avg # of iterations =  1.0

     total cpu time spent up to now is      425.4 secs

     total energy              =   -1014.57278983 Ry
     Harris-Foulkes estimate   =   -1014.57279890 Ry
     estimated scf accuracy    <       0.00001749 Ry

     iteration # 12     ecut=   100.00 Ry     beta=0.50
     Davidson diagonalization with overlap
     ethr =  8.74E-09,  avg # of iterations =  3.4

     total cpu time spent up to now is      465.2 secs

     total energy              =   -1014.57279845 Ry
     Harris-Foulkes estimate   =   -1014.57280032 Ry
     estimated scf accuracy    <       0.00000408 Ry

     iteration # 13     ecut=   100.00 Ry     beta=0.50
     Davidson diagonalization with overlap
     ethr =  2.04E-09,  avg # of iterations =  2.0

     total cpu time spent up to now is      489.6 secs

     total energy              =   -1014.57279816 Ry
     Harris-Foulkes estimate   =   -1014.57279869 Ry
     estimated scf accuracy    <       0.00000087 Ry

     iteration # 14     ecut=   100.00 Ry     beta=0.50
     Davidson diagonalization with overlap
     ethr =  4.37E-10,  avg # of iterations =  4.0

     total cpu time spent up to now is      534.4 secs

     total energy              =   -1014.57279893 Ry
     Harris-Foulkes estimate   =   -1014.57279939 Ry
     estimated scf accuracy    <       0.00000102 Ry

     iteration # 15     ecut=   100.00 Ry     beta=0.50
     Davidson diagonalization with overlap
     ethr =  4.37E-10,  avg # of iterations =  2.0

     total cpu time spent up to now is      558.6 secs

     total energy              =   -1014.57279885 Ry
     Harris-Foulkes estimate   =   -1014.57279898 Ry
     estimated scf accuracy    <       0.00000021 Ry

     iteration # 16     ecut=   100.00 Ry     beta=0.50
     Davidson diagonalization with overlap
     ethr =  1.07E-10,  avg # of iterations =  4.0

     total cpu time spent up to now is      604.7 secs

     total energy              =   -1014.57279909 Ry
     Harris-Foulkes estimate   =   -1014.57279919 Ry
     estimated scf accuracy    <       0.00000034 Ry

     iteration # 17     ecut=   100.00 Ry     beta=0.50
     Davidson diagonalization with overlap
     ethr =  1.07E-10,  avg # of iterations =  1.0

     total cpu time spent up to now is      627.7 secs

     total energy              =   -1014.57279902 Ry
     Harris-Foulkes estimate   =   -1014.57279909 Ry
     estimated scf accuracy    <       0.00000016 Ry

     iteration # 18     ecut=   100.00 Ry     beta=0.50
     Davidson diagonalization with overlap
     ethr =  8.20E-11,  avg # of iterations =  3.0

     total cpu time spent up to now is      663.6 secs

     End of self-consistent calculation

          k = 0.0000 0.0000 0.0000 ( 66623 PWs)   bands (ev):

   -21.8727 -21.8515 -21.8508 -21.8335 -19.8106 -19.7937 -19.7937 -19.7703
   -19.6839 -19.6728 -19.6638 -19.6483 -16.5116 -16.4945 -16.4830 -16.4629
   -13.0891 -13.0368 -13.0067 -12.9804 -10.8980 -10.8933 -10.8616 -10.8014
   -10.7611 -10.6707 -10.6543 -10.6081  -9.1107  -9.1044  -8.9378  -8.9245
    -7.7334  -7.6694  -7.5533  -7.4778  -6.5697  -6.3707  -6.0323  -5.8952
    -5.7288  -5.6114  -5.5073  -5.4695  -5.2259  -5.0115  -4.9354  -4.8804
    -4.8730  -4.7117  -4.6498  -4.6246  -4.5598  -4.4226  -4.3913  -4.3454
    -4.2490  -4.0563  -3.9559  -3.9385  -3.8028  -3.7931  -3.7544  -3.7033
    -3.6003  -3.5921  -3.5549  -3.5189  -3.3807  -3.2518  -3.2472  -3.1465
    -3.0285  -3.0127  -2.9734  -2.9342  -2.7028  -2.3963  -2.3909  -2.2462
    -1.9951  -1.9489  -1.6955  -1.5012  -0.8016  -0.7965  -0.6649  -0.6458
    -0.4276  -0.3855  -0.3618  -0.2843  -0.2458  -0.1752  -0.1642  -0.1254
     0.2972   0.4945   0.5010   0.5758   4.7361   4.7383   4.7386   4.8635
     5.7415   5.8300   5.8534   6.0589   6.2510   6.4388   6.7717   7.0448
     7.3309   7.7906   8.1285   8.1884   8.6401   8.6594   8.7015   8.7970

          k = 0.0000 0.0000-0.2859 ( 66622 PWs)   bands (ev):

   -21.8660 -21.8659 -21.8382 -21.8382 -19.8064 -19.8064 -19.7778 -19.7778
   -19.6803 -19.6803 -19.6542 -19.6542 -16.5056 -16.5056 -16.4703 -16.4703
   -13.0651 -13.0651 -12.9921 -12.9921 -10.8793 -10.8793 -10.8327 -10.8327
   -10.7345 -10.7345 -10.6294 -10.6294  -9.1072  -9.1072  -8.9314  -8.9314
    -7.6449  -7.6449  -7.5708  -7.5708  -6.5026  -6.5026  -5.9014  -5.9014
    -5.6794  -5.6794  -5.5413  -5.5413  -5.0690  -5.0690  -4.9317  -4.9317
    -4.8137  -4.8137  -4.5802  -4.5802  -4.5214  -4.5214  -4.3992  -4.3992
    -4.1199  -4.1199  -3.9471  -3.9471  -3.7866  -3.7866  -3.6900  -3.6900
    -3.6307  -3.6307  -3.5472  -3.5472  -3.3093  -3.3093  -3.2392  -3.2392
    -3.0097  -3.0097  -2.9697  -2.9697  -2.5219  -2.5219  -2.3213  -2.3213
    -1.9755  -1.9755  -1.5878  -1.5878  -0.7450  -0.7450  -0.7220  -0.7220
    -0.3883  -0.3883  -0.3136  -0.3136  -0.2298  -0.2298  -0.1403  -0.1403
     0.3994   0.3994   0.5371   0.5371   4.7226   4.7226   4.8130   4.8130
     5.7781   5.7781   5.9654   5.9654   6.4598   6.4598   6.6807   6.6807
     7.5663   7.5663   8.3079   8.3079   8.5702   8.5702   8.7643   8.7643

          k = 0.0000 0.2937 0.0000 ( 66640 PWs)   bands (ev):

   -21.8672 -21.8565 -21.8466 -21.8380 -19.8082 -19.7998 -19.7876 -19.7760
   -19.6785 -19.6735 -19.6611 -19.6530 -16.5053 -16.4910 -16.4857 -16.4699
   -13.0850 -13.0474 -13.0080 -12.9761 -10.8922 -10.8802 -10.8587 -10.8174
   -10.7415 -10.6882 -10.6480 -10.6179  -9.0679  -9.0625  -8.9784  -8.9738
    -7.7160  -7.6826  -7.5258  -7.4897  -6.5005  -6.4123  -6.0050  -5.8998
    -5.7071  -5.6390  -5.5892  -5.5053  -5.1808  -5.1574  -4.9630  -4.8264
    -4.7591  -4.7510  -4.6219  -4.6091  -4.5024  -4.4250  -4.4062  -4.3854
    -4.2092  -4.0996  -3.9312  -3.8977  -3.8128  -3.7825  -3.7803  -3.7763
    -3.6357  -3.5962  -3.4785  -3.4660  -3.3448  -3.2815  -3.2146  -3.1648
    -3.0570  -3.0147  -2.9787  -2.9583  -2.6464  -2.5178  -2.4042  -2.3060
    -1.9236  -1.9086  -1.6582  -1.5608  -0.7756  -0.7687  -0.6665  -0.6584
    -0.4339  -0.3749  -0.3354  -0.2673  -0.2632  -0.2247  -0.1501  -0.1301
     0.3564   0.4543   0.5238   0.5574   4.7492   4.7629   4.7788   4.8328
     5.7343   5.7984   5.8841   6.0229   6.4011   6.5009   6.6853   6.8148
     7.6581   7.8647   8.1195   8.1229   8.2977   8.4598   8.6334   8.7713

          k = 0.0000 0.2937-0.2859 ( 66592 PWs)   bands (ev):

   -21.8629 -21.8629 -21.8412 -21.8412 -19.8051 -19.8051 -19.7806 -19.7806
   -19.6763 -19.6763 -19.6568 -19.6568 -16.5005 -16.5005 -16.4754 -16.4754
   -13.0665 -13.0665 -12.9924 -12.9924 -10.8685 -10.8685 -10.8434 -10.8434
   -10.7077 -10.7077 -10.6543 -10.6543  -9.0649  -9.0649  -8.9760  -8.9760
    -7.6313  -7.6313  -7.5751  -7.5751  -6.4590  -6.4590  -5.9718  -5.9718
    -5.6440  -5.6440  -5.5514  -5.5514  -5.1858  -5.1858  -4.8732  -4.8732
    -4.7528  -4.7528  -4.6291  -4.6291  -4.4707  -4.4707  -4.3890  -4.3890
    -4.1135  -4.1135  -3.9868  -3.9868  -3.8715  -3.8715  -3.6634  -3.6634
    -3.5520  -3.5520  -3.4889  -3.4889  -3.3386  -3.3386  -3.2151  -3.2151
    -3.0198  -3.0198  -3.0109  -3.0109  -2.5505  -2.5505  -2.3645  -2.3645
    -1.9160  -1.9160  -1.6082  -1.6082  -0.7244  -0.7244  -0.7107  -0.7107
    -0.3892  -0.3892  -0.3187  -0.3187  -0.2620  -0.2620  -0.1240  -0.1240
     0.4394   0.4394   0.5126   0.5126   4.7531   4.7531   4.8065   4.8065
     5.7957   5.7957   5.9120   5.9120   6.5534   6.5534   6.6850   6.6850
     7.6657   7.6657   8.0394   8.0394   8.5576   8.5576   8.6956   8.6956

          k = 0.3333 0.0000 0.0954 ( 66712 PWs)   bands (ev):

   -21.8683 -21.8523 -21.8463 -21.8339 -19.8151 -19.7979 -19.7973 -19.7741
   -19.6864 -19.6711 -19.6660 -19.6468 -16.5173 -16.5056 -16.4790 -16.4564
   -13.0683 -13.0427 -12.9999 -12.9946 -10.8297 -10.8293 -10.8209 -10.7915
   -10.7414 -10.7194 -10.6950 -10.5775  -9.1001  -9.0898  -8.9617  -8.9525
    -7.6733  -7.5927  -7.5351  -7.4889  -6.5513  -6.3617  -5.9890  -5.8954
    -5.6488  -5.6214  -5.5098  -5.4897  -5.2943  -5.2791  -5.1206  -5.0398
    -5.0340  -4.8755  -4.7986  -4.7722  -4.6911  -4.6119  -4.5699  -4.3979
    -4.1405  -4.0126  -3.9450  -3.9401  -3.8836  -3.7343  -3.6668  -3.6466
    -3.5356  -3.5159  -3.4344  -3.4236  -3.2269  -3.2139  -3.1637  -3.1414
    -3.0347  -3.0115  -2.8989  -2.8264  -2.5151  -2.4313  -2.3850  -2.3145
    -1.8481  -1.8398  -1.6999  -1.5156  -0.7914  -0.7462  -0.6892  -0.6636
    -0.4731  -0.4210  -0.2868  -0.2308  -0.2129  -0.1258  -0.0983  -0.0845
     0.4058   0.5556   0.5753   0.6597   4.5950   4.6675   4.6863   4.7145
     5.9345   6.0138   6.0790   6.1082   6.4042   6.4330   6.6408   6.8061
     7.6776   7.7421   7.9454   8.2998   8.3534   8.3993   8.5184   8.6930

          k = 0.3333 0.0000-0.1906 ( 66686 PWs)   bands (ev):

   -21.8637 -21.8613 -21.8390 -21.8368 -19.8107 -19.8106 -19.7816 -19.7814
   -19.6830 -19.6806 -19.6544 -19.6525 -16.5132 -16.5130 -16.4685 -16.4636
   -13.0762 -13.0333 -13.0083 -12.9872 -10.8551 -10.8292 -10.8076 -10.7749
   -10.7619 -10.7321 -10.6661 -10.5766  -9.0965  -9.0940  -8.9574  -8.9570
    -7.7124  -7.5716  -7.5484  -7.4540  -6.4819  -6.4607  -5.9527  -5.8941
    -5.6726  -5.6099  -5.5070  -5.4789  -5.3437  -5.1949  -5.1461  -5.0776
    -5.0129  -4.8727  -4.8037  -4.7787  -4.6948  -4.6620  -4.4966  -4.4248
    -4.1246  -4.0488  -3.9658  -3.8882  -3.8360  -3.8036  -3.6501  -3.6496
    -3.5683  -3.4956  -3.4652  -3.3660  -3.1979  -3.1804  -3.1316  -3.1271
    -3.1037  -3.0193  -2.9130  -2.8614  -2.5340  -2.4316  -2.3527  -2.3452
    -1.8843  -1.7968  -1.6297  -1.5655  -0.7454  -0.7342  -0.7099  -0.7078
    -0.4586  -0.4418  -0.2559  -0.2294  -0.1725  -0.1719  -0.1092  -0.0933
     0.4662   0.5098   0.5860   0.6414   4.6084   4.6483   4.6871   4.7128
     5.9720   6.0024   6.0555   6.0932   6.3772   6.5156   6.5458   6.8892
     7.4290   7.9087   8.2195   8.2210   8.3344   8.4770   8.5374   8.5790

          k = 0.3333 0.2937 0.0954 ( 66683 PWs)   bands (ev):

   -21.8639 -21.8558 -21.8436 -21.8373 -19.8126 -19.8042 -19.7916 -19.7801
   -19.6796 -19.6724 -19.6623 -19.6523 -16.5092 -16.4928 -16.4889 -16.4677
   -13.0818 -13.0526 -13.0009 -12.9719 -10.8381 -10.8247 -10.7951 -10.7815
   -10.7329 -10.7159 -10.6909 -10.6235  -9.0884  -9.0591  -8.9947  -8.9641
    -7.6456  -7.5896  -7.5475  -7.5048  -6.4937  -6.4133  -5.9953  -5.9183
    -5.6410  -5.5832  -5.5715  -5.4792  -5.3267  -5.2196  -5.0858  -5.0107
    -4.9072  -4.8467  -4.7778  -4.7482  -4.7021  -4.6840  -4.5596  -4.4693
    -4.2094  -4.1295  -3.9840  -3.9198  -3.8744  -3.7972  -3.7070  -3.5876
    -3.5498  -3.4617  -3.4015  -3.3758  -3.2672  -3.2449  -3.1455  -3.1160
    -3.0424  -2.9960  -2.9661  -2.8792  -2.4915  -2.4609  -2.3755  -2.3150
    -1.8066  -1.7980  -1.6653  -1.5588  -0.7616  -0.7443  -0.6854  -0.6770
    -0.4083  -0.3607  -0.3244  -0.2452  -0.1969  -0.1601  -0.1017  -0.0846
     0.4517   0.5231   0.6075   0.6448   4.5751   4.6222   4.7167   4.7266
     5.9470   5.9804   6.0575   6.0830   6.3829   6.5792   6.7784   6.8552
     7.4888   7.7881   7.9447   8.0635   8.2727   8.3581   8.4805   8.5656

          k = 0.3333 0.2937-0.1906 ( 66652 PWs)   bands (ev):

   -21.8611 -21.8598 -21.8404 -21.8392 -19.8096 -19.8095 -19.7849 -19.7845
   -19.6773 -19.6760 -19.6572 -19.6562 -16.5053 -16.5032 -16.4769 -16.4731
   -13.0791 -13.0635 -12.9845 -12.9797 -10.8417 -10.8211 -10.8129 -10.7808
   -10.7408 -10.6955 -10.6923 -10.6165  -9.0886  -9.0595  -8.9948  -8.9642
    -7.6801  -7.6109  -7.5201  -7.4739  -6.4560  -6.4455  -5.9707  -5.9411
    -5.6405  -5.5882  -5.5642  -5.5181  -5.3115  -5.2348  -5.0752  -4.9998
    -4.9568  -4.8169  -4.7784  -4.7470  -4.6934  -4.6733  -4.5409  -4.4742
    -4.1581  -4.1483  -4.0397  -3.9510  -3.8779  -3.8507  -3.5853  -3.5599
    -3.4960  -3.4636  -3.4354  -3.4065  -3.2342  -3.2068  -3.1628  -3.1186
    -3.0799  -3.0480  -2.9574  -2.9065  -2.5091  -2.4528  -2.3416  -2.3307
    -1.8177  -1.7801  -1.6281  -1.5930  -0.7302  -0.7188  -0.7086  -0.6991
    -0.3970  -0.3848  -0.3045  -0.2585  -0.2030  -0.1826  -0.0957  -0.0786
     0.5030   0.5384   0.5797   0.6218   4.5826   4.6123   4.7145   4.7260
     5.9583   5.9930   6.0361   6.0849   6.4471   6.6027   6.6811   6.8459
     7.4590   7.8018   7.9057   8.1085   8.2581   8.3877   8.4904   8.6345

     highest occupied, lowest unoccupied level (ev):     0.6597    4.5751

!    total energy              =   -1014.57279908 Ry
     Harris-Foulkes estimate   =   -1014.57279908 Ry
     estimated scf accuracy    <          1.9E-09 Ry

     total all-electron energy =     -3801.212620 Ry

     The total energy is the sum of the following terms:

     one-electron contribution =    -544.90980125 Ry
     hartree contribution      =     351.01177772 Ry
     xc contribution           =    -213.30053118 Ry
     ewald contribution        =    -326.72453457 Ry
     Dispersion Correction     =      -0.28587607 Ry
     one-center paw contrib.   =    -280.36383373 Ry

     convergence has been achieved in  18 iterations

     Forces acting on atoms (cartesian axes, Ry/au):

     atom    1 type  4   force =    -0.00067038    0.00029800    0.00027372
     atom    2 type  4   force =     0.00067038    0.00029800   -0.00027372
     atom    3 type  4   force =     0.00067038   -0.00029800   -0.00027372
     atom    4 type  4   force =    -0.00067038   -0.00029800    0.00027372
     atom    5 type  4   force =     0.00106151    0.00094924    0.00177979
     atom    6 type  4   force =    -0.00106151    0.00094924   -0.00177979
     atom    7 type  4   force =    -0.00106151   -0.00094924   -0.00177979
     atom    8 type  4   force =     0.00106151   -0.00094924    0.00177979
     atom    9 type  4   force =    -0.01035669    0.00012414    0.00143291
     atom   10 type  4   force =     0.01035669    0.00012414   -0.00143291
     atom   11 type  4   force =     0.01035669   -0.00012414   -0.00143291
     atom   12 type  4   force =    -0.01035669   -0.00012414    0.00143291
     atom   13 type  2   force =    -0.00132271    0.00170648    0.00086330
     atom   14 type  2   force =     0.00132271    0.00170648   -0.00086330
     atom   15 type  2   force =     0.00132271   -0.00170648   -0.00086330
     atom   16 type  2   force =    -0.00132271   -0.00170648    0.00086330
     atom   17 type  1   force =     0.00210526    0.00000308   -0.00081139
     atom   18 type  1   force =    -0.00210526    0.00000308    0.00081139
     atom   19 type  1   force =    -0.00210526   -0.00000308    0.00081139
     atom   20 type  1   force =     0.00210526   -0.00000308   -0.00081139
     atom   21 type  1   force =    -0.00716684    0.00102902    0.00169492
     atom   22 type  1   force =     0.00716684    0.00102902   -0.00169492
     atom   23 type  1   force =     0.00716684   -0.00102902   -0.00169492
     atom   24 type  1   force =    -0.00716684   -0.00102902    0.00169492
     atom   25 type  3   force =     0.00160064   -0.00013316    0.00126605
     atom   26 type  3   force =    -0.00160064   -0.00013316   -0.00126605
     atom   27 type  3   force =    -0.00160064    0.00013316   -0.00126605
     atom   28 type  3   force =     0.00160064    0.00013316    0.00126605
     atom   29 type  3   force =     0.00905921    0.00311917    0.00001144
     atom   30 type  3   force =    -0.00905921    0.00311917   -0.00001144
     atom   31 type  3   force =    -0.00905921   -0.00311917   -0.00001144
     atom   32 type  3   force =     0.00905921   -0.00311917    0.00001144
     atom   33 type  1   force =     0.00276522   -0.00236668   -0.00083137
     atom   34 type  1   force =    -0.00276522   -0.00236668    0.00083137
     atom   35 type  1   force =    -0.00276522    0.00236668    0.00083137
     atom   36 type  1   force =     0.00276522    0.00236668   -0.00083137
     atom   37 type  3   force =    -0.00050408    0.00019357   -0.00047010
     atom   38 type  3   force =     0.00050408    0.00019357    0.00047010
     atom   39 type  3   force =     0.00050408   -0.00019357    0.00047010
     atom   40 type  3   force =    -0.00050408   -0.00019357   -0.00047010
     atom   41 type  3   force =     0.00013319   -0.00028446    0.00024486
     atom   42 type  3   force =    -0.00013319   -0.00028446   -0.00024486
     atom   43 type  3   force =    -0.00013319    0.00028446   -0.00024486
     atom   44 type  3   force =     0.00013319    0.00028446    0.00024486
     atom   45 type  1   force =     0.00286170   -0.00315052   -0.00441987
     atom   46 type  1   force =    -0.00286170   -0.00315052    0.00441987
     atom   47 type  1   force =    -0.00286170    0.00315052    0.00441987
     atom   48 type  1   force =     0.00286170    0.00315052   -0.00441987
     atom   49 type  1   force =    -0.00013381   -0.00040431   -0.00070912
     atom   50 type  1   force =     0.00013381   -0.00040431    0.00070912
     atom   51 type  1   force =     0.00013381    0.00040431    0.00070912
     atom   52 type  1   force =    -0.00013381    0.00040431   -0.00070912
     atom   53 type  3   force =     0.00068741    0.00041083   -0.00049994
     atom   54 type  3   force =    -0.00068741    0.00041083    0.00049994
     atom   55 type  3   force =    -0.00068741   -0.00041083    0.00049994
     atom   56 type  3   force =     0.00068741   -0.00041083   -0.00049994
     atom   57 type  3   force =    -0.00017342    0.00003038    0.00037032
     atom   58 type  3   force =     0.00017342    0.00003038   -0.00037032
     atom   59 type  3   force =     0.00017342   -0.00003038   -0.00037032
     atom   60 type  3   force =    -0.00017342   -0.00003038    0.00037032
     atom   61 type  3   force =     0.00017871    0.00008227    0.00048410
     atom   62 type  3   force =    -0.00017871    0.00008227   -0.00048410
     atom   63 type  3   force =    -0.00017871   -0.00008227   -0.00048410
     atom   64 type  3   force =     0.00017871   -0.00008227    0.00048410

     Total force =     0.036397     Total SCF correction =     0.000069


     Computing stress (Cartesian axis) and pressure

          total   stress  (Ry/bohr**3)                   (kbar)     P=   -6.25
  -0.00004391   0.00000000  -0.00001413         -6.46      0.00     -2.08
   0.00000000  -0.00003965   0.00000000          0.00     -5.83      0.00
  -0.00001413   0.00000000  -0.00004381         -2.08      0.00     -6.44


     Writing output data file scf.save
 
     init_run     :     19.82s CPU     20.14s WALL (       1 calls)
     electrons    :    628.11s CPU    642.95s WALL (       1 calls)
     forces       :      9.84s CPU      9.91s WALL (       1 calls)
     stress       :     30.41s CPU     30.45s WALL (       1 calls)

     Called by init_run:
     wfcinit      :     13.20s CPU     13.43s WALL (       1 calls)
     potinit      :      2.40s CPU      2.41s WALL (       1 calls)

     Called by electrons:
     c_bands      :    558.23s CPU    570.88s WALL (      18 calls)
     sum_band     :     60.26s CPU     61.79s WALL (      18 calls)
     v_of_rho     :      1.44s CPU      1.58s WALL (      19 calls)
     newd         :      2.96s CPU      3.45s WALL (      19 calls)
     PAW_pot      :      4.75s CPU      4.75s WALL (      19 calls)
     mix_rho      :      0.34s CPU      0.37s WALL (      18 calls)

     Called by c_bands:
     init_us_2    :      3.79s CPU      3.81s WALL (     312 calls)
     cegterg      :    544.19s CPU    556.78s WALL (     144 calls)

     Called by sum_band:
     sum_band:bec :      0.05s CPU      0.05s WALL (     144 calls)
     addusdens    :      3.03s CPU      3.48s WALL (      18 calls)

     Called by *egterg:
     h_psi        :    320.80s CPU    327.79s WALL (     639 calls)
     s_psi        :     54.40s CPU     54.43s WALL (     639 calls)
     g_psi        :      1.83s CPU      1.83s WALL (     487 calls)
     cdiaghg      :     29.25s CPU     29.25s WALL (     631 calls)

     Called by h_psi:
     h_psi:pot    :    318.41s CPU    325.36s WALL (     639 calls)
     h_psi:calbec :     55.13s CPU     55.27s WALL (     639 calls)
     vloc_psi     :    208.61s CPU    215.39s WALL (     639 calls)
     add_vuspsi   :     54.67s CPU     54.69s WALL (     639 calls)

     General routines
     calbec       :     79.10s CPU     79.30s WALL (     823 calls)
     fft          :      0.98s CPU      1.22s WALL (     271 calls)
     fftw         :    223.04s CPU    230.44s WALL (  120380 calls)
 
     Parallel routines
     fft_scatter  :     51.59s CPU     56.16s WALL (  120651 calls)
 
     PWSCF        : 11m33.25s CPU    12m22.10s WALL

 
   This run was terminated on:  12:40:54  20Dec2017            

=------------------------------------------------------------------------------=
   JOB DONE.
=------------------------------------------------------------------------------=
