
     Program PWSCF v.6.1 (svn rev. 13369) starts on  7Dec2017 at 23:27:32 

     This program is part of the open-source Quantum ESPRESSO suite
     for quantum simulation of materials; please cite
         "P. Giannozzi et al., J. Phys.:Condens. Matter 21 395502 (2009);
          URL http://www.quantum-espresso.org", 
     in publications or presentations arising from this work. More details at
     http://www.quantum-espresso.org/quote

     Parallel version (MPI), running on     8 processors
     R & G space division:  proc/nbgrp/npool/nimage =       8
     Waiting for input...
     Reading input from standard input

     Current dimensions of program PWSCF are:
     Max number of different atomic species (ntypx) = 10
     Max number of k-points (npk) =  40000
     Max angular momentum in pseudopotentials (lmaxx) =  3
               file C.pbe-n-kjpaw_psl.0.1.UPF: wavefunction(s)  2P renormalized
               file N.pbe-n-kjpaw_psl.0.1.UPF: wavefunction(s)  2P renormalized
               file H.pbe-kjpaw_psl.0.1.UPF: wavefunction(s)  1S renormalized
               file O.pbe-n-kjpaw_psl.0.1.UPF: wavefunction(s)  2P renormalized

     -------------------------------------
     Parameters for Dispersion Correction:
     -------------------------------------
       atom      VdW radius       C_6     

        C          2.744         60.710
        N          2.640         42.670
        H          1.892          4.857
        O          2.536         24.284

     Subspace diagonalization in iterative solution of the eigenvalue problem:
     a serial algorithm will be used

 
     Parallelization info
     --------------------
     sticks:   dense  smooth     PW     G-vecs:    dense   smooth      PW
     Min        1781    1781    472               131084   131084   17972
     Max        1782    1782    473               131086   131086   17975
     Sum       14253   14253   3783              1048679  1048679  143795
 


     bravais-lattice index     =            0
     lattice parameter (alat)  =      15.8170  a.u.
     unit-cell volume          =    7763.6774 (a.u.)^3
     number of atoms/cell      =          120
     number of atomic types    =            4
     number of electrons       =       432.00
     number of Kohn-Sham states=          259
     kinetic-energy cutoff     =     100.0000  Ry
     charge density cutoff     =     400.0000  Ry
     convergence threshold     =      1.0E-08
     mixing beta               =       0.5000
     number of iterations used =            8  plain     mixing
     Exchange-correlation      =  SLA  PW   PBX  PBC ( 1  4  3  4 0 0)

     celldm(1)=  15.817008  celldm(2)=   0.000000  celldm(3)=   0.000000
     celldm(4)=   0.000000  celldm(5)=   0.000000  celldm(6)=   0.000000

     crystal axes: (cart. coord. in units of alat)
               a(1) = (   1.000000   0.000000   0.000000 )  
               a(2) = (   0.000000   1.788889   0.000000 )  
               a(3) = (  -0.207036   0.000000   1.096759 )  

     reciprocal axes: (cart. coord. in units 2 pi/alat)
               b(1) = (  1.000000  0.000000  0.188771 )  
               b(2) = (  0.000000  0.559006  0.000000 )  
               b(3) = (  0.000000  0.000000  0.911777 )  


     PseudoPot. # 1 for  C read from file:
     /scratch/ahofstet/pseudo/C.pbe-n-kjpaw_psl.0.1.UPF
     MD5 check sum: 430fe95172b1e11ef3f8ed03bac87931
     Pseudo is Projector augmented-wave + core cor, Zval =  4.0
     Generated using "atomic" code by A. Dal Corso  v.5.0.99 svn rev. 10869
     Shape of augmentation charge: BESSEL
     Using radial grid of 1073 points,  4 beta functions with: 
                l(1) =   0
                l(2) =   0
                l(3) =   1
                l(4) =   1
     Q(r) pseudized with 0 coefficients 


     PseudoPot. # 2 for  N read from file:
     /scratch/ahofstet/pseudo/N.pbe-n-kjpaw_psl.0.1.UPF
     MD5 check sum: f73187c8b701007e77325f868c9291d7
     Pseudo is Projector augmented-wave + core cor, Zval =  5.0
     Generated using "atomic" code by A. Dal Corso  v.5.0.99 svn rev. 10869
     Shape of augmentation charge: PSQ
     Using radial grid of 1085 points,  4 beta functions with: 
                l(1) =   0
                l(2) =   0
                l(3) =   1
                l(4) =   1
     Q(r) pseudized with 0 coefficients 


     PseudoPot. # 3 for  H read from file:
     /scratch/ahofstet/pseudo/H.pbe-kjpaw_psl.0.1.UPF
     MD5 check sum: 94e484f906d9e9773b2f6e52662335b2
     Pseudo is Projector augmented-wave, Zval =  1.0
     Generated using "atomic" code by A. Dal Corso  v.5.0.99 svn rev. 10869
     Shape of augmentation charge: PSQ
     Using radial grid of  929 points,  2 beta functions with: 
                l(1) =   0
                l(2) =   0
     Q(r) pseudized with 0 coefficients 


     PseudoPot. # 4 for  O read from file:
     /scratch/ahofstet/pseudo/O.pbe-n-kjpaw_psl.0.1.UPF
     MD5 check sum: 3f94a2996a3169367d6eb21d9b593f20
     Pseudo is Projector augmented-wave + core cor, Zval =  6.0
     Generated using "atomic" code by A. Dal Corso  v.5.0.99 svn rev. 10869
     Shape of augmentation charge: BESSEL
     Using radial grid of 1095 points,  4 beta functions with: 
                l(1) =   0
                l(2) =   0
                l(3) =   1
                l(4) =   1
     Q(r) pseudized with 0 coefficients 


     atomic species   valence    mass     pseudopotential
        C              4.00    12.01070      C( 1.00)
        N              5.00    14.00670      N( 1.00)
        H              1.00     1.00794      H( 1.00)
        O              6.00    15.99940      O( 1.00)

      4 Sym. Ops., with inversion, found ( 2 have fractional translation)



   Cartesian axes

     site n.     atom                  positions (alat units)
         1           N   tau(   1) = (   0.0438054   1.5735466   0.2253547  )
         2           N   tau(   2) = (   0.2491581   0.6791022   0.8714042  )
         3           N   tau(   3) = (   0.7491581   0.2153423   0.8714042  )
         4           N   tau(   4) = (   0.5438054   1.1097867   0.2253547  )
         5           O   tau(   5) = (   0.0280129   1.7166754   0.2696837  )
         6           O   tau(   6) = (   0.2649506   0.8222309   0.8270751  )
         7           O   tau(   7) = (   0.7649506   0.0722135   0.8270751  )
         8           O   tau(   8) = (   0.5280129   0.9666580   0.2696837  )
         9           O   tau(   9) = (  -0.0433732   1.4657867   0.2864581  )
        10           O   tau(  10) = (   0.3363367   0.5713423   0.8103008  )
        11           O   tau(  11) = (   0.8363367   0.3231022   0.8103008  )
        12           O   tau(  12) = (   0.4566268   1.2175466   0.2864581  )
        13           O   tau(  13) = (   0.1452254   1.5368900   0.1196577  )
        14           O   tau(  14) = (   0.1477381   0.6424455   0.9771011  )
        15           O   tau(  15) = (   0.6477381   0.2519989   0.9771011  )
        16           O   tau(  16) = (   0.6452254   1.1464434   0.1196577  )
        17           N   tau(  17) = (   0.0005083   1.5411529   0.7663825  )
        18           N   tau(  18) = (   0.2924552   0.6467085   0.3303763  )
        19           N   tau(  19) = (   0.7924552   0.2477360   0.3303763  )
        20           N   tau(  20) = (   0.5005083   1.1421804   0.7663825  )
        21           O   tau(  21) = (   0.0485027   1.6148308   0.6382332  )
        22           O   tau(  22) = (   0.2444608   0.7203864   0.4585256  )
        23           O   tau(  23) = (   0.7444608   0.1740581   0.4585256  )
        24           O   tau(  24) = (   0.5485027   1.0685025   0.6382332  )
        25           O   tau(  25) = (  -0.1462408   1.5154075   0.7825192  )
        26           O   tau(  26) = (   0.4392044   0.6209630   0.3142397  )
        27           O   tau(  27) = (   0.9392044   0.2734814   0.3142397  )
        28           O   tau(  28) = (   0.3537592   1.1679259   0.7825192  )
        29           O   tau(  29) = (   0.1010459   1.4979816   0.8669050  )
        30           O   tau(  30) = (   0.1919176   0.6035372   0.2298538  )
        31           O   tau(  31) = (   0.6919176   0.2909073   0.2298538  )
        32           O   tau(  32) = (   0.6010459   1.1853517   0.8669050  )
        33           N   tau(  33) = (   0.2301659   1.0663094   0.4810570  )
        34           N   tau(  34) = (   0.0627976   0.1718650   0.6157018  )
        35           N   tau(  35) = (   0.5627976   0.7225795   0.6157018  )
        36           N   tau(  36) = (   0.7301659   1.6170239   0.4810570  )
        37           N   tau(  37) = (   0.1726596   1.2112135   0.0503480  )
        38           N   tau(  38) = (   0.1203039   0.3167691   1.0464108  )
        39           N   tau(  39) = (   0.6203039   0.5776754   1.0464108  )
        40           N   tau(  40) = (   0.6726596   1.4721198   0.0503480  )
        41           N   tau(  41) = (   0.0770018   1.0124941   1.0248679  )
        42           N   tau(  42) = (   0.2159617   0.1180496   0.0718910  )
        43           N   tau(  43) = (   0.7159617   0.7763948   0.0718910  )
        44           N   tau(  44) = (   0.5770018   1.6708393   1.0248679  )
        45           O   tau(  45) = (  -0.0248346   1.0247404   0.6743814  )
        46           O   tau(  46) = (   0.3177982   0.1302959   0.4223774  )
        47           O   tau(  47) = (   0.8177982   0.7641485   0.4223774  )
        48           O   tau(  48) = (   0.4751654   1.6585929   0.6743814  )
        49           O   tau(  49) = (   0.8122197   1.1767228   0.5194994  )
        50           O   tau(  50) = (   0.4807438   0.2822784   0.5772594  )
        51           O   tau(  51) = (  -0.0192562   0.6121661   0.5772594  )
        52           O   tau(  52) = (   0.3122197   1.5066105   0.5194994  )
        53           C   tau(  53) = (  -0.0503496   1.1076046   0.5569834  )
        54           C   tau(  54) = (   0.3433132   0.2131602   0.5397754  )
        55           C   tau(  55) = (   0.8433132   0.6812842   0.5397754  )
        56           C   tau(  56) = (   0.4496504   1.5757287   0.5569834  )
        57           C   tau(  57) = (   0.0767080   1.1390661   0.4295259  )
        58           C   tau(  58) = (   0.2162555   0.2446216   0.6672330  )
        59           C   tau(  59) = (   0.7162555   0.6498228   0.6672330  )
        60           C   tau(  60) = (   0.5767080   1.5442672   0.4295259  )
        61           C   tau(  61) = (   0.0158505   1.0696604   0.2698920  )
        62           C   tau(  62) = (   0.2771131   0.1752160   0.8268668  )
        63           C   tau(  63) = (   0.7771131   0.7192285   0.8268668  )
        64           C   tau(  64) = (   0.5158505   1.6136729   0.2698920  )
        65           C   tau(  65) = (   0.1278532   1.0743325   0.1321177  )
        66           C   tau(  66) = (   0.1651103   0.1798880   0.9646411  )
        67           C   tau(  67) = (   0.6651103   0.7145564   0.9646411  )
        68           C   tau(  68) = (   0.6278532   1.6090008   0.1321177  )
        69           C   tau(  69) = (   0.0605132   1.1709809   1.0248823  )
        70           C   tau(  70) = (   0.2324503   0.2765365   0.0718766  )
        71           C   tau(  71) = (   0.7324503   0.6179080   0.0718766  )
        72           C   tau(  72) = (   0.5605132   1.5123524   1.0248823  )
        73           C   tau(  73) = (   0.1982068   0.9492149   0.0530371  )
        74           C   tau(  74) = (   0.0947568   0.0547704   1.0437217  )
        75           C   tau(  75) = (   0.5947568   0.8396740   1.0437217  )
        76           C   tau(  76) = (   0.6982068   1.7341185   0.0530371  )
        77           H   tau(  77) = (   0.3238703   1.1111537   0.4101317  )
        78           H   tau(  78) = (  -0.0309068   0.2167093   0.6866271  )
        79           H   tau(  79) = (   0.4690932   0.6777352   0.6866271  )
        80           H   tau(  80) = (   0.8238703   1.5721796   0.4101317  )
        81           H   tau(  81) = (   0.2581903   1.0956825   0.5994824  )
        82           H   tau(  82) = (   0.0347732   0.2012381   0.4972764  )
        83           H   tau(  83) = (   0.5347732   0.6932064   0.4972764  )
        84           H   tau(  84) = (   0.7581903   1.5876508   0.5994824  )
        85           H   tau(  85) = (   0.2292489   0.9423504   0.4720186  )
        86           H   tau(  86) = (   0.0637146   0.0479060   0.6247402  )
        87           H   tau(  87) = (   0.5637146   0.8465385   0.6247402  )
        88           H   tau(  88) = (   0.7292489   1.7409829   0.4720186  )
        89           H   tau(  89) = (   0.1469964   1.3294887   0.0809766  )
        90           H   tau(  90) = (   0.1459672   0.4350443   1.0157822  )
        91           H   tau(  91) = (   0.6459672   0.4594002   1.0157822  )
        92           H   tau(  92) = (   0.6469964   1.3538446   0.0809766  )
        93           H   tau(  93) = (   0.1431506   0.9461411   0.9423503  )
        94           H   tau(  94) = (   0.1498130   0.0516966   0.1544085  )
        95           H   tau(  95) = (   0.6498130   0.8427478   0.1544085  )
        96           H   tau(  96) = (   0.6431506   1.7371923   0.9423503  )
        97           H   tau(  97) = (   0.0962446   1.2683178   0.4175731  )
        98           H   tau(  98) = (   0.1967190   0.3738734   0.6791857  )
        99           H   tau(  99) = (   0.6967190   0.5205710   0.6791857  )
       100           H   tau( 100) = (   0.5962446   1.4150155   0.4175731  )
       101           H   tau( 101) = (  -0.0188767   0.9444157   0.2892024  )
       102           H   tau( 102) = (   0.3118402   0.0499713   0.8075564  )
       103           H   tau( 103) = (   0.8118402   0.8444731   0.8075564  )
       104           H   tau( 104) = (   0.4811233   1.7389176   0.2892024  )
       105           H   tau( 105) = (   0.9064852   1.1355795   0.2405009  )
       106           H   tau( 106) = (   0.3864783   0.2411351   0.8562579  )
       107           H   tau( 107) = (  -0.1135217   0.6533094   0.8562579  )
       108           H   tau( 108) = (   0.4064852   1.5477538   0.2405009  )
       109           H   tau( 109) = (   0.1137724   1.2538003   0.9411060  )
       110           H   tau( 110) = (   0.1791911   0.3593558   0.1556528  )
       111           H   tau( 111) = (   0.6791911   0.5350886   0.1556528  )
       112           H   tau( 112) = (   0.6137724   1.4295331   0.9411060  )
       113           H   tau( 113) = (   0.1927679   0.8217456   0.0742568  )
       114           H   tau( 114) = (   0.1001956   1.7161900   1.0225020  )
       115           H   tau( 115) = (   0.6001956   0.9671433   1.0225020  )
       116           H   tau( 116) = (   0.6927679   0.0726989   0.0742568  )
       117           H   tau( 117) = (   0.7201884   1.1331707   0.5873645  )
       118           H   tau( 118) = (   0.5727751   0.2387262   0.5093943  )
       119           H   tau( 119) = (   0.0727751   0.6557182   0.5093943  )
       120           H   tau( 120) = (   0.2201884   1.5501627   0.5873645  )

     number of k points=     8
                       cart. coord. in units 2pi/alat
        k(    1) = (   0.0000000   0.0000000   0.0000000), wk =   0.2500000
        k(    2) = (   0.0000000   0.0000000  -0.4558887), wk =   0.2500000
        k(    3) = (   0.0000000  -0.2795031   0.0000000), wk =   0.2500000
        k(    4) = (   0.0000000  -0.2795031  -0.4558887), wk =   0.2500000
        k(    5) = (  -0.5000000   0.0000000  -0.0943856), wk =   0.2500000
        k(    6) = (  -0.5000000   0.0000000  -0.5502743), wk =   0.2500000
        k(    7) = (  -0.5000000  -0.2795031  -0.0943856), wk =   0.2500000
        k(    8) = (  -0.5000000  -0.2795031  -0.5502743), wk =   0.2500000

     Dense  grid:  1048679 G-vectors     FFT dimensions: ( 108, 192, 120)

     Estimated max dynamical RAM per process >    1390.43MB

     Estimated total allocated dynamical RAM >   11123.44MB

     Check: negative/imaginary core charge=   -0.000003    0.000000

     Initial potential from superposition of free atoms

     starting charge  431.99839, renormalised to  432.00000
     Starting wfc are  348 randomized atomic wfcs
     Checking if some PAW data can be deallocated... 

     total cpu time spent up to now is       95.6 secs

     per-process dynamical memory:   901.1 Mb

     Self-consistent Calculation

     iteration #  1     ecut=   100.00 Ry     beta=0.50
     Davidson diagonalization with overlap
     ethr =  1.00E-02,  avg # of iterations =  4.2

     total cpu time spent up to now is      404.1 secs

     total energy              =   -2388.26634927 Ry
     Harris-Foulkes estimate   =   -2395.12131988 Ry
     estimated scf accuracy    <      12.34768111 Ry

     iteration #  2     ecut=   100.00 Ry     beta=0.50
     Davidson diagonalization with overlap
     ethr =  2.86E-03,  avg # of iterations =  3.1

     total cpu time spent up to now is      619.7 secs

     total energy              =   -2390.58257078 Ry
     Harris-Foulkes estimate   =   -2392.01814143 Ry
     estimated scf accuracy    <       3.09406211 Ry

     iteration #  3     ecut=   100.00 Ry     beta=0.50
     Davidson diagonalization with overlap
     ethr =  7.16E-04,  avg # of iterations =  7.0

     total cpu time spent up to now is      859.9 secs

     total energy              =   -2391.27137003 Ry
     Harris-Foulkes estimate   =   -2391.40786473 Ry
     estimated scf accuracy    <       0.38048978 Ry

     iteration #  4     ecut=   100.00 Ry     beta=0.50
     Davidson diagonalization with overlap
     ethr =  8.81E-05,  avg # of iterations = 12.1

     total cpu time spent up to now is     1104.9 secs

     total energy              =   -2391.31540978 Ry
     Harris-Foulkes estimate   =   -2391.34699858 Ry
     estimated scf accuracy    <       0.08323641 Ry

     iteration #  5     ecut=   100.00 Ry     beta=0.50
     Davidson diagonalization with overlap
     ethr =  1.93E-05,  avg # of iterations =  8.4

     total cpu time spent up to now is     1352.6 secs

     total energy              =   -2391.33225690 Ry
     Harris-Foulkes estimate   =   -2391.34279535 Ry
     estimated scf accuracy    <       0.02887949 Ry

     iteration #  6     ecut=   100.00 Ry     beta=0.50
     Davidson diagonalization with overlap
     ethr =  6.69E-06,  avg # of iterations =  4.0

     total cpu time spent up to now is     1537.4 secs

     total energy              =   -2391.33730769 Ry
     Harris-Foulkes estimate   =   -2391.33824639 Ry
     estimated scf accuracy    <       0.00246300 Ry

     iteration #  7     ecut=   100.00 Ry     beta=0.50
     Davidson diagonalization with overlap
     ethr =  5.70E-07,  avg # of iterations =  8.8

     total cpu time spent up to now is     1821.9 secs

     total energy              =   -2391.33804729 Ry
     Harris-Foulkes estimate   =   -2391.33825531 Ry
     estimated scf accuracy    <       0.00059766 Ry

     iteration #  8     ecut=   100.00 Ry     beta=0.50
     Davidson diagonalization with overlap
     ethr =  1.38E-07,  avg # of iterations =  3.8

     total cpu time spent up to now is     2005.4 secs

     total energy              =   -2391.33815792 Ry
     Harris-Foulkes estimate   =   -2391.33818327 Ry
     estimated scf accuracy    <       0.00009684 Ry

     iteration #  9     ecut=   100.00 Ry     beta=0.50
     Davidson diagonalization with overlap
     ethr =  2.24E-08,  avg # of iterations =  3.0

     total cpu time spent up to now is     2199.6 secs

     total energy              =   -2391.33818020 Ry
     Harris-Foulkes estimate   =   -2391.33818387 Ry
     estimated scf accuracy    <       0.00001503 Ry

     iteration # 10     ecut=   100.00 Ry     beta=0.50
     Davidson diagonalization with overlap
     ethr =  3.48E-09,  avg # of iterations =  3.0

     total cpu time spent up to now is     2401.7 secs

     total energy              =   -2391.33818339 Ry
     Harris-Foulkes estimate   =   -2391.33818503 Ry
     estimated scf accuracy    <       0.00000449 Ry

     iteration # 11     ecut=   100.00 Ry     beta=0.50
     Davidson diagonalization with overlap
     ethr =  1.04E-09,  avg # of iterations =  2.9

     total cpu time spent up to now is     2589.3 secs

     total energy              =   -2391.33818450 Ry
     Harris-Foulkes estimate   =   -2391.33818469 Ry
     estimated scf accuracy    <       0.00000076 Ry

     iteration # 12     ecut=   100.00 Ry     beta=0.50
     Davidson diagonalization with overlap
     ethr =  1.77E-10,  avg # of iterations =  3.0

     total cpu time spent up to now is     2767.6 secs

     total energy              =   -2391.33818465 Ry
     Harris-Foulkes estimate   =   -2391.33818467 Ry
     estimated scf accuracy    <       0.00000007 Ry

     iteration # 13     ecut=   100.00 Ry     beta=0.50
     Davidson diagonalization with overlap
     ethr =  1.67E-11,  avg # of iterations =  3.9

     total cpu time spent up to now is     3049.2 secs

     total energy              =   -2391.33818469 Ry
     Harris-Foulkes estimate   =   -2391.33818470 Ry
     estimated scf accuracy    <       0.00000003 Ry

     iteration # 14     ecut=   100.00 Ry     beta=0.50
     Davidson diagonalization with overlap
     ethr =  6.79E-12,  avg # of iterations =  2.1

     total cpu time spent up to now is     3222.5 secs

     End of self-consistent calculation

          k = 0.0000 0.0000 0.0000 (131049 PWs)   bands (ev):

   -24.4952 -24.4934 -24.4878 -24.4857 -24.4822 -24.4811 -24.4763 -24.4750
   -20.7865 -20.7839 -20.7478 -20.7450 -19.6286 -19.6262 -19.6230 -19.6227
   -19.2519 -19.2498 -19.2437 -19.2421 -19.0176 -19.0173 -19.0090 -19.0058
   -18.9649 -18.9622 -18.9570 -18.9539 -18.8093 -18.8093 -18.7909 -18.7905
   -18.5416 -18.5407 -18.5077 -18.5074 -17.3406 -17.3402 -17.3399 -17.3391
   -16.0902 -16.0846 -16.0836 -16.0822 -13.3922 -13.3895 -13.3681 -13.3680
   -12.1432 -12.1293 -12.1291 -12.1147 -10.3192 -10.3172 -10.2754 -10.2651
    -9.7282  -9.7102  -9.6178  -9.6049  -8.8680  -8.8102  -8.7473  -8.6303
    -8.6163  -8.5394  -8.5110  -8.4997  -8.4394  -8.4153  -8.2923  -8.2828
    -8.2426  -8.2247  -8.2078  -8.0653  -7.4405  -7.4313  -7.3753  -7.2308
    -7.1519  -7.0714  -7.0214  -6.9662  -6.9527  -6.8877  -6.7046  -6.6862
    -6.6344  -6.5707  -6.5612  -6.5512  -6.5412  -6.5339  -6.4875  -6.4764
    -6.4522  -6.4150  -6.2738  -6.1848  -6.1787  -6.1385  -6.0912  -6.0904
    -6.0452  -6.0032  -5.9966  -5.9510  -5.8941  -5.8591  -5.8559  -5.8145
    -5.3703  -5.3585  -5.3581  -5.3453  -5.3407  -5.2413  -5.1810  -5.1699
    -4.8913  -4.8660  -4.8631  -4.8625  -4.7999  -4.7413  -4.6730  -4.6674
    -4.6318  -4.6220  -4.5468  -4.5407  -4.4231  -4.3920  -4.3377  -4.2806
    -4.1474  -4.1149  -4.0834  -4.0743  -3.9282  -3.8525  -3.8448  -3.8402
    -3.2903  -3.2891  -3.2378  -3.2289  -3.1168  -3.1039  -3.0972  -3.0864
    -2.6569  -2.5858  -2.4584  -2.4288  -2.1386  -2.1154  -2.0854  -2.0061
    -1.3762  -1.3464  -1.2450  -1.2107  -1.2075  -1.2045  -1.1232  -1.0613
    -1.0548  -1.0459  -0.9599  -0.9354  -0.9155  -0.8862  -0.8829  -0.8737
    -0.8641  -0.8585  -0.8233  -0.8210  -0.7801  -0.7425  -0.7287  -0.7111
    -0.7089  -0.6966  -0.6824  -0.6535  -0.6367  -0.6306  -0.6091  -0.5784
    -0.5724  -0.5387  -0.5192  -0.4981  -0.4421  -0.4310  -0.4235  -0.3579
     0.1766   0.2170   0.2989   0.3314   0.5455   0.5610   0.7184   0.7403
     0.7494   0.7534   0.7925   0.7941   0.8217   0.8380   0.8643   0.8730
     4.3683   4.4025   4.4824   4.4890   4.5776   4.6406   4.6551   4.6644
     5.3464   5.3533   5.4525   5.5464   5.7342   5.8131   5.8143   5.8612
     6.4118   6.4673   6.4686   6.6272   6.8024   7.2777   7.5865   8.1505
     8.2035   8.2214   8.3224   8.5341   8.7264   8.7713   8.8800   8.9038
     8.9707   8.9764   9.0137   9.0759   9.1604   9.1887   9.2244   9.2322
     9.2841   9.3312   9.5642

          k = 0.0000 0.0000-0.4559 (131136 PWs)   bands (ev):

   -24.4920 -24.4902 -24.4880 -24.4861 -24.4827 -24.4815 -24.4788 -24.4775
   -20.7864 -20.7838 -20.7476 -20.7449 -19.6287 -19.6263 -19.6232 -19.6224
   -19.2513 -19.2511 -19.2428 -19.2423 -19.0171 -19.0169 -19.0087 -19.0052
   -18.9654 -18.9616 -18.9575 -18.9538 -18.8098 -18.8095 -18.7921 -18.7914
   -18.5425 -18.5415 -18.5081 -18.5079 -17.3386 -17.3385 -17.3381 -17.3372
   -16.0910 -16.0848 -16.0843 -16.0828 -13.3945 -13.3923 -13.3584 -13.3539
   -12.1625 -12.1609 -12.1407 -12.1367 -10.3047 -10.2744 -10.2303 -10.2064
    -9.7300  -9.7043  -9.6179  -9.6042  -8.9316  -8.8300  -8.7357  -8.7159
    -8.6167  -8.5727  -8.5560  -8.4386  -8.4121  -8.3868  -8.3102  -8.2643
    -8.2610  -8.2173  -8.1200  -8.1146  -7.4172  -7.3272  -7.2946  -7.2205
    -7.1629  -7.1009  -7.0951  -7.0328  -6.9199  -6.8877  -6.7295  -6.6905
    -6.6738  -6.6098  -6.6051  -6.5926  -6.5610  -6.5597  -6.5285  -6.5208
    -6.4299  -6.4202  -6.2129  -6.2032  -6.2008  -6.1413  -6.0992  -6.0604
    -6.0245  -6.0065  -5.9468  -5.9351  -5.9005  -5.8670  -5.8409  -5.8273
    -5.4429  -5.4063  -5.3463  -5.3036  -5.2074  -5.1963  -5.1611  -5.0931
    -4.9128  -4.9014  -4.8826  -4.8794  -4.7627  -4.7495  -4.7118  -4.7030
    -4.5554  -4.5440  -4.5283  -4.5170  -4.4940  -4.4718  -4.3318  -4.3263
    -4.1208  -4.1019  -4.0533  -4.0514  -3.9346  -3.8924  -3.8856  -3.8511
    -3.2942  -3.2891  -3.2041  -3.2039  -3.0857  -3.0494  -3.0451  -3.0384
    -2.6908  -2.6475  -2.5315  -2.5228  -2.1116  -2.0990  -2.0980  -2.0010
    -1.3725  -1.3300  -1.2932  -1.2571  -1.1445  -1.0943  -1.0859  -1.0494
    -1.0465  -1.0423  -0.9935  -0.9562  -0.9329  -0.8938  -0.8915  -0.8829
    -0.8501  -0.8305  -0.8230  -0.8198  -0.7841  -0.7747  -0.7584  -0.7499
    -0.6953  -0.6698  -0.6549  -0.6536  -0.6394  -0.6370  -0.5700  -0.5700
    -0.5543  -0.5392  -0.5295  -0.5055  -0.4862  -0.4218  -0.3965  -0.3856
     0.1603   0.1964   0.2926   0.3139   0.5658   0.5675   0.7271   0.7331
     0.7371   0.7507   0.7941   0.8033   0.8161   0.8377   0.8492   0.8666
     4.3863   4.4021   4.5002   4.5355   4.5580   4.5891   4.6112   4.6646
     5.4737   5.4947   5.5421   5.5641   5.5781   5.6783   5.8146   5.9022
     6.4170   6.4667   6.4945   6.5171   6.9657   7.3747   7.6383   7.8889
     7.9621   8.2368   8.2975   8.3225   8.5222   8.7947   8.8553   8.8725
     8.8861   9.0179   9.0283   9.0607   9.1331   9.1532   9.3203   9.3692
     9.3841   9.5318   9.5507

          k = 0.0000-0.2795 0.0000 (131034 PWs)   bands (ev):

   -24.4944 -24.4944 -24.4867 -24.4867 -24.4817 -24.4817 -24.4756 -24.4756
   -20.7853 -20.7853 -20.7463 -20.7463 -19.6259 -19.6259 -19.6243 -19.6243
   -19.2509 -19.2509 -19.2429 -19.2429 -19.0139 -19.0139 -19.0112 -19.0112
   -18.9634 -18.9634 -18.9554 -18.9554 -18.8093 -18.8093 -18.7907 -18.7907
   -18.5412 -18.5412 -18.5076 -18.5076 -17.3405 -17.3405 -17.3394 -17.3394
   -16.0872 -16.0872 -16.0831 -16.0831 -13.3909 -13.3909 -13.3680 -13.3680
   -12.1392 -12.1392 -12.1189 -12.1189 -10.3184 -10.3184 -10.2699 -10.2699
    -9.6783  -9.6783  -9.6599  -9.6599  -8.8477  -8.8477  -8.6756  -8.6756
    -8.5523  -8.5523  -8.5223  -8.5223  -8.4007  -8.4007  -8.3095  -8.3095
    -8.2533  -8.2533  -8.1285  -8.1285  -7.4522  -7.4522  -7.3059  -7.3059
    -7.1118  -7.1118  -6.9910  -6.9910  -6.9215  -6.9215  -6.6803  -6.6803
    -6.6231  -6.6231  -6.5510  -6.5510  -6.5422  -6.5422  -6.4858  -6.4858
    -6.3076  -6.3076  -6.2584  -6.2584  -6.2099  -6.2099  -6.1261  -6.1261
    -6.0293  -6.0293  -5.9620  -5.9620  -5.8608  -5.8608  -5.8444  -5.8444
    -5.3844  -5.3844  -5.3421  -5.3421  -5.2915  -5.2915  -5.1607  -5.1607
    -4.8780  -4.8780  -4.8624  -4.8624  -4.7734  -4.7734  -4.6712  -4.6712
    -4.6265  -4.6265  -4.5424  -4.5424  -4.4093  -4.4093  -4.3131  -4.3131
    -4.1063  -4.1063  -4.0901  -4.0901  -3.8911  -3.8911  -3.8495  -3.8495
    -3.2896  -3.2896  -3.2335  -3.2335  -3.1114  -3.1114  -3.0910  -3.0910
    -2.6257  -2.6257  -2.4395  -2.4395  -2.1328  -2.1328  -2.0406  -2.0406
    -1.3578  -1.3578  -1.2346  -1.2346  -1.2108  -1.2108  -1.0894  -1.0894
    -0.9908  -0.9908  -0.9765  -0.9765  -0.9374  -0.9374  -0.8713  -0.8713
    -0.8518  -0.8518  -0.8171  -0.8171  -0.7591  -0.7591  -0.7238  -0.7238
    -0.7016  -0.7016  -0.6857  -0.6857  -0.6284  -0.6284  -0.5891  -0.5891
    -0.5528  -0.5528  -0.5186  -0.5186  -0.4369  -0.4369  -0.3837  -0.3837
     0.1926   0.1926   0.3190   0.3190   0.5529   0.5529   0.7286   0.7286
     0.7557   0.7557   0.7891   0.7891   0.8313   0.8313   0.8690   0.8690
     4.3838   4.3838   4.4865   4.4865   4.6018   4.6018   4.6681   4.6681
     5.3447   5.3447   5.5015   5.5015   5.7712   5.7712   5.8413   5.8413
     6.4229   6.4229   6.5836   6.5836   6.9373   6.9373   7.9600   7.9600
     8.2452   8.2452   8.4138   8.4138   8.6967   8.6967   8.8070   8.8070
     9.0599   9.0599   9.0935   9.0935   9.1963   9.1963   9.2578   9.2578
     9.2782   9.2782   9.4848

          k = 0.0000-0.2795-0.4559 (131132 PWs)   bands (ev):

   -24.4912 -24.4912 -24.4870 -24.4870 -24.4821 -24.4821 -24.4781 -24.4781
   -20.7851 -20.7851 -20.7462 -20.7462 -19.6260 -19.6260 -19.6243 -19.6243
   -19.2512 -19.2512 -19.2426 -19.2426 -19.0136 -19.0136 -19.0107 -19.0107
   -18.9633 -18.9633 -18.9555 -18.9555 -18.8097 -18.8097 -18.7917 -18.7917
   -18.5420 -18.5420 -18.5079 -18.5079 -17.3386 -17.3386 -17.3376 -17.3376
   -16.0880 -16.0880 -16.0834 -16.0834 -13.3935 -13.3935 -13.3561 -13.3561
   -12.1618 -12.1618 -12.1386 -12.1386 -10.2922 -10.2922 -10.2155 -10.2155
    -9.6793  -9.6793  -9.6566  -9.6566  -8.8876  -8.8876  -8.7242  -8.7242
    -8.5889  -8.5889  -8.4570  -8.4570  -8.3527  -8.3527  -8.3429  -8.3429
    -8.2686  -8.2686  -8.1150  -8.1150  -7.3947  -7.3947  -7.2377  -7.2377
    -7.1408  -7.1408  -7.0666  -7.0666  -6.9123  -6.9123  -6.7100  -6.7100
    -6.6453  -6.6453  -6.5832  -6.5832  -6.5515  -6.5515  -6.5380  -6.5380
    -6.3146  -6.3146  -6.2514  -6.2514  -6.2031  -6.2031  -6.0866  -6.0866
    -6.0482  -6.0482  -5.9045  -5.9045  -5.8933  -5.8933  -5.8417  -5.8417
    -5.4276  -5.4276  -5.3320  -5.3320  -5.2016  -5.2016  -5.1182  -5.1182
    -4.8956  -4.8956  -4.8895  -4.8895  -4.7595  -4.7595  -4.7040  -4.7040
    -4.5398  -4.5398  -4.5356  -4.5356  -4.4806  -4.4806  -4.3284  -4.3284
    -4.0818  -4.0818  -4.0758  -4.0758  -3.9120  -3.9120  -3.8765  -3.8765
    -3.2913  -3.2913  -3.2048  -3.2048  -3.0691  -3.0691  -3.0394  -3.0394
    -2.6734  -2.6734  -2.5239  -2.5239  -2.1140  -2.1140  -2.0410  -2.0410
    -1.3535  -1.3535  -1.2692  -1.2692  -1.1260  -1.1260  -1.0805  -1.0805
    -1.0008  -1.0008  -0.9790  -0.9790  -0.9219  -0.9219  -0.8963  -0.8963
    -0.8566  -0.8566  -0.8229  -0.8229  -0.7683  -0.7683  -0.7450  -0.7450
    -0.6825  -0.6825  -0.6550  -0.6550  -0.6355  -0.6355  -0.5724  -0.5724
    -0.5570  -0.5570  -0.5223  -0.5223  -0.4452  -0.4452  -0.3913  -0.3913
     0.1762   0.1762   0.3053   0.3053   0.5667   0.5667   0.7282   0.7282
     0.7478   0.7478   0.7935   0.7935   0.8305   0.8305   0.8581   0.8581
     4.3910   4.3910   4.5395   4.5395   4.5445   4.5445   4.6488   4.6488
     5.4864   5.4864   5.5360   5.5360   5.6379   5.6379   5.8630   5.8630
     6.4410   6.4410   6.5059   6.5059   7.1374   7.1374   7.6769   7.6769
     8.3219   8.3219   8.3806   8.3806   8.4853   8.4853   8.8373   8.8373
     9.0102   9.0102   9.0813   9.0813   9.1560   9.1560   9.2453   9.2454
     9.3767   9.3767   9.5710

          k =-0.5000 0.0000-0.0944 (131066 PWs)   bands (ev):

   -24.4942 -24.4942 -24.4867 -24.4867 -24.4816 -24.4816 -24.4757 -24.4757
   -20.7861 -20.7861 -20.7473 -20.7473 -19.6300 -19.6300 -19.6204 -19.6204
   -19.2457 -19.2457 -19.2435 -19.2435 -19.0180 -19.0180 -19.0080 -19.0080
   -18.9655 -18.9655 -18.9560 -18.9560 -18.8093 -18.8093 -18.7855 -18.7855
   -18.5416 -18.5416 -18.5110 -18.5110 -17.3440 -17.3440 -17.3350 -17.3350
   -16.0886 -16.0886 -16.0816 -16.0816 -13.3885 -13.3885 -13.3709 -13.3709
   -12.1332 -12.1332 -12.1301 -12.1301 -10.2922 -10.2922 -10.2587 -10.2587
    -9.7242  -9.7242  -9.6080  -9.6080  -8.9716  -8.9716  -8.8675  -8.8675
    -8.5805  -8.5805  -8.5209  -8.5209  -8.4251  -8.4251  -8.2506  -8.2506
    -8.1088  -8.1088  -7.8631  -7.8631  -7.3519  -7.3519  -7.2654  -7.2654
    -7.1946  -7.1946  -7.0639  -7.0639  -6.9383  -6.9383  -6.7229  -6.7229
    -6.6414  -6.6414  -6.5985  -6.5985  -6.5734  -6.5734  -6.4935  -6.4935
    -6.4334  -6.4334  -6.2847  -6.2847  -6.0902  -6.0902  -6.0066  -6.0066
    -5.9756  -5.9756  -5.9364  -5.9364  -5.9047  -5.9047  -5.8593  -5.8593
    -5.3840  -5.3840  -5.3174  -5.3174  -5.2820  -5.2820  -5.1826  -5.1826
    -4.9267  -4.9267  -4.9092  -4.9092  -4.7591  -4.7591  -4.7076  -4.7076
    -4.6397  -4.6397  -4.5763  -4.5763  -4.4096  -4.4096  -4.2920  -4.2920
    -4.1195  -4.1195  -4.0597  -4.0597  -3.9216  -3.9216  -3.8262  -3.8262
    -3.3159  -3.3159  -3.2322  -3.2322  -3.0996  -3.0996  -3.0866  -3.0866
    -2.6110  -2.6110  -2.4315  -2.4315  -2.1228  -2.1228  -2.0228  -2.0228
    -1.3225  -1.3225  -1.2516  -1.2516  -1.1469  -1.1469  -1.0802  -1.0802
    -1.0452  -1.0452  -0.9550  -0.9550  -0.9374  -0.9374  -0.8977  -0.8977
    -0.8611  -0.8611  -0.8577  -0.8577  -0.7837  -0.7837  -0.7356  -0.7356
    -0.6651  -0.6651  -0.6456  -0.6456  -0.6289  -0.6289  -0.5649  -0.5649
    -0.5142  -0.5142  -0.4900  -0.4900  -0.4605  -0.4605  -0.4008  -0.4008
     0.1711   0.1711   0.3242   0.3242   0.5087   0.5087   0.7294   0.7294
     0.7437   0.7437   0.8037   0.8037   0.8394   0.8394   0.8532   0.8532
     4.4413   4.4413   4.4639   4.4639   4.5886   4.5886   4.6427   4.6427
     5.3473   5.3473   5.5441   5.5441   5.7537   5.7537   5.8108   5.8108
     6.4764   6.4764   6.5764   6.5764   7.2225   7.2225   7.7179   7.7179
     8.1853   8.1853   8.2659   8.2659   8.4040   8.4040   8.6833   8.6833
     8.8776   8.8776   9.0791   9.0791   9.2160   9.2160   9.3953   9.3953
     9.4648   9.4648   9.6202

          k =-0.5000 0.0000-0.5503 (131034 PWs)   bands (ev):

   -24.4910 -24.4910 -24.4870 -24.4870 -24.4821 -24.4821 -24.4782 -24.4782
   -20.7860 -20.7860 -20.7471 -20.7471 -19.6301 -19.6301 -19.6206 -19.6206
   -19.2450 -19.2450 -19.2442 -19.2442 -19.0176 -19.0176 -19.0072 -19.0072
   -18.9642 -18.9642 -18.9562 -18.9562 -18.8118 -18.8118 -18.7868 -18.7868
   -18.5419 -18.5419 -18.5111 -18.5111 -17.3428 -17.3428 -17.3327 -17.3327
   -16.0891 -16.0891 -16.0823 -16.0823 -13.3980 -13.3980 -13.3539 -13.3539
   -12.1676 -12.1676 -12.1264 -12.1264 -10.2953 -10.2953 -10.2253 -10.2253
    -9.7236  -9.7236  -9.6079  -9.6079  -8.9351  -8.9351  -8.8349  -8.8349
    -8.6080  -8.6080  -8.5002  -8.5002  -8.4322  -8.4322  -8.2438  -8.2438
    -8.1457  -8.1457  -7.9054  -7.9054  -7.3639  -7.3639  -7.2494  -7.2494
    -7.0987  -7.0987  -7.0625  -7.0625  -7.0385  -7.0385  -6.7449  -6.7449
    -6.6345  -6.6345  -6.6232  -6.6232  -6.5324  -6.5324  -6.5305  -6.5305
    -6.4292  -6.4292  -6.1927  -6.1927  -6.1555  -6.1555  -6.0604  -6.0604
    -6.0001  -6.0001  -5.9584  -5.9584  -5.8824  -5.8824  -5.8325  -5.8325
    -5.3803  -5.3803  -5.3670  -5.3670  -5.2017  -5.2017  -5.1144  -5.1144
    -4.9536  -4.9536  -4.9289  -4.9289  -4.7710  -4.7710  -4.7183  -4.7183
    -4.5704  -4.5704  -4.5282  -4.5282  -4.4897  -4.4897  -4.3331  -4.3331
    -4.1227  -4.1227  -4.0663  -4.0663  -3.9073  -3.9073  -3.8515  -3.8515
    -3.2640  -3.2640  -3.1956  -3.1956  -3.0618  -3.0618  -3.0086  -3.0086
    -2.6905  -2.6905  -2.5086  -2.5086  -2.1355  -2.1355  -2.0477  -2.0477
    -1.2896  -1.2896  -1.2258  -1.2258  -1.0842  -1.0842  -1.0593  -1.0593
    -1.0344  -1.0344  -1.0083  -1.0083  -0.9291  -0.9291  -0.8945  -0.8945
    -0.8594  -0.8594  -0.8510  -0.8510  -0.8110  -0.8110  -0.7830  -0.7830
    -0.6951  -0.6951  -0.6282  -0.6282  -0.5830  -0.5830  -0.5768  -0.5768
    -0.4959  -0.4959  -0.4931  -0.4931  -0.4685  -0.4685  -0.4142  -0.4142
     0.1411   0.1411   0.3146   0.3146   0.5357   0.5357   0.7256   0.7256
     0.7380   0.7380   0.7480   0.7480   0.8514   0.8514   0.8975   0.8975
     4.4505   4.4505   4.4866   4.4866   4.5676   4.5676   4.6259   4.6259
     5.4789   5.4789   5.5471   5.5471   5.6758   5.6758   5.8341   5.8341
     6.4570   6.4570   6.4828   6.4828   7.3438   7.3438   7.6877   7.6877
     8.0162   8.0162   8.2123   8.2123   8.4969   8.4969   8.6981   8.6981
     8.8260   8.8260   8.9903   8.9903   9.1918   9.1918   9.3568   9.3568
     9.4696   9.4696   9.5804

          k =-0.5000-0.2795-0.0944 (131100 PWs)   bands (ev):

   -24.4942 -24.4942 -24.4867 -24.4867 -24.4816 -24.4816 -24.4757 -24.4757
   -20.7861 -20.7861 -20.7473 -20.7473 -19.6294 -19.6294 -19.6211 -19.6211
   -19.2456 -19.2456 -19.2436 -19.2436 -19.0136 -19.0136 -19.0127 -19.0127
   -18.9651 -18.9651 -18.9561 -18.9561 -18.8093 -18.8093 -18.7855 -18.7855
   -18.5416 -18.5416 -18.5110 -18.5110 -17.3440 -17.3440 -17.3350 -17.3350
   -16.0878 -16.0878 -16.0824 -16.0824 -13.3885 -13.3885 -13.3709 -13.3709
   -12.1331 -12.1331 -12.1301 -12.1301 -10.2922 -10.2922 -10.2588 -10.2588
    -9.6883  -9.6883  -9.6516  -9.6516  -8.9693  -8.9693  -8.8692  -8.8692
    -8.5496  -8.5496  -8.5311  -8.5311  -8.3745  -8.3745  -8.3198  -8.3198
    -8.1050  -8.1050  -7.8639  -7.8639  -7.3493  -7.3493  -7.2836  -7.2836
    -7.1896  -7.1896  -7.0637  -7.0637  -6.9431  -6.9431  -6.7195  -6.7195
    -6.6329  -6.6329  -6.6220  -6.6220  -6.5676  -6.5676  -6.4869  -6.4869
    -6.3305  -6.3305  -6.3124  -6.3124  -6.1574  -6.1574  -6.0323  -6.0323
    -5.9496  -5.9496  -5.9264  -5.9264  -5.8975  -5.8975  -5.8696  -5.8696
    -5.3990  -5.3990  -5.3227  -5.3227  -5.2593  -5.2593  -5.1872  -5.1872
    -4.9206  -4.9206  -4.9139  -4.9139  -4.7576  -4.7576  -4.7042  -4.7042
    -4.6415  -4.6415  -4.5798  -4.5798  -4.4102  -4.4102  -4.2947  -4.2947
    -4.0924  -4.0924  -4.0743  -4.0743  -3.9110  -3.9110  -3.8449  -3.8449
    -3.3153  -3.3153  -3.2334  -3.2334  -3.0995  -3.0995  -3.0864  -3.0864
    -2.6093  -2.6093  -2.4380  -2.4380  -2.1032  -2.1032  -2.0384  -2.0384
    -1.3208  -1.3208  -1.2505  -1.2505  -1.1454  -1.1454  -1.0835  -1.0835
    -0.9975  -0.9975  -0.9897  -0.9897  -0.9263  -0.9263  -0.9082  -0.9082
    -0.8735  -0.8735  -0.8663  -0.8663  -0.7578  -0.7578  -0.7507  -0.7507
    -0.6579  -0.6579  -0.6466  -0.6466  -0.6237  -0.6237  -0.5869  -0.5869
    -0.5136  -0.5136  -0.4958  -0.4958  -0.4446  -0.4446  -0.4044  -0.4044
     0.1725   0.1725   0.3225   0.3225   0.5095   0.5095   0.7342   0.7342
     0.7393   0.7393   0.8022   0.8022   0.8428   0.8428   0.8512   0.8512
     4.4414   4.4414   4.4619   4.4619   4.6050   4.6050   4.6281   4.6281
     5.3470   5.3470   5.5440   5.5440   5.7623   5.7623   5.8026   5.8026
     6.4776   6.4776   6.5734   6.5734   7.3030   7.3030   7.5329   7.5329
     8.2312   8.2312   8.3602   8.3602   8.5331   8.5331   8.6572   8.6572
     8.8868   8.8868   8.9092   8.9092   9.2389   9.2389   9.3283   9.3283
     9.5035   9.5036   9.5322

          k =-0.5000-0.2795-0.5503 (131128 PWs)   bands (ev):

   -24.4910 -24.4910 -24.4870 -24.4870 -24.4821 -24.4821 -24.4782 -24.4782
   -20.7860 -20.7860 -20.7471 -20.7471 -19.6295 -19.6295 -19.6213 -19.6213
   -19.2448 -19.2448 -19.2444 -19.2444 -19.0139 -19.0139 -19.0112 -19.0112
   -18.9636 -18.9636 -18.9564 -18.9564 -18.8118 -18.8118 -18.7867 -18.7867
   -18.5419 -18.5419 -18.5111 -18.5111 -17.3428 -17.3428 -17.3327 -17.3327
   -16.0883 -16.0883 -16.0831 -16.0831 -13.3980 -13.3980 -13.3540 -13.3540
   -12.1676 -12.1676 -12.1264 -12.1264 -10.2953 -10.2953 -10.2254 -10.2254
    -9.6885  -9.6885  -9.6510  -9.6510  -8.9339  -8.9339  -8.8351  -8.8351
    -8.5738  -8.5738  -8.5292  -8.5292  -8.3464  -8.3464  -8.3330  -8.3330
    -8.1376  -8.1376  -7.9141  -7.9141  -7.3467  -7.3467  -7.2772  -7.2772
    -7.0966  -7.0966  -7.0677  -7.0677  -7.0350  -7.0350  -6.7427  -6.7427
    -6.6317  -6.6317  -6.6216  -6.6216  -6.5404  -6.5404  -6.5307  -6.5307
    -6.3344  -6.3344  -6.2623  -6.2623  -6.1240  -6.1240  -6.1096  -6.1096
    -5.9865  -5.9865  -5.9709  -5.9709  -5.8705  -5.8705  -5.8357  -5.8357
    -5.3812  -5.3812  -5.3710  -5.3710  -5.2036  -5.2036  -5.1092  -5.1092
    -4.9476  -4.9476  -4.9376  -4.9376  -4.7707  -4.7707  -4.7161  -4.7161
    -4.5683  -4.5683  -4.5197  -4.5197  -4.4964  -4.4964  -4.3403  -4.3403
    -4.1002  -4.1002  -4.0735  -4.0735  -3.9028  -3.9028  -3.8677  -3.8677
    -3.2645  -3.2645  -3.1944  -3.1944  -3.0629  -3.0629  -3.0078  -3.0078
    -2.6880  -2.6880  -2.5133  -2.5133  -2.1237  -2.1237  -2.0573  -2.0573
    -1.2866  -1.2866  -1.2302  -1.2302  -1.0840  -1.0840  -1.0627  -1.0627
    -1.0236  -1.0236  -0.9893  -0.9893  -0.9236  -0.9236  -0.9035  -0.9035
    -0.8742  -0.8742  -0.8598  -0.8598  -0.8039  -0.8039  -0.7888  -0.7888
    -0.6783  -0.6783  -0.6336  -0.6336  -0.5949  -0.5949  -0.5838  -0.5838
    -0.4950  -0.4950  -0.4836  -0.4836  -0.4667  -0.4667  -0.4182  -0.4182
     0.1424   0.1424   0.3140   0.3140   0.5358   0.5358   0.7236   0.7236
     0.7361   0.7361   0.7521   0.7521   0.8521   0.8521   0.8968   0.8968
     4.4541   4.4541   4.4840   4.4840   4.5651   4.5651   4.6278   4.6278
     5.4791   5.4791   5.5478   5.5478   5.6737   5.6737   5.8349   5.8349
     6.4682   6.4682   6.4710   6.4710   7.4068   7.4068   7.5572   7.5572
     8.0778   8.0778   8.2905   8.2905   8.4487   8.4487   8.6620   8.6620
     8.8953   8.8953   9.0194   9.0194   9.1820   9.1820   9.2556   9.2556
     9.3709   9.3709   9.5441

     highest occupied, lowest unoccupied level (ev):     0.8975    4.3683

!    total energy              =   -2391.33818469 Ry
     Harris-Foulkes estimate   =   -2391.33818469 Ry
     estimated scf accuracy    <          3.6E-09 Ry

     total all-electron energy =     -8886.753008 Ry

     The total energy is the sum of the following terms:

     one-electron contribution =   -1231.23280459 Ry
     hartree contribution      =     791.86216196 Ry
     xc contribution           =    -476.02302474 Ry
     ewald contribution        =    -845.62412995 Ry
     Dispersion Correction     =      -0.52065541 Ry
     one-center paw contrib.   =    -629.79973197 Ry

     convergence has been achieved in  14 iterations

     Forces acting on atoms (cartesian axes, Ry/au):

     atom    1 type  2   force =    -0.00033829    0.00016696    0.00007504
     atom    2 type  2   force =     0.00033829    0.00016696   -0.00007504
     atom    3 type  2   force =     0.00033829   -0.00016696   -0.00007504
     atom    4 type  2   force =    -0.00033829   -0.00016696    0.00007504
     atom    5 type  4   force =    -0.00011214   -0.00068289   -0.00102169
     atom    6 type  4   force =     0.00011214   -0.00068289    0.00102169
     atom    7 type  4   force =     0.00011214    0.00068289    0.00102169
     atom    8 type  4   force =    -0.00011214    0.00068289   -0.00102169
     atom    9 type  4   force =     0.00011691    0.00080455   -0.00020878
     atom   10 type  4   force =    -0.00011691    0.00080455    0.00020878
     atom   11 type  4   force =    -0.00011691   -0.00080455    0.00020878
     atom   12 type  4   force =     0.00011691   -0.00080455   -0.00020878
     atom   13 type  4   force =     0.00107269   -0.00027623    0.00004994
     atom   14 type  4   force =    -0.00107269   -0.00027623   -0.00004994
     atom   15 type  4   force =    -0.00107269    0.00027623   -0.00004994
     atom   16 type  4   force =     0.00107269    0.00027623    0.00004994
     atom   17 type  2   force =     0.00048396    0.00057422   -0.00091694
     atom   18 type  2   force =    -0.00048396    0.00057422    0.00091694
     atom   19 type  2   force =    -0.00048396   -0.00057422    0.00091694
     atom   20 type  2   force =     0.00048396   -0.00057422   -0.00091694
     atom   21 type  4   force =    -0.00016806   -0.00038659    0.00197141
     atom   22 type  4   force =     0.00016806   -0.00038659   -0.00197141
     atom   23 type  4   force =     0.00016806    0.00038659   -0.00197141
     atom   24 type  4   force =    -0.00016806    0.00038659    0.00197141
     atom   25 type  4   force =    -0.00045749    0.00001406    0.00039969
     atom   26 type  4   force =     0.00045749    0.00001406   -0.00039969
     atom   27 type  4   force =     0.00045749   -0.00001406   -0.00039969
     atom   28 type  4   force =    -0.00045749   -0.00001406    0.00039969
     atom   29 type  4   force =    -0.00035595    0.00026572   -0.00034724
     atom   30 type  4   force =     0.00035595    0.00026572    0.00034724
     atom   31 type  4   force =     0.00035595   -0.00026572    0.00034724
     atom   32 type  4   force =    -0.00035595   -0.00026572   -0.00034724
     atom   33 type  2   force =    -0.00051620    0.00041258   -0.00203163
     atom   34 type  2   force =     0.00051620    0.00041258    0.00203163
     atom   35 type  2   force =     0.00051620   -0.00041258    0.00203163
     atom   36 type  2   force =    -0.00051620   -0.00041258   -0.00203163
     atom   37 type  2   force =     0.00064016   -0.00018699    0.00040377
     atom   38 type  2   force =    -0.00064016   -0.00018699   -0.00040377
     atom   39 type  2   force =    -0.00064016    0.00018699   -0.00040377
     atom   40 type  2   force =     0.00064016    0.00018699    0.00040377
     atom   41 type  2   force =     0.00004950   -0.00042859    0.00081699
     atom   42 type  2   force =    -0.00004950   -0.00042859   -0.00081699
     atom   43 type  2   force =    -0.00004950    0.00042859   -0.00081699
     atom   44 type  2   force =     0.00004950    0.00042859    0.00081699
     atom   45 type  4   force =    -0.00054751   -0.00003720   -0.00045259
     atom   46 type  4   force =     0.00054751   -0.00003720    0.00045259
     atom   47 type  4   force =     0.00054751    0.00003720    0.00045259
     atom   48 type  4   force =    -0.00054751    0.00003720   -0.00045259
     atom   49 type  4   force =    -0.00114971   -0.00005427   -0.00045121
     atom   50 type  4   force =     0.00114971   -0.00005427    0.00045121
     atom   51 type  4   force =     0.00114971    0.00005427    0.00045121
     atom   52 type  4   force =    -0.00114971    0.00005427   -0.00045121
     atom   53 type  1   force =     0.00106968    0.00126131   -0.00090494
     atom   54 type  1   force =    -0.00106968    0.00126131    0.00090494
     atom   55 type  1   force =    -0.00106968   -0.00126131    0.00090494
     atom   56 type  1   force =     0.00106968   -0.00126131   -0.00090494
     atom   57 type  1   force =    -0.00021243    0.00008440    0.00074301
     atom   58 type  1   force =     0.00021243    0.00008440   -0.00074301
     atom   59 type  1   force =     0.00021243   -0.00008440   -0.00074301
     atom   60 type  1   force =    -0.00021243   -0.00008440    0.00074301
     atom   61 type  1   force =     0.00134681   -0.00077412   -0.00172726
     atom   62 type  1   force =    -0.00134681   -0.00077412    0.00172726
     atom   63 type  1   force =    -0.00134681    0.00077412    0.00172726
     atom   64 type  1   force =     0.00134681    0.00077412   -0.00172726
     atom   65 type  1   force =    -0.00146600   -0.00007966    0.00141571
     atom   66 type  1   force =     0.00146600   -0.00007966   -0.00141571
     atom   67 type  1   force =     0.00146600    0.00007966   -0.00141571
     atom   68 type  1   force =    -0.00146600    0.00007966    0.00141571
     atom   69 type  1   force =    -0.00007626    0.00052957   -0.00032037
     atom   70 type  1   force =     0.00007626    0.00052957    0.00032037
     atom   71 type  1   force =     0.00007626   -0.00052957    0.00032037
     atom   72 type  1   force =    -0.00007626   -0.00052957   -0.00032037
     atom   73 type  1   force =     0.00069985   -0.00033447   -0.00091526
     atom   74 type  1   force =    -0.00069985   -0.00033447    0.00091526
     atom   75 type  1   force =    -0.00069985    0.00033447    0.00091526
     atom   76 type  1   force =     0.00069985    0.00033447   -0.00091526
     atom   77 type  3   force =    -0.00104575   -0.00040687   -0.00005273
     atom   78 type  3   force =     0.00104575   -0.00040687    0.00005273
     atom   79 type  3   force =     0.00104575    0.00040687    0.00005273
     atom   80 type  3   force =    -0.00104575    0.00040687   -0.00005273
     atom   81 type  3   force =     0.00027815   -0.00023718    0.00037040
     atom   82 type  3   force =    -0.00027815   -0.00023718   -0.00037040
     atom   83 type  3   force =    -0.00027815    0.00023718   -0.00037040
     atom   84 type  3   force =     0.00027815    0.00023718    0.00037040
     atom   85 type  3   force =     0.00066238    0.00007682   -0.00004999
     atom   86 type  3   force =    -0.00066238    0.00007682    0.00004999
     atom   87 type  3   force =    -0.00066238   -0.00007682    0.00004999
     atom   88 type  3   force =     0.00066238   -0.00007682   -0.00004999
     atom   89 type  3   force =     0.00020549   -0.00030319   -0.00066466
     atom   90 type  3   force =    -0.00020549   -0.00030319    0.00066466
     atom   91 type  3   force =    -0.00020549    0.00030319    0.00066466
     atom   92 type  3   force =     0.00020549    0.00030319   -0.00066466
     atom   93 type  3   force =     0.00006775    0.00068820    0.00017362
     atom   94 type  3   force =    -0.00006775    0.00068820   -0.00017362
     atom   95 type  3   force =    -0.00006775   -0.00068820   -0.00017362
     atom   96 type  3   force =     0.00006775   -0.00068820    0.00017362
     atom   97 type  3   force =    -0.00081055   -0.00028009   -0.00015372
     atom   98 type  3   force =     0.00081055   -0.00028009    0.00015372
     atom   99 type  3   force =     0.00081055    0.00028009    0.00015372
     atom  100 type  3   force =    -0.00081055    0.00028009   -0.00015372
     atom  101 type  3   force =     0.00033858    0.00015325   -0.00019220
     atom  102 type  3   force =    -0.00033858    0.00015325    0.00019220
     atom  103 type  3   force =    -0.00033858   -0.00015325    0.00019220
     atom  104 type  3   force =     0.00033858   -0.00015325   -0.00019220
     atom  105 type  3   force =    -0.00142103    0.00015086   -0.00046993
     atom  106 type  3   force =     0.00142103    0.00015086    0.00046993
     atom  107 type  3   force =     0.00142103   -0.00015086    0.00046993
     atom  108 type  3   force =    -0.00142103   -0.00015086   -0.00046993
     atom  109 type  3   force =     0.00043036    0.00051543    0.00074850
     atom  110 type  3   force =    -0.00043036    0.00051543   -0.00074850
     atom  111 type  3   force =    -0.00043036   -0.00051543   -0.00074850
     atom  112 type  3   force =     0.00043036   -0.00051543    0.00074850
     atom  113 type  3   force =     0.00001842    0.00004375    0.00048666
     atom  114 type  3   force =    -0.00001842    0.00004375   -0.00048666
     atom  115 type  3   force =    -0.00001842   -0.00004375   -0.00048666
     atom  116 type  3   force =     0.00001842   -0.00004375    0.00048666
     atom  117 type  3   force =     0.00102433    0.00048856   -0.00098886
     atom  118 type  3   force =    -0.00102433    0.00048856    0.00098886
     atom  119 type  3   force =    -0.00102433   -0.00048856    0.00098886
     atom  120 type  3   force =     0.00102433   -0.00048856   -0.00098886

     Total force =     0.013136     Total SCF correction =     0.000108


     Computing stress (Cartesian axis) and pressure

          total   stress  (Ry/bohr**3)                   (kbar)     P=   -0.30
  -0.00000154   0.00000000  -0.00001970         -0.23      0.00     -2.90
   0.00000000  -0.00000806   0.00000000          0.00     -1.19      0.00
  -0.00001970   0.00000000   0.00000344         -2.90      0.00      0.51


     Writing output data file scf.save
 
     init_run     :     92.69s CPU     94.87s WALL (       1 calls)
     electrons    :   3048.08s CPU   3127.17s WALL (       1 calls)
     forces       :     46.25s CPU     46.55s WALL (       1 calls)
     stress       :    219.10s CPU    219.61s WALL (       1 calls)

     Called by init_run:
     wfcinit      :     79.52s CPU     81.52s WALL (       1 calls)
     potinit      :      4.70s CPU      4.73s WALL (       1 calls)

     Called by electrons:
     c_bands      :   2756.73s CPU   2824.32s WALL (      14 calls)
     sum_band     :    274.93s CPU    284.78s WALL (      14 calls)
     v_of_rho     :      2.60s CPU      2.79s WALL (      15 calls)
     newd         :      6.33s CPU      7.74s WALL (      15 calls)
     PAW_pot      :      7.09s CPU      7.09s WALL (      15 calls)
     mix_rho      :      0.50s CPU      0.54s WALL (      14 calls)

     Called by c_bands:
     init_us_2    :      9.65s CPU      9.70s WALL (     248 calls)
     cegterg      :   2707.34s CPU   2774.82s WALL (     112 calls)

     Called by sum_band:
     sum_band:bec :      0.13s CPU      0.13s WALL (     112 calls)
     addusdens    :      6.25s CPU      7.58s WALL (      14 calls)

     Called by *egterg:
     h_psi        :   1397.41s CPU   1446.56s WALL (     674 calls)
     s_psi        :    313.41s CPU    313.45s WALL (     674 calls)
     g_psi        :      5.02s CPU      5.02s WALL (     554 calls)
     cdiaghg      :    191.79s CPU    191.78s WALL (     666 calls)

     Called by h_psi:
     h_psi:pot    :   1390.38s CPU   1439.35s WALL (     674 calls)
     h_psi:calbec :    328.33s CPU    328.88s WALL (     674 calls)
     vloc_psi     :    748.84s CPU    797.23s WALL (     674 calls)
     add_vuspsi   :    313.20s CPU    313.23s WALL (     674 calls)

     General routines
     calbec       :    501.97s CPU    502.81s WALL (     826 calls)
     fft          :      4.92s CPU      5.25s WALL (     219 calls)
     fftw         :    826.83s CPU    883.41s WALL (  189882 calls)
 
     Parallel routines
     fft_scatter  :    283.64s CPU    340.04s WALL (  190101 calls)
 
     PWSCF        :     0h57m CPU        1h 0m WALL

 
   This run was terminated on:   0:27:39   8Dec2017            

=------------------------------------------------------------------------------=
   JOB DONE.
=------------------------------------------------------------------------------=
