
     Program PWSCF v.6.1 (svn rev. 13369) starts on 12Nov2017 at 12: 4:42 

     This program is part of the open-source Quantum ESPRESSO suite
     for quantum simulation of materials; please cite
         "P. Giannozzi et al., J. Phys.:Condens. Matter 21 395502 (2009);
          URL http://www.quantum-espresso.org", 
     in publications or presentations arising from this work. More details at
     http://www.quantum-espresso.org/quote

     Parallel version (MPI), running on     8 processors
     R & G space division:  proc/nbgrp/npool/nimage =       8
     Waiting for input...
     Reading input from standard input

     Current dimensions of program PWSCF are:
     Max number of different atomic species (ntypx) = 10
     Max number of k-points (npk) =  40000
     Max angular momentum in pseudopotentials (lmaxx) =  3
               file C.pbe-n-kjpaw_psl.0.1.UPF: wavefunction(s)  2P renormalized
               file N.pbe-n-kjpaw_psl.0.1.UPF: wavefunction(s)  2P renormalized
               file H.pbe-kjpaw_psl.0.1.UPF: wavefunction(s)  1S renormalized
               file O.pbe-n-kjpaw_psl.0.1.UPF: wavefunction(s)  2P renormalized

     -------------------------------------
     Parameters for Dispersion Correction:
     -------------------------------------
       atom      VdW radius       C_6     

        C          2.744         60.710
        N          2.640         42.670
        H          1.892          4.857
        O          2.536         24.284

     Subspace diagonalization in iterative solution of the eigenvalue problem:
     a serial algorithm will be used

 
     Parallelization info
     --------------------
     sticks:   dense  smooth     PW     G-vecs:    dense   smooth      PW
     Min        1191    1191    311               121246   121246   16198
     Max        1192    1192    313               121249   121249   16199
     Sum        9529    9529   2493               969983   969983  129585
 


     bravais-lattice index     =            0
     lattice parameter (alat)  =      14.9817  a.u.
     unit-cell volume          =    7179.1545 (a.u.)^3
     number of atoms/cell      =          108
     number of atomic types    =            4
     number of electrons       =       328.00
     number of Kohn-Sham states=          196
     kinetic-energy cutoff     =     100.0000  Ry
     charge density cutoff     =     400.0000  Ry
     convergence threshold     =      1.0E-08
     mixing beta               =       0.5000
     number of iterations used =            8  plain     mixing
     Exchange-correlation      =  SLA  PW   PBX  PBC ( 1  4  3  4 0 0)

     celldm(1)=  14.981749  celldm(2)=   0.000000  celldm(3)=   0.000000
     celldm(4)=   0.000000  celldm(5)=   0.000000  celldm(6)=   0.000000

     crystal axes: (cart. coord. in units of alat)
               a(1) = (   1.000000   0.000000   0.000000 )  
               a(2) = (   0.000000   1.333249   0.000000 )  
               a(3) = (  -0.624001   0.000000   1.601306 )  

     reciprocal axes: (cart. coord. in units 2 pi/alat)
               b(1) = (  1.000000  0.000000  0.389683 )  
               b(2) = (  0.000000  0.750047  0.000000 )  
               b(3) = (  0.000000  0.000000  0.624490 )  


     PseudoPot. # 1 for  C read from file:
     /scratch/ahofstet/pseudo/C.pbe-n-kjpaw_psl.0.1.UPF
     MD5 check sum: 430fe95172b1e11ef3f8ed03bac87931
     Pseudo is Projector augmented-wave + core cor, Zval =  4.0
     Generated using "atomic" code by A. Dal Corso  v.5.0.99 svn rev. 10869
     Shape of augmentation charge: BESSEL
     Using radial grid of 1073 points,  4 beta functions with: 
                l(1) =   0
                l(2) =   0
                l(3) =   1
                l(4) =   1
     Q(r) pseudized with 0 coefficients 


     PseudoPot. # 2 for  N read from file:
     /scratch/ahofstet/pseudo/N.pbe-n-kjpaw_psl.0.1.UPF
     MD5 check sum: f73187c8b701007e77325f868c9291d7
     Pseudo is Projector augmented-wave + core cor, Zval =  5.0
     Generated using "atomic" code by A. Dal Corso  v.5.0.99 svn rev. 10869
     Shape of augmentation charge: PSQ
     Using radial grid of 1085 points,  4 beta functions with: 
                l(1) =   0
                l(2) =   0
                l(3) =   1
                l(4) =   1
     Q(r) pseudized with 0 coefficients 


     PseudoPot. # 3 for  H read from file:
     /scratch/ahofstet/pseudo/H.pbe-kjpaw_psl.0.1.UPF
     MD5 check sum: 94e484f906d9e9773b2f6e52662335b2
     Pseudo is Projector augmented-wave, Zval =  1.0
     Generated using "atomic" code by A. Dal Corso  v.5.0.99 svn rev. 10869
     Shape of augmentation charge: PSQ
     Using radial grid of  929 points,  2 beta functions with: 
                l(1) =   0
                l(2) =   0
     Q(r) pseudized with 0 coefficients 


     PseudoPot. # 4 for  O read from file:
     /scratch/ahofstet/pseudo/O.pbe-n-kjpaw_psl.0.1.UPF
     MD5 check sum: 3f94a2996a3169367d6eb21d9b593f20
     Pseudo is Projector augmented-wave + core cor, Zval =  6.0
     Generated using "atomic" code by A. Dal Corso  v.5.0.99 svn rev. 10869
     Shape of augmentation charge: BESSEL
     Using radial grid of 1095 points,  4 beta functions with: 
                l(1) =   0
                l(2) =   0
                l(3) =   1
                l(4) =   1
     Q(r) pseudized with 0 coefficients 


     atomic species   valence    mass     pseudopotential
        C              4.00    12.01070      C( 1.00)
        N              5.00    14.00670      N( 1.00)
        H              1.00     1.00794      H( 1.00)
        O              6.00    15.99940      O( 1.00)

      4 Sym. Ops., with inversion, found ( 2 have fractional translation)



   Cartesian axes

     site n.     atom                  positions (alat units)
         1           N   tau(   1) = (   0.0607150   0.1522534   0.9826325  )
         2           N   tau(   2) = (   0.0032831   0.8188781   1.4193270  )
         3           N   tau(   3) = (   0.3152837   1.1809958   0.6186739  )
         4           N   tau(   4) = (   0.3727156   0.5143712   0.1819793  )
         5           N   tau(   5) = (   0.0414213   1.3154433   0.9717750  )
         6           N   tau(   6) = (   0.0225767   0.6488187   1.4301845  )
         7           N   tau(   7) = (   0.3345774   0.0178060   0.6295314  )
         8           N   tau(   8) = (   0.3534220   0.6844306   0.1711218  )
         9           C   tau(   9) = (   0.1832256   1.2532655   1.0383717  )
        10           C   tau(  10) = (  -0.1192275   0.5866409   1.3635878  )
        11           C   tau(  11) = (   0.1927731   0.0799837   0.5629346  )
        12           C   tau(  12) = (   0.4952262   0.7466083   0.2377185  )
        13           C   tau(  13) = (   0.2953480   0.0491706   1.0934640  )
        14           C   tau(  14) = (  -0.2313499   0.7157952   1.3084955  )
        15           C   tau(  15) = (   0.0806507   1.2840786   0.5078424  )
        16           C   tau(  16) = (   0.6073486   0.6174540   0.2928108  )
        17           C   tau(  17) = (   0.2132635   0.1979894   1.0560526  )
        18           C   tau(  18) = (  -0.1492654   0.8646140   1.3459069  )
        19           C   tau(  19) = (   0.1627352   1.1352599   0.5452537  )
        20           C   tau(  20) = (   0.5252641   0.4686352   0.2553994  )
        21           C   tau(  21) = (  -0.0671186   0.2614098   0.9199407  )
        22           C   tau(  22) = (   0.1311166   0.9280344   1.4820188  )
        23           C   tau(  23) = (   0.4431173   1.0718395   0.6813656  )
        24           C   tau(  24) = (   0.2448820   0.4052148   0.1192876  )
        25           C   tau(  25) = (   0.6648827   0.2715018   0.7954376  )
        26           C   tau(  26) = (   0.0231166   0.9381264   0.0052155  )
        27           C   tau(  27) = (  -0.2888840   1.0617475   0.8058687  )
        28           C   tau(  28) = (   0.3528821   0.3951229   1.5960908  )
        29           C   tau(  29) = (   0.2123148   1.0694347   1.0474160  )
        30           C   tau(  30) = (  -0.1483168   0.4028101   1.3545435  )
        31           C   tau(  31) = (   0.1636839   0.2638145   0.5538903  )
        32           C   tau(  32) = (   0.5243155   0.9304391   0.2467628  )
        33           C   tau(  33) = (   0.1074796   0.7982869   0.9869457  )
        34           C   tau(  34) = (  -0.0434816   0.1316623   1.4150138  )
        35           C   tau(  35) = (   0.2685191   0.5349623   0.6143606  )
        36           C   tau(  36) = (   0.4194803   1.2015869   0.1862926  )
        37           C   tau(  37) = (   0.4650881   0.0375685   1.1737659  )
        38           C   tau(  38) = (  -0.4010900   0.7041931   1.2281936  )
        39           C   tau(  39) = (  -0.0890894   1.2956808   0.4275404  )
        40           C   tau(  40) = (   0.7770887   0.6290561   0.3731128  )
        41           C   tau(  41) = (   0.2756970   0.3712929   1.0906209  )
        42           C   tau(  42) = (  -0.2116990   1.0379175   1.3113386  )
        43           C   tau(  43) = (   0.1003016   0.9619564   0.5106854  )
        44           C   tau(  44) = (   0.5876977   0.2953317   0.2899678  )
        45           O   tau(  45) = (   0.3409576   1.0053513   1.1035622  )
        46           O   tau(  46) = (  -0.2769595   0.3387267   1.2983973  )
        47           O   tau(  47) = (   0.0350411   0.3278979   0.4977441  )
        48           O   tau(  48) = (   0.6529582   0.9945225   0.3029090  )
        49           O   tau(  49) = (   0.0815783   0.9787719   0.9855545  )
        50           O   tau(  50) = (  -0.0175803   0.3121473   1.4164050  )
        51           O   tau(  51) = (   0.2944204   0.3544773   0.6157518  )
        52           O   tau(  52) = (   0.3935789   1.0211020   0.1849014  )
        53           O   tau(  53) = (  -0.0519394   0.4139753   0.9149548  )
        54           O   tau(  54) = (   0.1159374   1.0805999   1.4870047  )
        55           O   tau(  55) = (   0.4279380   0.9192740   0.6863515  )
        56           O   tau(  56) = (   0.2600613   0.2526493   0.1143016  )
        57           O   tau(  57) = (  -0.2003644   0.1723319   0.8696350  )
        58           O   tau(  58) = (   0.2643624   0.8389565   1.5323245  )
        59           O   tau(  59) = (   0.5763631   1.1609174   0.7316714  )
        60           O   tau(  60) = (   0.1116363   0.4942928   0.0689818  )
        61           H   tau(  61) = (   0.5657206   0.1810396   0.7632001  )
        62           H   tau(  62) = (   0.1222788   0.8476642   0.0374531  )
        63           H   tau(  63) = (  -0.1897219   1.1522097   0.8381062  )
        64           H   tau(  64) = (   0.2537199   0.4855850   1.5638533  )
        65           H   tau(  65) = (   0.7125042   0.3360659   0.6825160  )
        66           H   tau(  66) = (  -0.0245048   1.0026905   0.1181371  )
        67           H   tau(  67) = (  -0.3365055   0.9971834   0.9187903  )
        68           H   tau(  68) = (   0.4005035   0.3305588   1.4831692  )
        69           H   tau(  69) = (   0.6206236   0.3654983   0.8870465  )
        70           H   tau(  70) = (  -0.5566255   1.0321229   1.5149130  )
        71           H   tau(  71) = (  -0.2446249   0.9677510   0.7142599  )
        72           H   tau(  72) = (   0.9326242   0.3011264   0.0863933  )
        73           H   tau(  73) = (  -0.0066366   0.7429849   0.9326252  )
        74           H   tau(  74) = (   0.0706346   0.0763603   1.4693342  )
        75           H   tau(  75) = (   0.3826352   0.5902643   0.6686811  )
        76           H   tau(  76) = (   0.3053641   1.2568890   0.1319721  )
        77           H   tau(  77) = (   0.1259182   0.7527532   1.1163842  )
        78           H   tau(  78) = (  -0.0619202   0.0861286   1.2855753  )
        79           H   tau(  79) = (   0.2500805   0.5804960   0.4849221  )
        80           H   tau(  80) = (   0.4379189   1.2471207   0.3157311  )
        81           H   tau(  81) = (   0.2191389   0.7663575   0.9115311  )
        82           H   tau(  82) = (  -0.1551408   0.0997329   1.4904284  )
        83           H   tau(  83) = (   0.1568598   0.5668917   0.6897752  )
        84           H   tau(  84) = (   0.5311395   1.2335164   0.1108780  )
        85           H   tau(  85) = (   0.4939982   1.2403981   1.2079742  )
        86           H   tau(  86) = (  -0.4300002   0.5737735   1.1939853  )
        87           H   tau(  87) = (  -0.1179995   0.0928511   0.3933321  )
        88           H   tau(  88) = (   0.8059989   0.7594758   0.4073210  )
        89           H   tau(  89) = (   0.4731559   0.1179072   1.2866109  )
        90           H   tau(  90) = (  -0.4091579   0.7845318   1.1153486  )
        91           H   tau(  91) = (  -0.0971572   1.2153421   0.3146954  )
        92           H   tau(  92) = (   0.7851566   0.5487175   0.4859577  )
        93           H   tau(  93) = (   0.5640160   0.0827180   1.0873930  )
        94           H   tau(  94) = (  -0.5000180   0.7493427   1.3145665  )
        95           H   tau(  95) = (  -0.1880173   1.2505312   0.5139134  )
        96           H   tau(  96) = (   0.8760167   0.5839066   0.2867398  )
        97           H   tau(  97) = (   0.1959527   0.4682782   1.0348948  )
        98           H   tau(  98) = (  -0.1319547   1.1349029   1.3670647  )
        99           H   tau(  99) = (   0.1800460   0.8649710   0.5664115  )
       100           H   tau( 100) = (   0.5079534   0.1983464   0.2342417  )
       101           H   tau( 101) = (   0.4045021   0.3835510   1.0408700  )
       102           H   tau( 102) = (  -0.3405040   1.0501756   1.3610895  )
       103           H   tau( 103) = (  -0.0285034   0.9496983   0.5604363  )
       104           H   tau( 104) = (   0.7165027   0.2830736   0.2402169  )
       105           H   tau( 105) = (   0.2824041   0.3929264   1.2275408  )
       106           H   tau( 106) = (  -0.2184060   1.0595511   1.1744187  )
       107           H   tau( 107) = (   0.0935946   0.9403228   0.3737655  )
       108           H   tau( 108) = (   0.5944047   0.2736982   0.4268877  )

     number of k points=     8
                       cart. coord. in units 2pi/alat
        k(    1) = (   0.0000000   0.0000000   0.0000000), wk =   0.1666667
        k(    2) = (   0.0000000   0.0000000  -0.3122451), wk =   0.1666667
        k(    3) = (   0.0000000  -0.3750237   0.0000000), wk =   0.1666667
        k(    4) = (   0.0000000  -0.3750237  -0.3122451), wk =   0.1666667
        k(    5) = (   0.3333333   0.0000000   0.1298942), wk =   0.3333333
        k(    6) = (   0.3333333   0.0000000  -0.1823508), wk =   0.3333333
        k(    7) = (   0.3333333  -0.3750237   0.1298942), wk =   0.3333333
        k(    8) = (   0.3333333  -0.3750237  -0.1823508), wk =   0.3333333

     Dense  grid:   969983 G-vectors     FFT dimensions: (  96, 128, 180)

     Estimated max dynamical RAM per process >     997.66MB

     Estimated total allocated dynamical RAM >    7981.24MB

     Check: negative/imaginary core charge=   -0.000002    0.000000

     Initial potential from superposition of free atoms

     starting charge  327.99796, renormalised to  328.00000
     Starting wfc are  288 randomized atomic wfcs
     Checking if some PAW data can be deallocated... 

     total cpu time spent up to now is       61.8 secs

     per-process dynamical memory:   672.0 Mb

     Self-consistent Calculation

     iteration #  1     ecut=   100.00 Ry     beta=0.50
     Davidson diagonalization with overlap
     ethr =  1.00E-02,  avg # of iterations =  4.9

     total cpu time spent up to now is      250.7 secs

     total energy              =   -1611.03604738 Ry
     Harris-Foulkes estimate   =   -1616.93317437 Ry
     estimated scf accuracy    <      11.13749776 Ry

     iteration #  2     ecut=   100.00 Ry     beta=0.50
     Davidson diagonalization with overlap
     ethr =  3.40E-03,  avg # of iterations =  2.4

     total cpu time spent up to now is      344.8 secs

     total energy              =   -1611.87639510 Ry
     Harris-Foulkes estimate   =   -1612.70248547 Ry
     estimated scf accuracy    <       1.67612852 Ry

     iteration #  3     ecut=   100.00 Ry     beta=0.50
     Davidson diagonalization with overlap
     ethr =  5.11E-04,  avg # of iterations =  6.5

     total cpu time spent up to now is      540.2 secs

     total energy              =   -1612.96858163 Ry
     Harris-Foulkes estimate   =   -1613.47849653 Ry
     estimated scf accuracy    <       1.32821563 Ry

     iteration #  4     ecut=   100.00 Ry     beta=0.50
     Davidson diagonalization with overlap
     ethr =  4.05E-04,  avg # of iterations =  2.0

     total cpu time spent up to now is      629.0 secs

     total energy              =   -1612.88407364 Ry
     Harris-Foulkes estimate   =   -1613.07879125 Ry
     estimated scf accuracy    <       0.33184631 Ry

     iteration #  5     ecut=   100.00 Ry     beta=0.50
     Davidson diagonalization with overlap
     ethr =  1.01E-04,  avg # of iterations =  5.6

     total cpu time spent up to now is      823.9 secs

     total energy              =   -1613.09565401 Ry
     Harris-Foulkes estimate   =   -1613.20095620 Ry
     estimated scf accuracy    <       0.31628349 Ry

     iteration #  6     ecut=   100.00 Ry     beta=0.50
     Davidson diagonalization with overlap
     ethr =  9.64E-05,  avg # of iterations =  1.0

     total cpu time spent up to now is      909.7 secs

     total energy              =   -1613.04858897 Ry
     Harris-Foulkes estimate   =   -1613.10613404 Ry
     estimated scf accuracy    <       0.12634160 Ry

     iteration #  7     ecut=   100.00 Ry     beta=0.50
     Davidson diagonalization with overlap
     ethr =  3.85E-05,  avg # of iterations =  4.1

     total cpu time spent up to now is     1049.0 secs

     total energy              =   -1613.10183639 Ry
     Harris-Foulkes estimate   =   -1613.10288218 Ry
     estimated scf accuracy    <       0.00778565 Ry

     iteration #  8     ecut=   100.00 Ry     beta=0.50
     Davidson diagonalization with overlap
     ethr =  2.37E-06,  avg # of iterations = 12.1

     total cpu time spent up to now is     1178.4 secs

     total energy              =   -1613.09973403 Ry
     Harris-Foulkes estimate   =   -1613.10262725 Ry
     estimated scf accuracy    <       0.00584451 Ry

     iteration #  9     ecut=   100.00 Ry     beta=0.50
     Davidson diagonalization with overlap
     c_bands:  1 eigenvalues not converged
     ethr =  1.78E-06,  avg # of iterations =  6.8

     total cpu time spent up to now is     1288.0 secs

     total energy              =   -1613.10059130 Ry
     Harris-Foulkes estimate   =   -1613.10070317 Ry
     estimated scf accuracy    <       0.00033474 Ry

     iteration # 10     ecut=   100.00 Ry     beta=0.50
     Davidson diagonalization with overlap
     ethr =  1.02E-07,  avg # of iterations =  4.4

     total cpu time spent up to now is     1469.5 secs

     total energy              =   -1613.10096477 Ry
     Harris-Foulkes estimate   =   -1613.10103524 Ry
     estimated scf accuracy    <       0.00017183 Ry

     iteration # 11     ecut=   100.00 Ry     beta=0.50
     Davidson diagonalization with overlap
     ethr =  5.24E-08,  avg # of iterations =  2.0

     total cpu time spent up to now is     1557.8 secs

     total energy              =   -1613.10096703 Ry
     Harris-Foulkes estimate   =   -1613.10097799 Ry
     estimated scf accuracy    <       0.00003316 Ry

     iteration # 12     ecut=   100.00 Ry     beta=0.50
     Davidson diagonalization with overlap
     ethr =  1.01E-08,  avg # of iterations =  4.0

     total cpu time spent up to now is     1730.7 secs

     total energy              =   -1613.10098726 Ry
     Harris-Foulkes estimate   =   -1613.10099599 Ry
     estimated scf accuracy    <       0.00002355 Ry

     iteration # 13     ecut=   100.00 Ry     beta=0.50
     Davidson diagonalization with overlap
     ethr =  7.18E-09,  avg # of iterations =  1.0

     total cpu time spent up to now is     1816.3 secs

     total energy              =   -1613.10098521 Ry
     Harris-Foulkes estimate   =   -1613.10098855 Ry
     estimated scf accuracy    <       0.00000626 Ry

     iteration # 14     ecut=   100.00 Ry     beta=0.50
     Davidson diagonalization with overlap
     ethr =  1.91E-09,  avg # of iterations =  4.0

     total cpu time spent up to now is     1983.0 secs

     total energy              =   -1613.10098945 Ry
     Harris-Foulkes estimate   =   -1613.10099034 Ry
     estimated scf accuracy    <       0.00000372 Ry

     iteration # 15     ecut=   100.00 Ry     beta=0.50
     Davidson diagonalization with overlap
     ethr =  1.14E-09,  avg # of iterations =  1.0

     total cpu time spent up to now is     2068.7 secs

     total energy              =   -1613.10098849 Ry
     Harris-Foulkes estimate   =   -1613.10098953 Ry
     estimated scf accuracy    <       0.00000202 Ry

     iteration # 16     ecut=   100.00 Ry     beta=0.50
     Davidson diagonalization with overlap
     ethr =  6.16E-10,  avg # of iterations =  3.0

     total cpu time spent up to now is     2211.2 secs

     total energy              =   -1613.10098925 Ry
     Harris-Foulkes estimate   =   -1613.10098931 Ry
     estimated scf accuracy    <       0.00000020 Ry

     iteration # 17     ecut=   100.00 Ry     beta=0.50
     Davidson diagonalization with overlap
     ethr =  6.17E-11,  avg # of iterations =  1.2

     total cpu time spent up to now is     2297.0 secs

     total energy              =   -1613.10098923 Ry
     Harris-Foulkes estimate   =   -1613.10098926 Ry
     estimated scf accuracy    <       0.00000010 Ry

     iteration # 18     ecut=   100.00 Ry     beta=0.50
     Davidson diagonalization with overlap
     ethr =  2.92E-11,  avg # of iterations =  3.0

     total cpu time spent up to now is     2415.6 secs

     total energy              =   -1613.10098925 Ry
     Harris-Foulkes estimate   =   -1613.10098925 Ry
     estimated scf accuracy    <       0.00000001 Ry

     iteration # 19     ecut=   100.00 Ry     beta=0.50
     Davidson diagonalization with overlap
     ethr =  4.02E-12,  avg # of iterations =  4.0

     total cpu time spent up to now is     2518.8 secs

     End of self-consistent calculation

          k = 0.0000 0.0000 0.0000 (121263 PWs)   bands (ev):

   -22.4479 -22.4447 -22.4337 -22.4327 -21.7413 -21.7397 -21.7389 -21.7384
   -20.5399 -20.5348 -20.5130 -20.5084 -19.9474 -19.9466 -19.9366 -19.9360
   -19.4436 -19.4435 -19.4435 -19.4428 -15.3806 -15.3779 -15.3695 -15.3674
   -14.5175 -14.5169 -14.5017 -14.4901 -12.6293 -12.6006 -12.5790 -12.5581
   -12.2380 -12.2376 -12.2351 -12.2297 -11.7192 -11.7009 -11.6799 -11.6492
   -11.1267 -11.0566 -11.0221 -11.0016 -10.3845 -10.3798 -10.3257 -10.3256
    -8.7046  -8.6772  -8.6641  -8.6416  -7.8850  -7.8742  -7.8281  -7.8143
    -7.7272  -7.7199  -7.7161  -7.6933  -7.2289  -7.2011  -7.1470  -7.1350
    -6.8559  -6.6179  -6.5816  -6.5713  -6.5149  -6.5117  -6.5084  -6.4869
    -5.9788  -5.9695  -5.9116  -5.8456  -5.8364  -5.8128  -5.7610  -5.6721
    -5.5795  -5.5789  -5.5158  -5.4874  -5.4453  -5.4225  -5.2453  -5.1902
    -4.8030  -4.7827  -4.7747  -4.6753  -4.6512  -4.5301  -4.4624  -4.4534
    -4.3361  -4.2454  -4.2414  -4.1912  -4.1471  -4.0387  -4.0348  -4.0027
    -3.9816  -3.8960  -3.8429  -3.8414  -3.8266  -3.7695  -3.6740  -3.6655
    -3.6554  -3.5999  -3.5842  -3.5540  -3.5513  -3.5366  -3.5233  -3.3958
    -3.3897  -3.3622  -3.2820  -3.2412  -3.1764  -3.0987  -2.9735  -2.7898
    -2.7778  -2.7496  -2.6997  -2.6835  -2.5037  -2.4815  -2.4397  -2.4330
    -1.6284  -1.6234  -1.6220  -1.6036  -1.4540  -1.4294  -1.3801  -1.3629
    -1.3391  -1.3309  -1.2977  -1.2846  -0.9266  -0.9213  -0.8635  -0.8299
    -0.7998  -0.7569  -0.7204  -0.6637  -0.5405  -0.5350  -0.4998  -0.4910
    -0.0521   0.0199   0.1586   0.1795   3.3363   3.4672   3.5488   3.6504
     4.7424   4.8360   4.8732   4.9045   5.4662   5.9441   6.1819   6.2152
     6.2575   6.2884   6.2904   6.6964   6.7440   6.7874   6.7972   6.9972
     7.0345   7.0848   7.1131   7.1673   7.3181   7.4130   7.4608   7.5652
     7.5975   7.6909   7.7661   7.8347

          k = 0.0000 0.0000-0.3122 (121226 PWs)   bands (ev):

   -22.4464 -22.4464 -22.4331 -22.4331 -21.7406 -21.7406 -21.7386 -21.7386
   -20.5376 -20.5376 -20.5105 -20.5105 -19.9471 -19.9471 -19.9363 -19.9363
   -19.4436 -19.4436 -19.4431 -19.4431 -15.3794 -15.3794 -15.3683 -15.3683
   -14.5176 -14.5176 -14.4955 -14.4955 -12.6184 -12.6184 -12.5650 -12.5650
   -12.2385 -12.2385 -12.2318 -12.2318 -11.7021 -11.7021 -11.6742 -11.6742
   -11.0920 -11.0920 -11.0099 -11.0099 -10.3821 -10.3821 -10.3258 -10.3257
    -8.6940  -8.6940  -8.6500  -8.6500  -7.8795  -7.8795  -7.8217  -7.8217
    -7.7257  -7.7257  -7.7022  -7.7022  -7.2160  -7.2160  -7.1404  -7.1404
    -6.7627  -6.7627  -6.5485  -6.5485  -6.5246  -6.5246  -6.4985  -6.4985
    -5.9354  -5.9354  -5.8954  -5.8954  -5.8418  -5.8418  -5.7005  -5.7005
    -5.5640  -5.5640  -5.5292  -5.5292  -5.4226  -5.4226  -5.2335  -5.2335
    -4.7870  -4.7870  -4.7420  -4.7420  -4.5927  -4.5927  -4.4415  -4.4415
    -4.3096  -4.3096  -4.1937  -4.1937  -4.1357  -4.1357  -3.9800  -3.9800
    -3.9147  -3.9147  -3.8570  -3.8570  -3.8110  -3.8110  -3.6540  -3.6540
    -3.6295  -3.6295  -3.5647  -3.5647  -3.5535  -3.5535  -3.4578  -3.4578
    -3.3832  -3.3832  -3.2202  -3.2202  -3.1952  -3.1952  -2.8658  -2.8658
    -2.7624  -2.7624  -2.6878  -2.6878  -2.4958  -2.4958  -2.4333  -2.4333
    -1.6264  -1.6264  -1.6126  -1.6126  -1.4364  -1.4364  -1.3887  -1.3887
    -1.3209  -1.3209  -1.2948  -1.2948  -0.9224  -0.9224  -0.8464  -0.8464
    -0.7786  -0.7786  -0.6939  -0.6939  -0.5379  -0.5379  -0.4953  -0.4953
    -0.0156  -0.0156   0.1696   0.1696   3.3849   3.3849   3.6168   3.6168
     4.7797   4.7797   4.8974   4.8974   5.7195   5.7195   6.2263   6.2263
     6.2519   6.2519   6.4011   6.4011   6.5895   6.5895   6.9789   6.9789
     7.1703   7.1703   7.2484   7.2484   7.2762   7.2762   7.5374   7.5374
     7.6868   7.6869   7.8283   7.8289

          k = 0.0000-0.3750 0.0000 (121188 PWs)   bands (ev):

   -22.4462 -22.4462 -22.4332 -22.4332 -21.7412 -21.7412 -21.7383 -21.7383
   -20.5373 -20.5373 -20.5107 -20.5107 -19.9469 -19.9469 -19.9361 -19.9361
   -19.4437 -19.4437 -19.4430 -19.4430 -15.3806 -15.3806 -15.3690 -15.3690
   -14.5170 -14.5170 -14.4949 -14.4949 -12.5832 -12.5832 -12.5661 -12.5661
   -12.3054 -12.3054 -12.2521 -12.2521 -11.6702 -11.6702 -11.6210 -11.6210
   -11.0903 -11.0903 -11.0445 -11.0445 -10.3584 -10.3584 -10.3331 -10.3331
    -8.6638  -8.6638  -8.6516  -8.6516  -7.9692  -7.9692  -7.8352  -7.8352
    -7.7623  -7.7623  -7.6741  -7.6741  -7.2352  -7.2352  -7.1664  -7.1664
    -6.7607  -6.7607  -6.5302  -6.5302  -6.4424  -6.4424  -6.4385  -6.4385
    -5.9838  -5.9838  -5.8744  -5.8744  -5.8040  -5.8040  -5.7830  -5.7830
    -5.5139  -5.5139  -5.5007  -5.5007  -5.3630  -5.3630  -5.3304  -5.3304
    -4.8840  -4.8840  -4.7463  -4.7463  -4.5457  -4.5457  -4.4454  -4.4454
    -4.2408  -4.2408  -4.1683  -4.1683  -4.1050  -4.1050  -4.0193  -4.0193
    -3.9545  -3.9545  -3.8523  -3.8523  -3.7712  -3.7712  -3.7362  -3.7362
    -3.6182  -3.6182  -3.5595  -3.5595  -3.4725  -3.4725  -3.4120  -3.4120
    -3.3895  -3.3895  -3.2305  -3.2305  -3.1327  -3.1327  -2.8541  -2.8541
    -2.8357  -2.8357  -2.6749  -2.6749  -2.5482  -2.5482  -2.5313  -2.5313
    -1.6263  -1.6263  -1.6159  -1.6159  -1.4472  -1.4472  -1.3734  -1.3734
    -1.3471  -1.3471  -1.2609  -1.2609  -0.9126  -0.9126  -0.8453  -0.8453
    -0.7725  -0.7725  -0.6937  -0.6937  -0.5211  -0.5211  -0.5147  -0.5147
    -0.0147  -0.0147   0.1715   0.1715   3.4002   3.4002   3.5944   3.5944
     4.8074   4.8074   4.8709   4.8709   5.6416   5.6416   6.1992   6.1992
     6.2589   6.2589   6.6108   6.6108   6.7019   6.7019   6.8937   6.8937
     7.1287   7.1287   7.2904   7.2904   7.4204   7.4204   7.5216   7.5216
     7.6951   7.6951   7.8763   7.8765

          k = 0.0000-0.3750-0.3122 (121200 PWs)   bands (ev):

   -22.4462 -22.4462 -22.4332 -22.4332 -21.7411 -21.7411 -21.7384 -21.7384
   -20.5373 -20.5373 -20.5107 -20.5107 -19.9469 -19.9469 -19.9361 -19.9361
   -19.4436 -19.4436 -19.4431 -19.4431 -15.3805 -15.3805 -15.3690 -15.3690
   -14.5167 -14.5167 -14.4952 -14.4952 -12.5825 -12.5825 -12.5669 -12.5669
   -12.3047 -12.3047 -12.2528 -12.2528 -11.6551 -11.6551 -11.6378 -11.6378
   -11.0745 -11.0745 -11.0585 -11.0585 -10.3585 -10.3585 -10.3332 -10.3332
    -8.6615  -8.6615  -8.6538  -8.6538  -7.9685  -7.9685  -7.8366  -7.8366
    -7.7620  -7.7620  -7.6743  -7.6743  -7.2353  -7.2353  -7.1660  -7.1660
    -6.7332  -6.7332  -6.5696  -6.5696  -6.4435  -6.4435  -6.4429  -6.4429
    -5.9304  -5.9304  -5.8963  -5.8963  -5.8165  -5.8165  -5.7784  -5.7784
    -5.5063  -5.5063  -5.4938  -5.4938  -5.3574  -5.3574  -5.3573  -5.3573
    -4.8947  -4.8947  -4.7435  -4.7435  -4.5353  -4.5353  -4.4472  -4.4472
    -4.2178  -4.2178  -4.2003  -4.2003  -4.0720  -4.0720  -4.0618  -4.0618
    -3.9037  -3.9037  -3.8923  -3.8923  -3.7666  -3.7666  -3.7510  -3.7510
    -3.6229  -3.6229  -3.5646  -3.5646  -3.4407  -3.4407  -3.4138  -3.4138
    -3.3160  -3.3160  -3.3042  -3.3042  -3.1289  -3.1289  -2.8855  -2.8855
    -2.7963  -2.7963  -2.6923  -2.6923  -2.5377  -2.5377  -2.5370  -2.5370
    -1.6266  -1.6266  -1.6162  -1.6162  -1.4326  -1.4326  -1.4063  -1.4063
    -1.3266  -1.3266  -1.2636  -1.2636  -0.9130  -0.9130  -0.8454  -0.8454
    -0.7700  -0.7700  -0.6961  -0.6961  -0.5191  -0.5191  -0.5164  -0.5164
    -0.0147  -0.0147   0.1716   0.1716   3.4005   3.4005   3.5944   3.5944
     4.8063   4.8063   4.8723   4.8723   5.7596   5.7596   6.1734   6.1734
     6.2417   6.2417   6.2622   6.2622   6.8116   6.8116   6.9703   6.9703
     7.2728   7.2728   7.2933   7.2933   7.4802   7.4802   7.4887   7.4887
     7.7019   7.7019   7.7864   7.7864

          k = 0.3333 0.0000 0.1299 (121202 PWs)   bands (ev):

   -22.4439 -22.4423 -22.4362 -22.4358 -21.7411 -21.7397 -21.7392 -21.7386
   -20.5395 -20.5348 -20.5147 -20.5100 -19.9451 -19.9451 -19.9380 -19.9378
   -19.4439 -19.4434 -19.4432 -19.4430 -15.3845 -15.3809 -15.3661 -15.3622
   -14.5066 -14.5036 -14.4932 -14.4853 -12.6239 -12.6164 -12.5921 -12.5920
   -12.2501 -12.2474 -12.2409 -12.2330 -11.7610 -11.7364 -11.7051 -11.6811
   -11.0520 -11.0068 -10.9736 -10.9619 -10.3873 -10.3791 -10.3303 -10.3296
    -8.6585  -8.6550  -8.6326  -8.6230  -7.8904  -7.8796  -7.8273  -7.8261
    -7.7547  -7.7507  -7.7343  -7.7286  -7.2251  -7.2144  -7.1354  -7.1338
    -6.9236  -6.6577  -6.6232  -6.5645  -6.5588  -6.5503  -6.4945  -6.4721
    -5.9914  -5.9269  -5.9253  -5.8575  -5.7941  -5.7671  -5.7517  -5.6627
    -5.5375  -5.5228  -5.4860  -5.4752  -5.4073  -5.3078  -5.1360  -5.1258
    -4.8103  -4.7730  -4.7445  -4.7024  -4.6418  -4.5524  -4.4495  -4.4261
    -4.3983  -4.3744  -4.3107  -4.2752  -4.2351  -4.1983  -4.1375  -4.0859
    -3.9669  -3.9248  -3.8975  -3.8560  -3.8346  -3.8095  -3.6656  -3.6558
    -3.6154  -3.6087  -3.5529  -3.5475  -3.5233  -3.5212  -3.4540  -3.4273
    -3.3646  -3.3543  -3.2306  -3.1963  -3.1070  -3.0377  -2.9493  -2.8784
    -2.7311  -2.7229  -2.6873  -2.6796  -2.5105  -2.5104  -2.4357  -2.4231
    -1.6215  -1.6064  -1.5982  -1.5947  -1.4349  -1.3882  -1.3862  -1.3645
    -1.3445  -1.3409  -1.2970  -1.2884  -0.9491  -0.9415  -0.8483  -0.8419
    -0.7819  -0.7401  -0.6996  -0.6496  -0.5401  -0.5399  -0.4950  -0.4877
    -0.0751   0.0270   0.1240   0.2058   3.3321   3.4771   3.5333   3.6628
     4.7302   4.7465   4.7983   4.8231   5.6904   6.0709   6.1547   6.3103
     6.3205   6.3286   6.3728   6.3998   6.6815   6.8109   6.8673   6.8741
     6.9992   7.0382   7.1834   7.1897   7.2671   7.3049   7.3851   7.5376
     7.6006   7.6640   7.6682   7.8981

          k = 0.3333 0.0000-0.1824 (121223 PWs)   bands (ev):

   -22.4440 -22.4419 -22.4372 -22.4352 -21.7405 -21.7403 -21.7389 -21.7388
   -20.5375 -20.5371 -20.5122 -20.5120 -19.9454 -19.9448 -19.9383 -19.9376
   -19.4438 -19.4435 -19.4433 -19.4430 -15.3837 -15.3821 -15.3651 -15.3629
   -14.5054 -14.5051 -14.4935 -14.4846 -12.6272 -12.6110 -12.5966 -12.5895
   -12.2491 -12.2489 -12.2412 -12.2320 -11.7808 -11.7042 -11.6993 -11.6986
   -11.0390 -11.0187 -10.9985 -10.9391 -10.3850 -10.3815 -10.3309 -10.3290
    -8.6623  -8.6463  -8.6366  -8.6239  -7.8854  -7.8848  -7.8275  -7.8259
    -7.7557  -7.7506  -7.7326  -7.7301  -7.2261  -7.2118  -7.1470  -7.1236
    -6.8267  -6.8045  -6.5991  -6.5755  -6.5562  -6.5289  -6.5082  -6.4645
    -5.9433  -5.9331  -5.9199  -5.8803  -5.7891  -5.7760  -5.7071  -5.6988
    -5.5517  -5.5234  -5.4786  -5.4365  -5.4354  -5.3410  -5.1616  -5.0698
    -4.7995  -4.7843  -4.7372  -4.7301  -4.6334  -4.5295  -4.4898  -4.4184
    -4.4151  -4.3697  -4.3188  -4.2770  -4.2344  -4.1678  -4.0478  -4.0444
    -4.0301  -3.9966  -3.8897  -3.8586  -3.8238  -3.8089  -3.6872  -3.6409
    -3.6356  -3.5821  -3.5496  -3.5478  -3.5457  -3.5307  -3.4481  -3.4428
    -3.3782  -3.3433  -3.1940  -3.1516  -3.1303  -3.0741  -2.9459  -2.8579
    -2.7664  -2.7086  -2.6831  -2.6760  -2.5197  -2.5013  -2.4300  -2.4296
    -1.6268  -1.6107  -1.5949  -1.5847  -1.4129  -1.4093  -1.3839  -1.3705
    -1.3453  -1.3389  -1.2962  -1.2943  -0.9521  -0.9367  -0.8535  -0.8313
    -0.7699  -0.7699  -0.6677  -0.6671  -0.5455  -0.5325  -0.4984  -0.4866
    -0.0398  -0.0265   0.1461   0.2010   3.3807   3.3833   3.6158   3.6254
     4.7182   4.7606   4.8033   4.8156   5.8457   5.9628   6.2697   6.3125
     6.3183   6.3201   6.3721   6.4171   6.4832   6.6474   6.7885   6.8528
     7.0297   7.0473   7.1250   7.2199   7.3851   7.4488   7.4843   7.5055
     7.5549   7.7187   7.7898   7.8361

          k = 0.3333-0.3750 0.1299 (121272 PWs)   bands (ev):

   -22.4429 -22.4429 -22.4361 -22.4361 -21.7410 -21.7410 -21.7385 -21.7385
   -20.5371 -20.5371 -20.5123 -20.5123 -19.9449 -19.9449 -19.9377 -19.9377
   -19.4437 -19.4437 -19.4431 -19.4431 -15.3839 -15.3839 -15.3648 -15.3648
   -14.5043 -14.5043 -14.4889 -14.4889 -12.5960 -12.5960 -12.5848 -12.5848
   -12.3077 -12.3077 -12.2616 -12.2616 -11.7036 -11.7036 -11.6572 -11.6572
   -11.0370 -11.0370 -10.9965 -10.9965 -10.3605 -10.3605 -10.3262 -10.3262
    -8.6423  -8.6423  -8.6262  -8.6262  -7.9448  -7.9448  -7.8658  -7.8658
    -7.7731  -7.7731  -7.7109  -7.7109  -7.2457  -7.2457  -7.1586  -7.1586
    -6.8209  -6.8209  -6.5488  -6.5488  -6.4667  -6.4667  -6.4352  -6.4352
    -5.9796  -5.9796  -5.8841  -5.8841  -5.7798  -5.7798  -5.7048  -5.7048
    -5.5307  -5.5307  -5.5021  -5.5021  -5.2853  -5.2853  -5.1962  -5.1962
    -4.8624  -4.8624  -4.7407  -4.7407  -4.5422  -4.5422  -4.4390  -4.4390
    -4.3974  -4.3974  -4.2821  -4.2821  -4.1603  -4.1603  -4.0753  -4.0753
    -3.9535  -3.9535  -3.9250  -3.9250  -3.7871  -3.7871  -3.7360  -3.7360
    -3.6072  -3.6072  -3.5790  -3.5790  -3.4276  -3.4276  -3.4107  -3.4107
    -3.2955  -3.2955  -3.1950  -3.1950  -3.1083  -3.1083  -2.8341  -2.8341
    -2.8062  -2.8062  -2.6913  -2.6913  -2.5653  -2.5653  -2.5301  -2.5301
    -1.6154  -1.6154  -1.5929  -1.5929  -1.4315  -1.4315  -1.3744  -1.3744
    -1.3405  -1.3405  -1.2682  -1.2682  -0.9356  -0.9356  -0.8444  -0.8444
    -0.7512  -0.7512  -0.6792  -0.6792  -0.5224  -0.5224  -0.5125  -0.5125
    -0.0198  -0.0198   0.1636   0.1636   3.4029   3.4029   3.5949   3.5949
     4.7584   4.7584   4.7918   4.7918   5.8335   5.8335   6.2801   6.2801
     6.2963   6.2963   6.3791   6.3791   6.7871   6.7871   6.8687   6.8687
     7.0534   7.0534   7.3360   7.3360   7.3921   7.3921   7.5272   7.5272
     7.6711   7.6711   7.8346   7.8346

          k = 0.3333-0.3750-0.1824 (121260 PWs)   bands (ev):

   -22.4429 -22.4429 -22.4361 -22.4361 -21.7409 -21.7409 -21.7386 -21.7386
   -20.5371 -20.5371 -20.5123 -20.5123 -19.9449 -19.9449 -19.9377 -19.9377
   -19.4436 -19.4436 -19.4432 -19.4432 -15.3839 -15.3839 -15.3648 -15.3648
   -14.5045 -14.5045 -14.4886 -14.4886 -12.5963 -12.5963 -12.5846 -12.5846
   -12.3078 -12.3078 -12.2614 -12.2614 -11.7061 -11.7061 -11.6544 -11.6544
   -11.0392 -11.0392 -10.9948 -10.9948 -10.3605 -10.3605 -10.3261 -10.3261
    -8.6424  -8.6424  -8.6262  -8.6262  -7.9444  -7.9444  -7.8665  -7.8665
    -7.7735  -7.7735  -7.7107  -7.7107  -7.2458  -7.2458  -7.1589  -7.1589
    -6.7866  -6.7866  -6.6008  -6.6008  -6.4677  -6.4677  -6.4344  -6.4344
    -5.9322  -5.9322  -5.9080  -5.9080  -5.7812  -5.7812  -5.7119  -5.7119
    -5.5258  -5.5258  -5.4931  -5.4931  -5.2976  -5.2976  -5.1895  -5.1895
    -4.8591  -4.8591  -4.7484  -4.7484  -4.5460  -4.5460  -4.4383  -4.4383
    -4.4129  -4.4129  -4.2391  -4.2391  -4.1583  -4.1583  -4.1104  -4.1104
    -3.9680  -3.9680  -3.9024  -3.9024  -3.7867  -3.7867  -3.7349  -3.7349
    -3.6097  -3.6097  -3.5746  -3.5746  -3.4373  -3.4373  -3.4060  -3.4060
    -3.2836  -3.2836  -3.2058  -3.2058  -3.1084  -3.1084  -2.8502  -2.8502
    -2.7818  -2.7818  -2.6982  -2.6982  -2.5689  -2.5689  -2.5266  -2.5266
    -1.6202  -1.6202  -1.5850  -1.5850  -1.4273  -1.4273  -1.3878  -1.3878
    -1.3348  -1.3348  -1.2691  -1.2691  -0.9349  -0.9349  -0.8444  -0.8444
    -0.7510  -0.7510  -0.6795  -0.6795  -0.5241  -0.5241  -0.5107  -0.5107
    -0.0186  -0.0186   0.1623   0.1623   3.4029   3.4029   3.5946   3.5946
     4.7605   4.7605   4.7899   4.7899   5.9171   5.9171   6.2592   6.2592
     6.3147   6.3147   6.3977   6.3977   6.4944   6.4944   6.9051   6.9051
     7.1735   7.1735   7.3593   7.3593   7.4281   7.4281   7.5372   7.5372
     7.6813   7.6813   7.8648   7.8648

     highest occupied, lowest unoccupied level (ev):     0.2058    3.3321

!    total energy              =   -1613.10098925 Ry
     Harris-Foulkes estimate   =   -1613.10098925 Ry
     estimated scf accuracy    <          2.8E-09 Ry

     total all-electron energy =     -6084.549120 Ry

     The total energy is the sum of the following terms:

     one-electron contribution =   -1112.42799123 Ry
     hartree contribution      =     676.16950176 Ry
     xc contribution           =    -345.26682601 Ry
     ewald contribution        =    -373.19130134 Ry
     Dispersion Correction     =      -0.44387860 Ry
     one-center paw contrib.   =    -457.94049382 Ry

     convergence has been achieved in  19 iterations

     Forces acting on atoms (cartesian axes, Ry/au):

     atom    1 type  2   force =     0.00089242   -0.00096239    0.00078232
     atom    2 type  2   force =    -0.00089242   -0.00096239   -0.00078232
     atom    3 type  2   force =    -0.00089242    0.00096239   -0.00078232
     atom    4 type  2   force =     0.00089242    0.00096239    0.00078232
     atom    5 type  2   force =    -0.00002954    0.00090659   -0.00026250
     atom    6 type  2   force =     0.00002954    0.00090659    0.00026250
     atom    7 type  2   force =     0.00002954   -0.00090659    0.00026250
     atom    8 type  2   force =    -0.00002954   -0.00090659   -0.00026250
     atom    9 type  1   force =     0.00001457    0.00017480   -0.00033345
     atom   10 type  1   force =    -0.00001457    0.00017480    0.00033345
     atom   11 type  1   force =    -0.00001457   -0.00017480    0.00033345
     atom   12 type  1   force =     0.00001457   -0.00017480   -0.00033345
     atom   13 type  1   force =     0.00053872   -0.00045132    0.00120566
     atom   14 type  1   force =    -0.00053872   -0.00045132   -0.00120566
     atom   15 type  1   force =    -0.00053872    0.00045132   -0.00120566
     atom   16 type  1   force =     0.00053872    0.00045132    0.00120566
     atom   17 type  1   force =    -0.00055002    0.00006083   -0.00064491
     atom   18 type  1   force =     0.00055002    0.00006083    0.00064491
     atom   19 type  1   force =     0.00055002   -0.00006083    0.00064491
     atom   20 type  1   force =    -0.00055002   -0.00006083   -0.00064491
     atom   21 type  1   force =    -0.00208660    0.00122958   -0.00008468
     atom   22 type  1   force =     0.00208660    0.00122958    0.00008468
     atom   23 type  1   force =     0.00208660   -0.00122958    0.00008468
     atom   24 type  1   force =    -0.00208660   -0.00122958   -0.00008468
     atom   25 type  1   force =    -0.00015710    0.00043438   -0.00008754
     atom   26 type  1   force =     0.00015710    0.00043438    0.00008754
     atom   27 type  1   force =     0.00015710   -0.00043438    0.00008754
     atom   28 type  1   force =    -0.00015710   -0.00043438   -0.00008754
     atom   29 type  1   force =    -0.00026719   -0.00086399    0.00007804
     atom   30 type  1   force =     0.00026719   -0.00086399   -0.00007804
     atom   31 type  1   force =     0.00026719    0.00086399   -0.00007804
     atom   32 type  1   force =    -0.00026719    0.00086399    0.00007804
     atom   33 type  1   force =     0.00031741   -0.00204090    0.00020554
     atom   34 type  1   force =    -0.00031741   -0.00204090   -0.00020554
     atom   35 type  1   force =    -0.00031741    0.00204090   -0.00020554
     atom   36 type  1   force =     0.00031741    0.00204090    0.00020554
     atom   37 type  1   force =     0.00048712   -0.00067706   -0.00040740
     atom   38 type  1   force =    -0.00048712   -0.00067706    0.00040740
     atom   39 type  1   force =    -0.00048712    0.00067706    0.00040740
     atom   40 type  1   force =     0.00048712    0.00067706   -0.00040740
     atom   41 type  1   force =     0.00131362    0.00123489    0.00009363
     atom   42 type  1   force =    -0.00131362    0.00123489   -0.00009363
     atom   43 type  1   force =    -0.00131362   -0.00123489   -0.00009363
     atom   44 type  1   force =     0.00131362   -0.00123489    0.00009363
     atom   45 type  4   force =    -0.00099003    0.00041419    0.00013837
     atom   46 type  4   force =     0.00099003    0.00041419   -0.00013837
     atom   47 type  4   force =     0.00099003   -0.00041419   -0.00013837
     atom   48 type  4   force =    -0.00099003   -0.00041419    0.00013837
     atom   49 type  4   force =     0.00058523    0.00108608    0.00039473
     atom   50 type  4   force =    -0.00058523    0.00108608   -0.00039473
     atom   51 type  4   force =    -0.00058523   -0.00108608   -0.00039473
     atom   52 type  4   force =     0.00058523   -0.00108608    0.00039473
     atom   53 type  4   force =    -0.00101379   -0.00208680   -0.00051452
     atom   54 type  4   force =     0.00101379   -0.00208680    0.00051452
     atom   55 type  4   force =     0.00101379    0.00208680    0.00051452
     atom   56 type  4   force =    -0.00101379    0.00208680   -0.00051452
     atom   57 type  4   force =     0.00018459    0.00022813   -0.00173966
     atom   58 type  4   force =    -0.00018459    0.00022813    0.00173966
     atom   59 type  4   force =    -0.00018459   -0.00022813    0.00173966
     atom   60 type  4   force =     0.00018459   -0.00022813   -0.00173966
     atom   61 type  3   force =    -0.00017552   -0.00022311   -0.00048340
     atom   62 type  3   force =     0.00017552   -0.00022311    0.00048340
     atom   63 type  3   force =     0.00017552    0.00022311    0.00048340
     atom   64 type  3   force =    -0.00017552    0.00022311   -0.00048340
     atom   65 type  3   force =     0.00029680    0.00005430   -0.00002146
     atom   66 type  3   force =    -0.00029680    0.00005430    0.00002146
     atom   67 type  3   force =    -0.00029680   -0.00005430    0.00002146
     atom   68 type  3   force =     0.00029680   -0.00005430   -0.00002146
     atom   69 type  3   force =     0.00072995   -0.00010631   -0.00085934
     atom   70 type  3   force =    -0.00072995   -0.00010631    0.00085934
     atom   71 type  3   force =    -0.00072995    0.00010631    0.00085934
     atom   72 type  3   force =     0.00072995    0.00010631   -0.00085934
     atom   73 type  3   force =    -0.00007977    0.00017710    0.00002628
     atom   74 type  3   force =     0.00007977    0.00017710   -0.00002628
     atom   75 type  3   force =     0.00007977   -0.00017710   -0.00002628
     atom   76 type  3   force =    -0.00007977   -0.00017710    0.00002628
     atom   77 type  3   force =    -0.00046392   -0.00004377    0.00032036
     atom   78 type  3   force =     0.00046392   -0.00004377   -0.00032036
     atom   79 type  3   force =     0.00046392    0.00004377   -0.00032036
     atom   80 type  3   force =    -0.00046392    0.00004377    0.00032036
     atom   81 type  3   force =    -0.00009863    0.00040004   -0.00068790
     atom   82 type  3   force =     0.00009863    0.00040004    0.00068790
     atom   83 type  3   force =     0.00009863   -0.00040004    0.00068790
     atom   84 type  3   force =    -0.00009863   -0.00040004   -0.00068790
     atom   85 type  3   force =     0.00009189   -0.00038657    0.00049251
     atom   86 type  3   force =    -0.00009189   -0.00038657   -0.00049251
     atom   87 type  3   force =    -0.00009189    0.00038657   -0.00049251
     atom   88 type  3   force =     0.00009189    0.00038657    0.00049251
     atom   89 type  3   force =    -0.00005205   -0.00045157   -0.00096926
     atom   90 type  3   force =     0.00005205   -0.00045157    0.00096926
     atom   91 type  3   force =     0.00005205    0.00045157    0.00096926
     atom   92 type  3   force =    -0.00005205    0.00045157   -0.00096926
     atom   93 type  3   force =     0.00017720   -0.00078440    0.00053947
     atom   94 type  3   force =    -0.00017720   -0.00078440   -0.00053947
     atom   95 type  3   force =    -0.00017720    0.00078440   -0.00053947
     atom   96 type  3   force =     0.00017720    0.00078440    0.00053947
     atom   97 type  3   force =    -0.00112657    0.00071825   -0.00094996
     atom   98 type  3   force =     0.00112657    0.00071825    0.00094996
     atom   99 type  3   force =     0.00112657   -0.00071825    0.00094996
     atom  100 type  3   force =    -0.00112657   -0.00071825   -0.00094996
     atom  101 type  3   force =     0.00005715    0.00024939    0.00159515
     atom  102 type  3   force =    -0.00005715    0.00024939   -0.00159515
     atom  103 type  3   force =    -0.00005715   -0.00024939   -0.00159515
     atom  104 type  3   force =     0.00005715   -0.00024939    0.00159515
     atom  105 type  3   force =    -0.00060455    0.00086514    0.00002745
     atom  106 type  3   force =     0.00060455    0.00086514   -0.00002745
     atom  107 type  3   force =     0.00060455   -0.00086514   -0.00002745
     atom  108 type  3   force =    -0.00060455   -0.00086514    0.00002745

     Total force =     0.013354     Total SCF correction =     0.000126


     Computing stress (Cartesian axis) and pressure

          total   stress  (Ry/bohr**3)                   (kbar)     P=   -3.78
  -0.00002303   0.00000000   0.00001097         -3.39      0.00      1.61
   0.00000000  -0.00001634   0.00000000          0.00     -2.40      0.00
   0.00001097   0.00000000  -0.00003768          1.61      0.00     -5.54


     Writing output data file scf.save
 
     init_run     :     58.65s CPU     61.07s WALL (       1 calls)
     electrons    :   2353.97s CPU   2457.42s WALL (       1 calls)
     forces       :     29.73s CPU     29.98s WALL (       1 calls)
     stress       :    126.45s CPU    126.89s WALL (       1 calls)

     Called by init_run:
     wfcinit      :     47.48s CPU     49.73s WALL (       1 calls)
     potinit      :      4.03s CPU      4.07s WALL (       1 calls)

     Called by electrons:
     c_bands      :   2127.05s CPU   2215.90s WALL (      19 calls)
     sum_band     :    208.20s CPU    220.73s WALL (      19 calls)
     v_of_rho     :      2.83s CPU      3.15s WALL (      20 calls)
     newd         :      6.78s CPU      8.33s WALL (      20 calls)
     PAW_pot      :      8.49s CPU      8.50s WALL (      20 calls)
     mix_rho      :      0.60s CPU      0.66s WALL (      19 calls)

     Called by c_bands:
     init_us_2    :     10.54s CPU     10.59s WALL (     328 calls)
     cegterg      :   2085.15s CPU   2173.93s WALL (     152 calls)

     Called by sum_band:
     sum_band:bec :      0.13s CPU      0.13s WALL (     152 calls)
     addusdens    :      6.90s CPU      8.39s WALL (      19 calls)

     Called by *egterg:
     h_psi        :   1102.52s CPU   1175.54s WALL (     744 calls)
     s_psi        :    264.18s CPU    264.22s WALL (     744 calls)
     g_psi        :      5.24s CPU      5.24s WALL (     584 calls)
     cdiaghg      :    116.63s CPU    116.65s WALL (     736 calls)

     Called by h_psi:
     h_psi:pot    :   1095.20s CPU   1168.11s WALL (     744 calls)
     h_psi:calbec :    255.49s CPU    255.86s WALL (     744 calls)
     vloc_psi     :    575.18s CPU    647.68s WALL (     744 calls)
     add_vuspsi   :    264.53s CPU    264.56s WALL (     744 calls)

     General routines
     calbec       :    366.49s CPU    367.04s WALL (     936 calls)
     fft          :      1.63s CPU      2.18s WALL (     284 calls)
     fftw         :    611.31s CPU    694.27s WALL (  200366 calls)
 
     Parallel routines
     fft_scatter  :    136.31s CPU    214.77s WALL (  200650 calls)
 
     PWSCF        : 43m 2.19s CPU    45m32.20s WALL

 
   This run was terminated on:  12:50:14  12Nov2017            

=------------------------------------------------------------------------------=
   JOB DONE.
=------------------------------------------------------------------------------=
