
     Program PWSCF v.6.1 (svn rev. 13369) starts on 21Dec2017 at  7:47:40 

     This program is part of the open-source Quantum ESPRESSO suite
     for quantum simulation of materials; please cite
         "P. Giannozzi et al., J. Phys.:Condens. Matter 21 395502 (2009);
          URL http://www.quantum-espresso.org", 
     in publications or presentations arising from this work. More details at
     http://www.quantum-espresso.org/quote

     Parallel version (MPI), running on     8 processors
     R & G space division:  proc/nbgrp/npool/nimage =       8
     Waiting for input...
     Reading input from standard input

     Current dimensions of program PWSCF are:
     Max number of different atomic species (ntypx) = 10
     Max number of k-points (npk) =  40000
     Max angular momentum in pseudopotentials (lmaxx) =  3
               file C.pbe-n-kjpaw_psl.0.1.UPF: wavefunction(s)  2P renormalized
               file N.pbe-n-kjpaw_psl.0.1.UPF: wavefunction(s)  2P renormalized
               file H.pbe-kjpaw_psl.0.1.UPF: wavefunction(s)  1S renormalized
               file O.pbe-n-kjpaw_psl.0.1.UPF: wavefunction(s)  2P renormalized

     -------------------------------------
     Parameters for Dispersion Correction:
     -------------------------------------
       atom      VdW radius       C_6     

        C          2.744         60.710
        N          2.640         42.670
        H          1.892          4.857
        O          2.536         24.284

     Subspace diagonalization in iterative solution of the eigenvalue problem:
     a serial algorithm will be used

 
     Parallelization info
     --------------------
     sticks:   dense  smooth     PW     G-vecs:    dense   smooth      PW
     Min         425     425    114                72563    72563   10120
     Max         426     426    115                72572    72572   10127
     Sum        3407    3407    919               580561   580561   80999
 


     bravais-lattice index     =            0
     lattice parameter (alat)  =      10.0779  a.u.
     unit-cell volume          =    4298.3844 (a.u.)^3
     number of atoms/cell      =           60
     number of atomic types    =            4
     number of electrons       =       232.00
     number of Kohn-Sham states=          139
     kinetic-energy cutoff     =     100.0000  Ry
     charge density cutoff     =     400.0000  Ry
     convergence threshold     =      1.0E-08
     mixing beta               =       0.5000
     number of iterations used =            8  plain     mixing
     Exchange-correlation      =  SLA  PW   PBX  PBC ( 1  4  3  4 0 0)

     celldm(1)=  10.077909  celldm(2)=   0.000000  celldm(3)=   0.000000
     celldm(4)=   0.000000  celldm(5)=   0.000000  celldm(6)=   0.000000

     crystal axes: (cart. coord. in units of alat)
               a(1) = (   1.000000   0.000000   0.000000 )  
               a(2) = (   0.000000   1.056254   0.000000 )  
               a(3) = (   0.000000   0.000000   3.975811 )  

     reciprocal axes: (cart. coord. in units 2 pi/alat)
               b(1) = (  1.000000  0.000000  0.000000 )  
               b(2) = (  0.000000  0.946742  0.000000 )  
               b(3) = (  0.000000  0.000000  0.251521 )  


     PseudoPot. # 1 for  C read from file:
     /scratch/ahofstet/pseudo/C.pbe-n-kjpaw_psl.0.1.UPF
     MD5 check sum: 430fe95172b1e11ef3f8ed03bac87931
     Pseudo is Projector augmented-wave + core cor, Zval =  4.0
     Generated using "atomic" code by A. Dal Corso  v.5.0.99 svn rev. 10869
     Shape of augmentation charge: BESSEL
     Using radial grid of 1073 points,  4 beta functions with: 
                l(1) =   0
                l(2) =   0
                l(3) =   1
                l(4) =   1
     Q(r) pseudized with 0 coefficients 


     PseudoPot. # 2 for  N read from file:
     /scratch/ahofstet/pseudo/N.pbe-n-kjpaw_psl.0.1.UPF
     MD5 check sum: f73187c8b701007e77325f868c9291d7
     Pseudo is Projector augmented-wave + core cor, Zval =  5.0
     Generated using "atomic" code by A. Dal Corso  v.5.0.99 svn rev. 10869
     Shape of augmentation charge: PSQ
     Using radial grid of 1085 points,  4 beta functions with: 
                l(1) =   0
                l(2) =   0
                l(3) =   1
                l(4) =   1
     Q(r) pseudized with 0 coefficients 


     PseudoPot. # 3 for  H read from file:
     /scratch/ahofstet/pseudo/H.pbe-kjpaw_psl.0.1.UPF
     MD5 check sum: 94e484f906d9e9773b2f6e52662335b2
     Pseudo is Projector augmented-wave, Zval =  1.0
     Generated using "atomic" code by A. Dal Corso  v.5.0.99 svn rev. 10869
     Shape of augmentation charge: PSQ
     Using radial grid of  929 points,  2 beta functions with: 
                l(1) =   0
                l(2) =   0
     Q(r) pseudized with 0 coefficients 


     PseudoPot. # 4 for  O read from file:
     /scratch/ahofstet/pseudo/O.pbe-n-kjpaw_psl.0.1.UPF
     MD5 check sum: 3f94a2996a3169367d6eb21d9b593f20
     Pseudo is Projector augmented-wave + core cor, Zval =  6.0
     Generated using "atomic" code by A. Dal Corso  v.5.0.99 svn rev. 10869
     Shape of augmentation charge: BESSEL
     Using radial grid of 1095 points,  4 beta functions with: 
                l(1) =   0
                l(2) =   0
                l(3) =   1
                l(4) =   1
     Q(r) pseudized with 0 coefficients 


     atomic species   valence    mass     pseudopotential
        C              4.00    12.01070      C( 1.00)
        N              5.00    14.00670      N( 1.00)
        H              1.00     1.00794      H( 1.00)
        O              6.00    15.99940      O( 1.00)

      4 Sym. Ops. (no inversion) found ( 3 have fractional translation)



   Cartesian axes

     site n.     atom                  positions (alat units)
         1           O   tau(   1) = (   0.0451100   0.5006791   0.4418218  )
         2           O   tau(   2) = (   0.4548900   0.5555744   2.4297273  )
         3           O   tau(   3) = (   0.5451100   0.0274476   3.5339892  )
         4           O   tau(   4) = (   0.9548900   1.0288059   1.5460837  )
         5           C   tau(   5) = (   0.1911963   0.2949398   0.3783326  )
         6           C   tau(   6) = (   0.3088037   0.7613137   2.3662381  )
         7           C   tau(   7) = (   0.6911963   0.2331869   3.5974784  )
         8           C   tau(   8) = (   0.8088037   0.8230666   1.6095729  )
         9           C   tau(   9) = (   0.0850449   0.1420592   0.1850359  )
        10           C   tau(  10) = (   0.4149551   0.9141943   2.1729414  )
        11           C   tau(  11) = (   0.5850449   0.3860676   3.7907751  )
        12           C   tau(  12) = (   0.9149551   0.6701859   1.8028696  )
        13           N   tau(  13) = (   0.1775975   0.9930780   0.0890443  )
        14           N   tau(  14) = (   0.3224025   0.0631755   2.0769498  )
        15           N   tau(  15) = (   0.6775975   0.5913023   3.8867667  )
        16           N   tau(  16) = (   0.8224025   0.4649512   1.8988612  )
        17           O   tau(  17) = (   0.4027400   0.9249426   0.1944715  )
        18           O   tau(  18) = (   0.0972600   0.1313110   2.1823770  )
        19           O   tau(  19) = (   0.9027400   0.6594377   3.7813395  )
        20           O   tau(  20) = (   0.5972600   0.3968158   1.7934340  )
        21           C   tau(  21) = (   0.3979107   0.2802281   0.5351500  )
        22           C   tau(  22) = (   0.1020893   0.7760254   2.5230555  )
        23           C   tau(  23) = (   0.8979107   0.2478987   3.4406610  )
        24           C   tau(  24) = (   0.6020893   0.8083549   1.4527555  )
        25           C   tau(  25) = (   0.3802536   0.4838710   0.7035699  )
        26           C   tau(  26) = (   0.1197464   0.5723825   2.6914754  )
        27           C   tau(  27) = (   0.8802536   0.0442558   3.2722411  )
        28           C   tau(  28) = (   0.6197464   1.0119977   1.2843356  )
        29           C   tau(  29) = (   0.1647946   0.6101192   0.6366828  )
        30           C   tau(  30) = (   0.3352054   0.4461343   2.6245883  )
        31           C   tau(  31) = (   0.6647946   0.9742611   3.3391282  )
        32           C   tau(  32) = (   0.8352054   0.0819925   1.3512227  )
        33           N   tau(  33) = (   0.0395842   0.8144548   0.7543775  )
        34           N   tau(  34) = (   0.4604158   0.2417987   2.7422830  )
        35           N   tau(  35) = (   0.5395842   0.7699255   3.2214335  )
        36           N   tau(  36) = (   0.9604158   0.2863280   1.2335280  )
        37           O   tau(  37) = (   0.8332534   0.8805817   0.6701308  )
        38           O   tau(  38) = (   0.6667466   0.1756718   2.6580362  )
        39           O   tau(  39) = (   0.3332534   0.7037986   3.3056802  )
        40           O   tau(  40) = (   0.1667466   0.3524549   1.3177747  )
        41           O   tau(  41) = (   0.1461369   0.9090209   0.9391702  )
        42           O   tau(  42) = (   0.3538631   0.1472326   2.9270757  )
        43           O   tau(  43) = (   0.6461369   0.6753594   3.0366408  )
        44           O   tau(  44) = (   0.8538631   0.3808941   1.0487353  )
        45           H   tau(  45) = (   0.9061530   0.2010703   0.1068761  )
        46           H   tau(  46) = (   0.5938470   0.8551832   2.0947816  )
        47           H   tau(  47) = (   0.4061530   0.3270565   3.8689349  )
        48           H   tau(  48) = (   0.0938470   0.7291970   1.8810294  )
        49           H   tau(  49) = (   0.4811781   0.7912957   0.0847523  )
        50           H   tau(  50) = (   0.0188219   0.2649578   2.0726578  )
        51           H   tau(  51) = (   0.9811781   0.7930846   3.8910587  )
        52           H   tau(  52) = (   0.5188219   0.2631690   1.9031532  )
        53           H   tau(  53) = (   0.5389797   0.1349988   0.5320932  )
        54           H   tau(  54) = (   0.9610203   0.9212548   2.5199987  )
        55           H   tau(  55) = (   0.0389797   0.3931280   3.4437178  )
        56           H   tau(  56) = (   0.4610203   0.6631255   1.4558123  )
        57           H   tau(  57) = (   0.5026887   0.5299263   0.8584511  )
        58           H   tau(  58) = (  -0.0026887   0.5263272   2.8463566  )
        59           H   tau(  59) = (   1.0026887   1.0544540   3.1173599  )
        60           H   tau(  60) = (   0.4973113   0.0017995   1.1294544  )

     number of k points=     6
                       cart. coord. in units 2pi/alat
        k(    1) = (   0.0000000   0.0000000   0.0000000), wk =   0.1666667
        k(    2) = (   0.0000000   0.3155808   0.0000000), wk =   0.3333333
        k(    3) = (   0.2500000   0.0000000   0.0000000), wk =   0.3333333
        k(    4) = (   0.2500000   0.3155808   0.0000000), wk =   0.6666667
        k(    5) = (  -0.5000000   0.0000000   0.0000000), wk =   0.1666667
        k(    6) = (  -0.5000000   0.3155808   0.0000000), wk =   0.3333333

     Dense  grid:   580561 G-vectors     FFT dimensions: (  72,  72, 256)

     Estimated max dynamical RAM per process >     395.85MB

     Estimated total allocated dynamical RAM >    3166.76MB

     Check: negative/imaginary core charge=   -0.000002    0.000000

     Initial potential from superposition of free atoms

     starting charge  231.99893, renormalised to  232.00000
     Starting wfc are  192 randomized atomic wfcs
     Checking if some PAW data can be deallocated... 

     total cpu time spent up to now is       17.1 secs

     per-process dynamical memory:   275.9 Mb

     Self-consistent Calculation

     iteration #  1     ecut=   100.00 Ry     beta=0.50
     Davidson diagonalization with overlap
     ethr =  1.00E-02,  avg # of iterations =  3.2

     total cpu time spent up to now is       62.7 secs

     total energy              =   -1277.38284735 Ry
     Harris-Foulkes estimate   =   -1280.56377175 Ry
     estimated scf accuracy    <       5.84316001 Ry

     iteration #  2     ecut=   100.00 Ry     beta=0.50
     Davidson diagonalization with overlap
     ethr =  2.52E-03,  avg # of iterations =  3.8

     total cpu time spent up to now is       92.6 secs

     total energy              =   -1278.21545499 Ry
     Harris-Foulkes estimate   =   -1278.92149175 Ry
     estimated scf accuracy    <       1.49826024 Ry

     iteration #  3     ecut=   100.00 Ry     beta=0.50
     Davidson diagonalization with overlap
     ethr =  6.46E-04,  avg # of iterations =  4.7

     total cpu time spent up to now is      126.2 secs

     total energy              =   -1278.59729710 Ry
     Harris-Foulkes estimate   =   -1278.68669970 Ry
     estimated scf accuracy    <       0.22128335 Ry

     iteration #  4     ecut=   100.00 Ry     beta=0.50
     Davidson diagonalization with overlap
     ethr =  9.54E-05,  avg # of iterations =  6.2

     total cpu time spent up to now is      159.1 secs

     total energy              =   -1278.62383942 Ry
     Harris-Foulkes estimate   =   -1278.65417750 Ry
     estimated scf accuracy    <       0.07201301 Ry

     iteration #  5     ecut=   100.00 Ry     beta=0.50
     Davidson diagonalization with overlap
     ethr =  3.10E-05,  avg # of iterations = 13.0

     total cpu time spent up to now is      196.5 secs

     total energy              =   -1278.63887387 Ry
     Harris-Foulkes estimate   =   -1278.65002156 Ry
     estimated scf accuracy    <       0.03409441 Ry

     iteration #  6     ecut=   100.00 Ry     beta=0.50
     Davidson diagonalization with overlap
     ethr =  1.47E-05,  avg # of iterations =  3.8

     total cpu time spent up to now is      222.5 secs

     total energy              =   -1278.64451428 Ry
     Harris-Foulkes estimate   =   -1278.64515468 Ry
     estimated scf accuracy    <       0.00168955 Ry

     iteration #  7     ecut=   100.00 Ry     beta=0.50
     Davidson diagonalization with overlap
     ethr =  7.28E-07,  avg # of iterations =  5.0

     total cpu time spent up to now is      275.0 secs

     total energy              =   -1278.64605498 Ry
     Harris-Foulkes estimate   =   -1278.64627598 Ry
     estimated scf accuracy    <       0.00056626 Ry

     iteration #  8     ecut=   100.00 Ry     beta=0.50
     Davidson diagonalization with overlap
     ethr =  2.44E-07,  avg # of iterations =  5.2

     total cpu time spent up to now is      301.5 secs

     total energy              =   -1278.64609718 Ry
     Harris-Foulkes estimate   =   -1278.64613751 Ry
     estimated scf accuracy    <       0.00011535 Ry

     iteration #  9     ecut=   100.00 Ry     beta=0.50
     Davidson diagonalization with overlap
     ethr =  4.97E-08,  avg # of iterations =  3.0

     total cpu time spent up to now is      339.4 secs

     total energy              =   -1278.64613476 Ry
     Harris-Foulkes estimate   =   -1278.64616207 Ry
     estimated scf accuracy    <       0.00007639 Ry

     iteration # 10     ecut=   100.00 Ry     beta=0.50
     Davidson diagonalization with overlap
     ethr =  3.29E-08,  avg # of iterations =  2.0

     total cpu time spent up to now is      363.0 secs

     total energy              =   -1278.64613744 Ry
     Harris-Foulkes estimate   =   -1278.64614353 Ry
     estimated scf accuracy    <       0.00001178 Ry

     iteration # 11     ecut=   100.00 Ry     beta=0.50
     Davidson diagonalization with overlap
     ethr =  5.08E-09,  avg # of iterations =  4.0

     total cpu time spent up to now is      403.5 secs

     total energy              =   -1278.64614503 Ry
     Harris-Foulkes estimate   =   -1278.64614732 Ry
     estimated scf accuracy    <       0.00000631 Ry

     iteration # 12     ecut=   100.00 Ry     beta=0.50
     Davidson diagonalization with overlap
     ethr =  2.72E-09,  avg # of iterations =  1.0

     total cpu time spent up to now is      426.2 secs

     total energy              =   -1278.64614469 Ry
     Harris-Foulkes estimate   =   -1278.64614539 Ry
     estimated scf accuracy    <       0.00000147 Ry

     iteration # 13     ecut=   100.00 Ry     beta=0.50
     Davidson diagonalization with overlap
     ethr =  6.34E-10,  avg # of iterations =  4.0

     total cpu time spent up to now is      464.8 secs

     total energy              =   -1278.64614556 Ry
     Harris-Foulkes estimate   =   -1278.64614570 Ry
     estimated scf accuracy    <       0.00000037 Ry

     iteration # 14     ecut=   100.00 Ry     beta=0.50
     Davidson diagonalization with overlap
     ethr =  1.59E-10,  avg # of iterations =  1.0

     total cpu time spent up to now is      487.5 secs

     total energy              =   -1278.64614554 Ry
     Harris-Foulkes estimate   =   -1278.64614559 Ry
     estimated scf accuracy    <       0.00000010 Ry

     iteration # 15     ecut=   100.00 Ry     beta=0.50
     Davidson diagonalization with overlap
     ethr =  4.47E-11,  avg # of iterations =  3.2

     total cpu time spent up to now is      523.9 secs

     total energy              =   -1278.64614559 Ry
     Harris-Foulkes estimate   =   -1278.64614560 Ry
     estimated scf accuracy    <       0.00000001 Ry

     iteration # 16     ecut=   100.00 Ry     beta=0.50
     Davidson diagonalization with overlap
     ethr =  4.46E-12,  avg # of iterations =  2.0

     total cpu time spent up to now is      547.7 secs

     End of self-consistent calculation

          k = 0.0000 0.0000 0.0000 ( 72487 PWs)   bands (ev):

   -23.8999 -23.8999 -23.8435 -23.8435 -21.7662 -21.7616 -21.7612 -21.7566
   -20.8113 -20.8112 -20.6084 -20.6084 -19.3793 -19.3793 -19.3742 -19.3742
   -15.0985 -15.0967 -14.9161 -14.9127 -13.8689 -13.8578 -13.7777 -13.7730
   -13.4994 -13.4983 -13.4363 -13.4317 -11.1596 -11.1482 -11.0629 -11.0485
    -9.0291  -9.0219  -8.9721  -8.9678  -8.2026  -8.1655  -8.1386  -8.1027
    -7.5999  -7.5552  -7.3234  -7.2867  -7.2010  -7.1232  -7.0743  -7.0151
    -6.6109  -6.4932  -6.4396  -6.4305  -6.3635  -6.3433  -6.2569  -6.1705
    -5.6729  -5.6691  -5.6645  -5.6314  -5.0750  -5.0522  -4.9189  -4.9018
    -4.8021  -4.7140  -4.7109  -4.6388  -4.5968  -4.5604  -4.2349  -4.2174
    -3.6844  -3.6823  -3.6267  -3.5698  -3.5680  -3.5543  -3.5362  -3.4886
    -3.1584  -3.1129  -3.0955  -3.0599  -2.8196  -2.8171  -2.7336  -2.7308
    -1.0558  -1.0428  -0.8998  -0.8933  -0.8880  -0.8544  -0.6556  -0.6496
    -0.6465  -0.6402  -0.5347  -0.4972  -0.4791  -0.4634  -0.2979  -0.2926
    -0.2449  -0.1749   0.0500   0.0886   0.1183   0.1629   0.3904   0.4002
     0.7866   0.8561   0.9164   0.9648   3.2922   3.3715   3.3963   3.4624
     4.7435   4.7813   4.8398   4.8722   6.6151   6.6695   6.8029   6.8415
     7.1326   7.2483   7.4492   7.6512   7.7977   7.8264   7.8808   7.9786
     8.4048   8.5373   8.6319

          k = 0.0000 0.3156 0.0000 ( 72518 PWs)   bands (ev):

   -23.8842 -23.8842 -23.8560 -23.8560 -21.7628 -21.7603 -21.7601 -21.7577
   -20.8111 -20.8110 -20.6186 -20.6186 -19.3785 -19.3785 -19.3759 -19.3759
   -15.1658 -15.1651 -14.8409 -14.8394 -13.8603 -13.8505 -13.8149 -13.8077
   -13.4628 -13.4618 -13.4146 -13.4131 -11.1815 -11.1787 -11.0664 -11.0615
    -9.0586  -9.0291  -9.0184  -9.0000  -8.2202  -8.2079  -8.0507  -8.0499
    -7.6621  -7.6109  -7.4039  -7.3902  -7.1606  -7.1317  -7.0314  -6.9607
    -6.5898  -6.5376  -6.4870  -6.4606  -6.4439  -6.4203  -6.1947  -6.1559
    -5.5958  -5.5782  -5.5773  -5.5594  -5.0069  -4.9854  -4.9507  -4.9493
    -4.8003  -4.7584  -4.7149  -4.7034  -4.5269  -4.5028  -4.0677  -4.0339
    -3.6622  -3.6583  -3.6121  -3.6085  -3.5136  -3.5030  -3.4736  -3.4531
    -3.1809  -3.1695  -3.0632  -3.0306  -2.8171  -2.8107  -2.7451  -2.7440
    -1.0803  -1.0769  -1.0492  -1.0445  -0.9787  -0.9658  -0.7089  -0.6914
    -0.6189  -0.5996  -0.4693  -0.4420  -0.4383  -0.4319  -0.4047  -0.3277
    -0.3275  -0.2661   0.0905   0.1097   0.1108   0.1358   0.3492   0.3530
     0.8517   0.9314   1.0438   1.1156   3.3012   3.3244   3.3560   3.3691
     4.6674   4.6884   4.6992   4.7062   6.8077   6.8326   6.9204   6.9490
     7.3370   7.4151   7.8158   7.8621   7.9226   7.9353   8.1440   8.1884
     8.2240   8.3619   8.4564

          k = 0.2500 0.0000 0.0000 ( 72522 PWs)   bands (ev):

   -23.8985 -23.8985 -23.8426 -23.8426 -21.7645 -21.7613 -21.7599 -21.7566
   -20.7815 -20.7814 -20.6380 -20.6379 -19.3816 -19.3816 -19.3781 -19.3781
   -15.0757 -15.0737 -14.9457 -14.9427 -13.8745 -13.8672 -13.7997 -13.7960
   -13.4945 -13.4713 -13.4504 -13.4247 -11.1559 -11.1259 -11.0883 -11.0594
    -9.0377  -9.0345  -8.9972  -8.9969  -8.1716  -8.1397  -8.1302  -8.0931
    -7.5941  -7.4652  -7.4024  -7.2196  -7.2062  -7.1892  -6.9533  -6.8982
    -6.5505  -6.4936  -6.4410  -6.4063  -6.3701  -6.3597  -6.3011  -6.2160
    -5.6386  -5.6380  -5.5964  -5.5907  -5.1399  -5.0744  -5.0050  -4.9576
    -4.8128  -4.7801  -4.7337  -4.6683  -4.5032  -4.4647  -4.2085  -4.1962
    -3.7419  -3.7153  -3.6665  -3.6269  -3.5931  -3.5745  -3.5596  -3.5542
    -3.1516  -3.1234  -3.1045  -3.0857  -2.8618  -2.8563  -2.8031  -2.7922
    -0.9130  -0.8620  -0.8459  -0.8364  -0.8224  -0.7646  -0.6555  -0.6312
    -0.6298  -0.6062  -0.5239  -0.5214  -0.5094  -0.4198  -0.2538  -0.2424
    -0.1794  -0.1567   0.0462   0.1005   0.1023   0.1831   0.2423   0.2786
     0.8597   0.9037   0.9777   1.0094   3.2475   3.3110   3.3126   3.3630
     4.6809   4.7596   4.7697   4.8302   6.6240   6.6771   6.7733   6.8185
     7.3208   7.3924   7.7036   7.8390   7.8558   7.9253   7.9284   8.0311
     8.4711   8.5415   8.6119

          k = 0.2500 0.3156 0.0000 ( 72631 PWs)   bands (ev):

   -23.8830 -23.8830 -23.8550 -23.8550 -21.7614 -21.7597 -21.7590 -21.7573
   -20.7825 -20.7825 -20.6463 -20.6463 -19.3809 -19.3809 -19.3791 -19.3791
   -15.1251 -15.1244 -14.8950 -14.8936 -13.8640 -13.8575 -13.8247 -13.8200
   -13.4708 -13.4628 -13.4325 -13.4228 -11.1623 -11.1468 -11.0802 -11.0644
    -9.0421  -9.0304  -8.9898  -8.9855  -8.2045  -8.1851  -8.0833  -8.0673
    -7.5617  -7.5032  -7.4046  -7.3000  -7.1349  -7.0946  -7.0105  -6.9211
    -6.5589  -6.5299  -6.4921  -6.4787  -6.4601  -6.4269  -6.2818  -6.2365
    -5.6974  -5.6748  -5.5818  -5.5595  -5.0699  -5.0590  -5.0063  -4.9993
    -4.7724  -4.7596  -4.7189  -4.6845  -4.5061  -4.4985  -4.1444  -4.1243
    -3.6604  -3.6474  -3.5884  -3.5784  -3.5228  -3.5074  -3.4622  -3.4439
    -3.1161  -3.1101  -3.0668  -3.0517  -2.8518  -2.8456  -2.7923  -2.7860
    -0.9777  -0.9673  -0.9401  -0.9270  -0.8740  -0.8442  -0.7006  -0.6782
    -0.5664  -0.5337  -0.5098  -0.4808  -0.4707  -0.4548  -0.3512  -0.3035
    -0.2769  -0.2391   0.0802   0.0928   0.1326   0.1476   0.2390   0.2526
     0.9315   1.0049   1.0593   1.1293   3.2285   3.2504   3.2632   3.2840
     4.6498   4.6648   4.6978   4.7074   6.8415   6.8755   6.9519   6.9637
     7.3772   7.4063   7.6824   7.7153   7.8937   7.9285   8.0304   8.0677
     8.3447   8.4697   8.5453

          k =-0.5000 0.0000 0.0000 ( 72540 PWs)   bands (ev):

   -23.8971 -23.8971 -23.8418 -23.8418 -21.7618 -21.7618 -21.7576 -21.7576
   -20.7096 -20.7096 -20.7096 -20.7096 -19.3831 -19.3831 -19.3827 -19.3827
   -15.0142 -15.0142 -15.0118 -15.0118 -13.8752 -13.8752 -13.8220 -13.8220
   -13.4703 -13.4703 -13.4392 -13.4392 -11.1290 -11.1290 -11.0903 -11.0903
    -9.0368  -9.0368  -9.0330  -9.0330  -8.1343  -8.1343  -8.0995  -8.0995
    -7.4937  -7.4937  -7.3112  -7.3112  -7.2043  -7.2043  -6.8313  -6.8313
    -6.4880  -6.4880  -6.3872  -6.3872  -6.3707  -6.3707  -6.3417  -6.3417
    -5.5646  -5.5646  -5.5397  -5.5397  -5.1399  -5.1399  -5.0905  -5.0905
    -4.8118  -4.8118  -4.7166  -4.7166  -4.3335  -4.3335  -4.2971  -4.2971
    -3.7386  -3.7386  -3.7360  -3.7360  -3.6019  -3.6019  -3.5763  -3.5763
    -3.1409  -3.1409  -3.1198  -3.1198  -2.8741  -2.8741  -2.8691  -2.8691
    -0.7875  -0.7875  -0.7549  -0.7549  -0.6874  -0.6874  -0.6583  -0.6583
    -0.5812  -0.5812  -0.5294  -0.5294  -0.3113  -0.3113  -0.2524  -0.2524
    -0.0917  -0.0917  -0.0633  -0.0633   0.1169   0.1169   0.1788   0.1788
     0.9384   0.9384   1.0439   1.0439   3.2220   3.2220   3.2338   3.2338
     4.6846   4.6846   4.7586   4.7586   6.6864   6.6864   6.7133   6.7133
     7.7229   7.7229   7.7576   7.7576   7.9396   7.9396   8.0308   8.0308
     8.6453   8.6461   8.7201

          k =-0.5000 0.3156 0.0000 ( 72656 PWs)   bands (ev):

   -23.8818 -23.8818 -23.8541 -23.8541 -21.7596 -21.7596 -21.7574 -21.7574
   -20.7139 -20.7139 -20.7139 -20.7139 -19.3830 -19.3830 -19.3828 -19.3828
   -15.0168 -15.0168 -15.0158 -15.0158 -13.8639 -13.8639 -13.8360 -13.8360
   -13.4629 -13.4629 -13.4491 -13.4491 -11.1154 -11.1154 -11.0939 -11.0939
    -9.0005  -9.0005  -8.9954  -8.9954  -8.1491  -8.1491  -8.1217  -8.1217
    -7.4220  -7.4220  -7.3213  -7.3213  -7.0922  -7.0922  -6.9027  -6.9027
    -6.5262  -6.5262  -6.5049  -6.5049  -6.4151  -6.4151  -6.3949  -6.3949
    -5.6922  -5.6922  -5.6690  -5.6690  -5.1073  -5.1073  -5.0692  -5.0692
    -4.7623  -4.7623  -4.7286  -4.7286  -4.3427  -4.3427  -4.3248  -4.3248
    -3.6048  -3.6048  -3.5827  -3.5827  -3.4874  -3.4874  -3.4699  -3.4699
    -3.0824  -3.0824  -3.0679  -3.0679  -2.8642  -2.8642  -2.8521  -2.8521
    -0.8654  -0.8654  -0.8176  -0.8176  -0.7183  -0.7183  -0.6932  -0.6932
    -0.5388  -0.5388  -0.5221  -0.5221  -0.3590  -0.3590  -0.3240  -0.3240
    -0.1511  -0.1511  -0.1197  -0.1197   0.1582   0.1582   0.1914   0.1914
     1.0407   1.0407   1.1103   1.1103   3.1676   3.1676   3.1779   3.1779
     4.6624   4.6624   4.6898   4.6898   6.8900   6.8900   6.9211   6.9211
     7.5277   7.5277   7.5665   7.5665   7.7703   7.7703   7.8501   7.8501
     8.7656   8.7676   8.7887

     highest occupied, lowest unoccupied level (ev):     1.1293    3.1676

!    total energy              =   -1278.64614559 Ry
     Harris-Foulkes estimate   =   -1278.64614559 Ry
     estimated scf accuracy    <          3.2E-09 Ry

     total all-electron energy =     -4825.868792 Ry

     The total energy is the sum of the following terms:

     one-electron contribution =    -655.51916400 Ry
     hartree contribution      =     420.66072317 Ry
     xc contribution           =    -254.72283837 Ry
     ewald contribution        =    -437.15485861 Ry
     Dispersion Correction     =      -0.25824412 Ry
     one-center paw contrib.   =    -351.65176367 Ry

     convergence has been achieved in  16 iterations

     Forces acting on atoms (cartesian axes, Ry/au):

     atom    1 type  4   force =     0.00928163   -0.00763779   -0.00048746
     atom    2 type  4   force =    -0.00928163    0.00763779   -0.00048746
     atom    3 type  4   force =     0.00928163    0.00763779    0.00048746
     atom    4 type  4   force =    -0.00928163   -0.00763779    0.00048746
     atom    5 type  1   force =    -0.01457674    0.00440152    0.00303426
     atom    6 type  1   force =     0.01457674   -0.00440152    0.00303426
     atom    7 type  1   force =    -0.01457674   -0.00440152   -0.00303426
     atom    8 type  1   force =     0.01457674    0.00440152   -0.00303426
     atom    9 type  1   force =     0.00699996   -0.01052964   -0.00522412
     atom   10 type  1   force =    -0.00699996    0.01052964   -0.00522412
     atom   11 type  1   force =     0.00699996    0.01052964    0.00522412
     atom   12 type  1   force =    -0.00699996   -0.01052964    0.00522412
     atom   13 type  2   force =    -0.00400621    0.01051445    0.00458691
     atom   14 type  2   force =     0.00400621   -0.01051445    0.00458691
     atom   15 type  2   force =    -0.00400621   -0.01051445   -0.00458691
     atom   16 type  2   force =     0.00400621    0.01051445   -0.00458691
     atom   17 type  4   force =     0.00186776   -0.00141954   -0.00418354
     atom   18 type  4   force =    -0.00186776    0.00141954   -0.00418354
     atom   19 type  4   force =     0.00186776    0.00141954    0.00418354
     atom   20 type  4   force =    -0.00186776   -0.00141954    0.00418354
     atom   21 type  1   force =    -0.00101751    0.00994346    0.00633607
     atom   22 type  1   force =     0.00101751   -0.00994346    0.00633607
     atom   23 type  1   force =    -0.00101751   -0.00994346   -0.00633607
     atom   24 type  1   force =     0.00101751    0.00994346   -0.00633607
     atom   25 type  1   force =    -0.00691804    0.00315560   -0.00346271
     atom   26 type  1   force =     0.00691804   -0.00315560   -0.00346271
     atom   27 type  1   force =    -0.00691804   -0.00315560    0.00346271
     atom   28 type  1   force =     0.00691804    0.00315560    0.00346271
     atom   29 type  1   force =    -0.00194648   -0.00654451    0.00451962
     atom   30 type  1   force =     0.00194648    0.00654451    0.00451962
     atom   31 type  1   force =    -0.00194648    0.00654451   -0.00451962
     atom   32 type  1   force =     0.00194648   -0.00654451   -0.00451962
     atom   33 type  2   force =     0.00828662   -0.00566635    0.00128955
     atom   34 type  2   force =    -0.00828662    0.00566635    0.00128955
     atom   35 type  2   force =     0.00828662    0.00566635   -0.00128955
     atom   36 type  2   force =    -0.00828662   -0.00566635   -0.00128955
     atom   37 type  4   force =     0.00017676    0.00326566   -0.00050274
     atom   38 type  4   force =    -0.00017676   -0.00326566   -0.00050274
     atom   39 type  4   force =     0.00017676   -0.00326566    0.00050274
     atom   40 type  4   force =    -0.00017676    0.00326566    0.00050274
     atom   41 type  4   force =    -0.00136098   -0.00017927   -0.00723069
     atom   42 type  4   force =     0.00136098    0.00017927   -0.00723069
     atom   43 type  4   force =    -0.00136098    0.00017927    0.00723069
     atom   44 type  4   force =     0.00136098   -0.00017927    0.00723069
     atom   45 type  3   force =    -0.00327212   -0.00158132    0.00051141
     atom   46 type  3   force =     0.00327212    0.00158132    0.00051141
     atom   47 type  3   force =    -0.00327212    0.00158132   -0.00051141
     atom   48 type  3   force =     0.00327212   -0.00158132   -0.00051141
     atom   49 type  3   force =     0.00071771    0.00061409   -0.00066867
     atom   50 type  3   force =    -0.00071771   -0.00061409   -0.00066867
     atom   51 type  3   force =     0.00071771   -0.00061409    0.00066867
     atom   52 type  3   force =    -0.00071771    0.00061409    0.00066867
     atom   53 type  3   force =     0.00351746   -0.00147756    0.00061182
     atom   54 type  3   force =    -0.00351746    0.00147756    0.00061182
     atom   55 type  3   force =     0.00351746    0.00147756   -0.00061182
     atom   56 type  3   force =    -0.00351746   -0.00147756   -0.00061182
     atom   57 type  3   force =     0.00106830    0.00050557   -0.00061264
     atom   58 type  3   force =    -0.00106830   -0.00050557   -0.00061264
     atom   59 type  3   force =     0.00106830   -0.00050557    0.00061264
     atom   60 type  3   force =    -0.00106830    0.00050557    0.00061264

     Total force =     0.069845     Total SCF correction =     0.000117


     Computing stress (Cartesian axis) and pressure

          total   stress  (Ry/bohr**3)                   (kbar)     P=   -6.95
  -0.00004626   0.00000000   0.00000000         -6.80      0.00      0.00
   0.00000000  -0.00007341   0.00000000          0.00    -10.80      0.00
   0.00000000   0.00000000  -0.00002211          0.00      0.00     -3.25


     Writing output data file scf.save
 
     init_run     :     15.95s CPU     16.45s WALL (       1 calls)
     electrons    :    512.27s CPU    530.71s WALL (       1 calls)
     forces       :      8.32s CPU      8.39s WALL (       1 calls)
     stress       :     28.95s CPU     29.05s WALL (       1 calls)

     Called by init_run:
     wfcinit      :     11.84s CPU     12.27s WALL (       1 calls)
     potinit      :      1.50s CPU      1.52s WALL (       1 calls)

     Called by electrons:
     c_bands      :    454.29s CPU    469.70s WALL (      16 calls)
     sum_band     :     49.67s CPU     52.05s WALL (      16 calls)
     v_of_rho     :      1.39s CPU      1.54s WALL (      17 calls)
     newd         :      2.35s CPU      2.83s WALL (      17 calls)
     PAW_pot      :      4.20s CPU      4.21s WALL (      17 calls)
     mix_rho      :      0.32s CPU      0.34s WALL (      16 calls)

     Called by c_bands:
     init_us_2    :      2.99s CPU      3.01s WALL (     210 calls)
     cegterg      :    442.26s CPU    457.60s WALL (      96 calls)

     Called by sum_band:
     sum_band:bec :      0.04s CPU      0.04s WALL (      96 calls)
     addusdens    :      2.45s CPU      2.90s WALL (      16 calls)

     Called by *egterg:
     h_psi        :    247.59s CPU    258.28s WALL (     492 calls)
     s_psi        :     48.54s CPU     48.55s WALL (     492 calls)
     g_psi        :      1.37s CPU      1.37s WALL (     390 calls)
     cdiaghg      :     26.10s CPU     26.09s WALL (     486 calls)

     Called by h_psi:
     h_psi:pot    :    245.83s CPU    256.49s WALL (     492 calls)
     h_psi:calbec :     48.53s CPU     48.67s WALL (     492 calls)
     vloc_psi     :    148.77s CPU    159.28s WALL (     492 calls)
     add_vuspsi   :     48.52s CPU     48.54s WALL (     492 calls)

     General routines
     calbec       :     71.66s CPU     71.85s WALL (     618 calls)
     fft          :      0.87s CPU      1.10s WALL (     245 calls)
     fftw         :    159.25s CPU    170.82s WALL (   87670 calls)
 
     Parallel routines
     fft_scatter  :     38.59s CPU     46.33s WALL (   87915 calls)
 
     PWSCF        :  9m30.20s CPU    10m14.23s WALL

 
   This run was terminated on:   7:57:54  21Dec2017            

=------------------------------------------------------------------------------=
   JOB DONE.
=------------------------------------------------------------------------------=
