
     Program PWSCF v.6.1 (svn rev. 13369) starts on 20Dec2017 at 12:43: 4 

     This program is part of the open-source Quantum ESPRESSO suite
     for quantum simulation of materials; please cite
         "P. Giannozzi et al., J. Phys.:Condens. Matter 21 395502 (2009);
          URL http://www.quantum-espresso.org", 
     in publications or presentations arising from this work. More details at
     http://www.quantum-espresso.org/quote

     Parallel version (MPI), running on     8 processors
     R & G space division:  proc/nbgrp/npool/nimage =       8
     Waiting for input...
     Reading input from standard input

     Current dimensions of program PWSCF are:
     Max number of different atomic species (ntypx) = 10
     Max number of k-points (npk) =  40000
     Max angular momentum in pseudopotentials (lmaxx) =  3
               file C.pbe-n-kjpaw_psl.0.1.UPF: wavefunction(s)  2P renormalized
               file N.pbe-n-kjpaw_psl.0.1.UPF: wavefunction(s)  2P renormalized
               file H.pbe-kjpaw_psl.0.1.UPF: wavefunction(s)  1S renormalized
               file O.pbe-n-kjpaw_psl.0.1.UPF: wavefunction(s)  2P renormalized

     -------------------------------------
     Parameters for Dispersion Correction:
     -------------------------------------
       atom      VdW radius       C_6     

        C          2.744         60.710
        N          2.640         42.670
        H          1.892          4.857
        O          2.536         24.284

     Subspace diagonalization in iterative solution of the eigenvalue problem:
     a serial algorithm will be used

 
     Parallelization info
     --------------------
     sticks:   dense  smooth     PW     G-vecs:    dense   smooth      PW
     Min        1295    1295    337               159276   159276   21303
     Max        1296    1296    339               159280   159280   21308
     Sum       10367   10367   2705              1274219  1274219  170447
 


     bravais-lattice index     =            0
     lattice parameter (alat)  =      15.3548  a.u.
     unit-cell volume          =    9430.2326 (a.u.)^3
     number of atoms/cell      =          160
     number of atomic types    =            4
     number of electrons       =       408.00
     number of Kohn-Sham states=          244
     kinetic-energy cutoff     =     100.0000  Ry
     charge density cutoff     =     400.0000  Ry
     convergence threshold     =      1.0E-08
     mixing beta               =       0.5000
     number of iterations used =            8  plain     mixing
     Exchange-correlation      =  SLA  PW   PBX  PBC ( 1  4  3  4 0 0)

     celldm(1)=  15.354781  celldm(2)=   0.000000  celldm(3)=   0.000000
     celldm(4)=   0.000000  celldm(5)=   0.000000  celldm(6)=   0.000000

     crystal axes: (cart. coord. in units of alat)
               a(1) = (   1.000000   0.000000   0.000000 )  
               a(2) = (   0.000000   1.381089   0.000000 )  
               a(3) = (   0.000000   0.000000   1.886123 )  

     reciprocal axes: (cart. coord. in units 2 pi/alat)
               b(1) = (  1.000000  0.000000  0.000000 )  
               b(2) = (  0.000000  0.724066  0.000000 )  
               b(3) = (  0.000000  0.000000  0.530188 )  


     PseudoPot. # 1 for  C read from file:
     /scratch/ahofstet/pseudo/C.pbe-n-kjpaw_psl.0.1.UPF
     MD5 check sum: 430fe95172b1e11ef3f8ed03bac87931
     Pseudo is Projector augmented-wave + core cor, Zval =  4.0
     Generated using "atomic" code by A. Dal Corso  v.5.0.99 svn rev. 10869
     Shape of augmentation charge: BESSEL
     Using radial grid of 1073 points,  4 beta functions with: 
                l(1) =   0
                l(2) =   0
                l(3) =   1
                l(4) =   1
     Q(r) pseudized with 0 coefficients 


     PseudoPot. # 2 for  N read from file:
     /scratch/ahofstet/pseudo/N.pbe-n-kjpaw_psl.0.1.UPF
     MD5 check sum: f73187c8b701007e77325f868c9291d7
     Pseudo is Projector augmented-wave + core cor, Zval =  5.0
     Generated using "atomic" code by A. Dal Corso  v.5.0.99 svn rev. 10869
     Shape of augmentation charge: PSQ
     Using radial grid of 1085 points,  4 beta functions with: 
                l(1) =   0
                l(2) =   0
                l(3) =   1
                l(4) =   1
     Q(r) pseudized with 0 coefficients 


     PseudoPot. # 3 for  H read from file:
     /scratch/ahofstet/pseudo/H.pbe-kjpaw_psl.0.1.UPF
     MD5 check sum: 94e484f906d9e9773b2f6e52662335b2
     Pseudo is Projector augmented-wave, Zval =  1.0
     Generated using "atomic" code by A. Dal Corso  v.5.0.99 svn rev. 10869
     Shape of augmentation charge: PSQ
     Using radial grid of  929 points,  2 beta functions with: 
                l(1) =   0
                l(2) =   0
     Q(r) pseudized with 0 coefficients 


     PseudoPot. # 4 for  O read from file:
     /scratch/ahofstet/pseudo/O.pbe-n-kjpaw_psl.0.1.UPF
     MD5 check sum: 3f94a2996a3169367d6eb21d9b593f20
     Pseudo is Projector augmented-wave + core cor, Zval =  6.0
     Generated using "atomic" code by A. Dal Corso  v.5.0.99 svn rev. 10869
     Shape of augmentation charge: BESSEL
     Using radial grid of 1095 points,  4 beta functions with: 
                l(1) =   0
                l(2) =   0
                l(3) =   1
                l(4) =   1
     Q(r) pseudized with 0 coefficients 


     atomic species   valence    mass     pseudopotential
        C              4.00    12.01070      C( 1.00)
        N              5.00    14.00670      N( 1.00)
        H              1.00     1.00794      H( 1.00)
        O              6.00    15.99940      O( 1.00)

     No symmetry found
          (note:  1 additional sym.ops. were found but ignored
           their fractional translations are incommensurate with FFT grid)


   Cartesian axes

     site n.     atom                  positions (alat units)
         1           O   tau(   1) = (   0.3333369   0.5741257   1.8706997  )
         2           O   tau(   2) = (   0.8335471   0.1164149   0.0154428  )
         3           O   tau(   3) = (   0.6666631   1.2646702   0.9584841  )
         4           O   tau(   4) = (   0.1664529   0.8069593   0.9276185  )
         5           O   tau(   5) = (   0.2978520   0.8088482   1.7026662  )
         6           O   tau(   6) = (   0.7978208   1.2628105   0.1834812  )
         7           O   tau(   7) = (   0.7021480   0.1183038   1.1265176  )
         8           O   tau(   8) = (   0.2021792   0.5722660   0.7595801  )
         9           O   tau(   9) = (   0.4332380   0.4063475   1.4570273  )
        10           O   tau(  10) = (   0.9333512   0.2843076   0.4291018  )
        11           O   tau(  11) = (   0.5667620   1.0968920   1.3721565  )
        12           O   tau(  12) = (   0.0666488   0.9748520   0.5139594  )
        13           O   tau(  13) = (   0.8836768   0.4914173   0.0146838  )
        14           O   tau(  14) = (   0.3839054   0.1991848   1.8714449  )
        15           O   tau(  15) = (   0.1163232   1.1819618   0.9283775  )
        16           O   tau(  16) = (   0.6160946   0.8897293   0.9577389  )
        17           O   tau(  17) = (   0.2007491   0.3368796   0.2412281  )
        18           O   tau(  18) = (   0.7007221   0.3536884   1.6448504  )
        19           O   tau(  19) = (   0.7992509   1.0274241   0.7018331  )
        20           O   tau(  20) = (   0.2992779   1.0442329   1.1843334  )
        21           N   tau(  21) = (   0.2933437   0.3819083   1.5660054  )
        22           N   tau(  22) = (   0.7934391   0.3086880   0.3201290  )
        23           N   tau(  23) = (   0.7066563   1.0724527   1.2631784  )
        24           N   tau(  24) = (   0.2065609   0.9992325   0.6229323  )
        25           C   tau(  25) = (   0.3406891   0.6412103   1.7085255  )
        26           C   tau(  26) = (   0.8408209   0.0493219   0.1776250  )
        27           C   tau(  27) = (   0.6593109   1.3317547   1.1206583  )
        28           C   tau(  28) = (   0.1591791   0.7398664   0.7654363  )
        29           C   tau(  29) = (   0.2245631   0.5492248   1.5914532  )
        30           C   tau(  30) = (   0.7247171   0.1413510   0.2946889  )
        31           C   tau(  31) = (   0.7754369   1.2397693   1.2377305  )
        32           C   tau(  32) = (   0.2752829   0.8318954   0.6483724  )
        33           C   tau(  33) = (   0.0510387   0.5503294   1.6646817  )
        34           C   tau(  34) = (   0.5512237   0.1402414   0.2214344  )
        35           C   tau(  35) = (   0.9489613   1.2408739   1.1645021  )
        36           C   tau(  36) = (   0.4487763   0.8307858   0.7216269  )
        37           C   tau(  37) = (   0.0486929   0.4792012   1.8382045  )
        38           C   tau(  38) = (   0.5489294   0.2113739   0.0479241  )
        39           C   tau(  39) = (   0.9513071   1.1697456   0.9909793  )
        40           C   tau(  40) = (   0.4510706   0.9019184   0.8951372  )
        41           C   tau(  41) = (   0.1713393   0.5775182   0.0580846  )
        42           C   tau(  42) = (   0.6715653   0.1130549   1.8280459  )
        43           C   tau(  43) = (   0.8286607   1.2680627   0.8849767  )
        44           C   tau(  44) = (   0.3284347   0.8035993   1.0011379  )
        45           C   tau(  45) = (   0.4147615   0.9124077   1.7859671  )
        46           C   tau(  46) = (   0.9145589   1.1591323   0.1000956  )
        47           C   tau(  47) = (   0.5852385   0.2218633   1.0432167  )
        48           C   tau(  48) = (   0.0854411   0.4685878   0.8429656  )
        49           C   tau(  49) = (   0.3631784   1.0898074   1.7632130  )
        50           C   tau(  50) = (   0.8628265   0.9817806   0.1229207  )
        51           C   tau(  51) = (   0.6368216   0.3992630   1.0659708  )
        52           C   tau(  52) = (   0.1371735   0.2912361   0.8201406  )
        53           C   tau(  53) = (   0.1920368   0.5125778   0.2318293  )
        54           C   tau(  54) = (   0.6921386   0.1779695   1.6542742  )
        55           C   tau(  55) = (   0.8079632   1.2031223   0.7112319  )
        56           C   tau(  56) = (   0.3078614   0.8685139   1.1749096  )
        57           C   tau(  57) = (   0.1787144   0.2680868   1.4793289  )
        58           C   tau(  58) = (   0.6787451   0.4224489   0.4068127  )
        59           C   tau(  59) = (   0.8212856   0.9586313   1.3498549  )
        60           C   tau(  60) = (   0.3212549   1.1129934   0.5362485  )
        61           C   tau(  61) = (   0.2586828   0.0990932   1.4621292  )
        62           C   tau(  62) = (   0.7585828   0.5915029   0.4239986  )
        63           C   tau(  63) = (   0.7413172   0.7896376   1.3670546  )
        64           C   tau(  64) = (   0.2414172   1.2820473   0.5190627  )
        65           C   tau(  65) = (   0.1182515   0.3324036   1.3124857  )
        66           C   tau(  66) = (   0.6183730   0.3581059   0.5736762  )
        67           C   tau(  67) = (   0.8817485   1.0229480   1.5166981  )
        68           C   tau(  68) = (   0.3816270   1.0486504   0.3693851  )
        69           H   tau(  69) = (   0.5297486   0.4002142   1.5316959  )
        70           H   tau(  70) = (   0.0298308   0.2903324   0.3544195  )
        71           H   tau(  71) = (   0.4702514   1.0907586   1.2974879  )
        72           H   tau(  72) = (   0.9701692   0.9808769   0.5886417  )
        73           H   tau(  73) = (   0.8696268   0.4180758   0.1124384  )
        74           H   tau(  74) = (   0.3698152   0.2725412   1.7737258  )
        75           H   tau(  75) = (   0.1303732   1.1086202   0.8306228  )
        76           H   tau(  76) = (   0.6301848   0.9630856   1.0554580  )
        77           H   tau(  77) = (   0.2622386   0.2912055   0.1454477  )
        78           H   tau(  78) = (   0.7621146   0.3994148   1.7406245  )
        79           H   tau(  79) = (   0.7377614   0.9817499   0.7976136  )
        80           H   tau(  80) = (   0.2378854   1.0899592   1.0885593  )
        81           H   tau(  81) = (   0.4703578   0.6244749   1.6725780  )
        82           H   tau(  82) = (   0.9704906   0.0659505   0.2135933  )
        83           H   tau(  83) = (   0.5296422   1.3150194   1.1566058  )
        84           H   tau(  84) = (   0.0295094   0.7564949   0.7294679  )
        85           H   tau(  85) = (   0.2238163   0.6148790   1.4726747  )
        86           H   tau(  86) = (   0.7239603   0.0757105   0.4134745  )
        87           H   tau(  87) = (   0.7761837   1.3054235   1.3565091  )
        88           H   tau(  88) = (   0.2760397   0.7662549   0.5295867  )
        89           H   tau(  89) = (   0.0110180   0.6794874   1.6711645  )
        90           H   tau(  90) = (   0.5111902   0.0110835   0.2149285  )
        91           H   tau(  91) = (   0.9889820   1.3700319   1.1580193  )
        92           H   tau(  92) = (   0.4888098   0.7016280   0.7281327  )
        93           H   tau(  93) = (   0.9637323   0.4854919   1.5847558  )
        94           H   tau(  94) = (   0.4638847   0.2050685   0.3013276  )
        95           H   tau(  95) = (   0.0362677   1.1760364   1.2444280  )
        96           H   tau(  96) = (   0.5361153   0.8956129   0.6417337  )
        97           H   tau(  97) = (   0.0861172   0.3489253   1.8354299  )
        98           H   tau(  98) = (   0.5863602   0.3416560   0.0507180  )
        99           H   tau(  99) = (   0.9138828   1.0394698   0.9937539  )
       100           H   tau( 100) = (   0.4136398   1.0322005   0.8923432  )
       101           H   tau( 101) = (   0.1274088   0.7059635   0.0651166  )
       102           H   tau( 102) = (   0.6276014   1.3656999   1.8210301  )
       103           H   tau( 103) = (   0.8725912   0.0154191   0.8779447  )
       104           H   tau( 104) = (   0.3723986   0.6751554   1.0081537  )
       105           H   tau( 105) = (   0.4196082   0.8787632   0.0313455  )
       106           H   tau( 106) = (   0.9193204   1.1927524   1.8547093  )
       107           H   tau( 107) = (   0.5803918   0.1882187   0.9117158  )
       108           H   tau( 108) = (   0.0806796   0.5022080   0.9744744  )
       109           H   tau( 109) = (   0.5381940   0.8905106   1.7327282  )
       110           H   tau( 110) = (   0.0380594   1.1809218   0.1532216  )
       111           H   tau( 111) = (   0.4618060   0.1999662   1.0964556  )
       112           H   tau( 112) = (   0.9619406   0.4903773   0.7898396  )
       113           H   tau( 113) = (   0.3671156   1.1244023   1.6326262  )
       114           H   tau( 114) = (   0.8667870   0.9472203   0.2535157  )
       115           H   tau( 115) = (   0.6328844   0.4338578   1.1965576  )
       116           H   tau( 116) = (   0.1332130   0.2566758   0.6895455  )
       117           H   tau( 117) = (   0.2380694   1.1099149   1.8105642  )
       118           H   tau( 118) = (   0.7376969   0.9617326   0.0756060  )
       119           H   tau( 119) = (   0.7619306   0.4193704   1.0186196  )
       120           H   tau( 120) = (   0.2623031   0.2711881   0.8674553  )
       121           H   tau( 121) = (   0.4471790   1.1704322   1.8320425  )
       122           H   tau( 122) = (   0.9467671   0.9010850   0.0540970  )
       123           H   tau( 123) = (   0.5528210   0.4798878   0.9971413  )
       124           H   tau( 124) = (   0.0532329   0.2105406   0.8889643  )
       125           H   tau( 125) = (   0.3036900   0.5693253   0.2851689  )
       126           H   tau( 126) = (   0.8038117   0.1212993   1.6008845  )
       127           H   tau( 127) = (   0.6963100   1.2598698   0.6578923  )
       128           H   tau( 128) = (   0.1961883   0.8118438   1.2282993  )
       129           H   tau( 129) = (   0.0860276   0.5496728   0.3070554  )
       130           H   tau( 130) = (   0.5861275   0.1407798   1.5791299  )
       131           H   tau( 131) = (   0.9139724   1.2402172   0.6360058  )
       132           H   tau( 132) = (   0.4138725   0.8313243   1.2500539  )
       133           H   tau( 133) = (   0.0732696   0.2555714   1.5635382  )
       134           H   tau( 134) = (   0.5732821   0.4348963   0.3226297  )
       135           H   tau( 135) = (   0.9267304   0.9461159   1.2656456  )
       136           H   tau( 136) = (   0.4267179   1.1254408   0.6204316  )
       137           H   tau( 137) = (   0.1709318   0.0123140   1.4068522  )
       138           H   tau( 138) = (   0.6707676   0.6782091   0.4792893  )
       139           H   tau( 139) = (   0.8290682   0.7028585   1.4223316  )
       140           H   tau( 140) = (   0.3292324   1.3687535   0.4637720  )
       141           H   tau( 141) = (   0.3669409   0.1068218   1.3814416  )
       142           H   tau( 142) = (   0.8668572   0.5838641   0.5046687  )
       143           H   tau( 143) = (   0.6330591   0.7973663   1.4477422  )
       144           H   tau( 144) = (   0.1331428   1.2744086   0.4383926  )
       145           H   tau( 145) = (   0.2967229   0.0507625   1.5825395  )
       146           H   tau( 146) = (   0.7965714   0.6398671   0.3035841  )
       147           H   tau( 147) = (   0.7032771   0.7413070   1.2466443  )
       148           H   tau( 148) = (   0.2034286   1.3304115   0.6394771  )
       149           H   tau( 149) = (   0.2224480   0.3422611   1.2268332  )
       150           H   tau( 150) = (   0.7225955   0.3482797   0.6592942  )
       151           H   tau( 151) = (   0.7775520   1.0328055   1.6023506  )
       152           H   tau( 152) = (   0.2774045   1.0388241   0.2837671  )
       153           H   tau( 153) = (   0.0268520   0.2473679   1.2603144  )
       154           H   tau( 154) = (   0.5269628   0.4431165   0.6258732  )
       155           H   tau( 155) = (   0.9731480   0.9379124   1.5688694  )
       156           H   tau( 156) = (   0.4730372   1.1336609   0.3171881  )
       157           H   tau( 157) = (   0.0595237   0.4538836   1.3226500  )
       158           H   tau( 158) = (   0.5596686   0.2366122   0.5635263  )
       159           H   tau( 159) = (   0.9404763   1.1444281   1.5065338  )
       160           H   tau( 160) = (   0.4403314   0.9271566   0.3795350  )

     number of k points=     8
                       cart. coord. in units 2pi/alat
        k(    1) = (   0.0000000   0.0000000   0.0000000), wk =   0.1666667
        k(    2) = (   0.0000000   0.0000000  -0.2650941), wk =   0.1666667
        k(    3) = (   0.0000000  -0.3620332   0.0000000), wk =   0.1666667
        k(    4) = (   0.0000000  -0.3620332  -0.2650941), wk =   0.1666667
        k(    5) = (   0.3333333   0.0000000   0.0000000), wk =   0.3333333
        k(    6) = (   0.3333333   0.0000000  -0.2650941), wk =   0.3333333
        k(    7) = (   0.3333333  -0.3620332   0.0000000), wk =   0.3333333
        k(    8) = (   0.3333333  -0.3620332  -0.2650941), wk =   0.3333333

     Dense  grid:  1274219 G-vectors     FFT dimensions: ( 100, 135, 192)

     Estimated max dynamical RAM per process >    1606.09MB

     Estimated total allocated dynamical RAM >   12848.68MB

     Check: negative/imaginary core charge=   -0.000002    0.000000

     Initial potential from superposition of free atoms

     starting charge  407.99723, renormalised to  408.00000
     Starting wfc are  364 randomized atomic wfcs
     Checking if some PAW data can be deallocated... 

     total cpu time spent up to now is      109.3 secs

     per-process dynamical memory:  1036.7 Mb

     Self-consistent Calculation

     iteration #  1     ecut=   100.00 Ry     beta=0.50
     Davidson diagonalization with overlap
     ethr =  1.00E-02,  avg # of iterations =  4.5

     total cpu time spent up to now is      486.3 secs

     total energy              =   -1864.11904022 Ry
     Harris-Foulkes estimate   =   -1871.64267156 Ry
     estimated scf accuracy    <      14.80635277 Ry

     iteration #  2     ecut=   100.00 Ry     beta=0.50
     Davidson diagonalization with overlap
     ethr =  3.63E-03,  avg # of iterations =  2.1

     total cpu time spent up to now is      668.0 secs

     total energy              =   -1865.26936719 Ry
     Harris-Foulkes estimate   =   -1865.85852291 Ry
     estimated scf accuracy    <       1.45468309 Ry

     iteration #  3     ecut=   100.00 Ry     beta=0.50
     Davidson diagonalization with overlap
     ethr =  3.57E-04,  avg # of iterations =  5.0

     total cpu time spent up to now is     1077.4 secs

     total energy              =   -1866.49746710 Ry
     Harris-Foulkes estimate   =   -1867.07011335 Ry
     estimated scf accuracy    <       1.63975664 Ry

     iteration #  4     ecut=   100.00 Ry     beta=0.50
     Davidson diagonalization with overlap
     ethr =  3.57E-04,  avg # of iterations =  1.2

     total cpu time spent up to now is     1246.4 secs

     total energy              =   -1866.13082047 Ry
     Harris-Foulkes estimate   =   -1866.55788502 Ry
     estimated scf accuracy    <       0.60695922 Ry

     iteration #  5     ecut=   100.00 Ry     beta=0.50
     Davidson diagonalization with overlap
     ethr =  1.49E-04,  avg # of iterations =  4.9

     total cpu time spent up to now is     1660.1 secs

     total energy              =   -1866.52576840 Ry
     Harris-Foulkes estimate   =   -1867.15773830 Ry
     estimated scf accuracy    <       1.88309081 Ry

     iteration #  6     ecut=   100.00 Ry     beta=0.50
     Davidson diagonalization with overlap
     ethr =  1.49E-04,  avg # of iterations =  2.2

     total cpu time spent up to now is     1837.3 secs

     total energy              =   -1866.23958784 Ry
     Harris-Foulkes estimate   =   -1866.58286256 Ry
     estimated scf accuracy    <       0.71200300 Ry

     iteration #  7     ecut=   100.00 Ry     beta=0.50
     Davidson diagonalization with overlap
     ethr =  1.49E-04,  avg # of iterations =  6.5

     total cpu time spent up to now is     2158.5 secs

     total energy              =   -1866.55610723 Ry
     Harris-Foulkes estimate   =   -1866.57353176 Ry
     estimated scf accuracy    <       0.05568532 Ry

     iteration #  8     ecut=   100.00 Ry     beta=0.50
     Davidson diagonalization with overlap
     c_bands:  1 eigenvalues not converged
     ethr =  1.36E-05,  avg # of iterations =  6.6

     total cpu time spent up to now is     2362.3 secs

     total energy              =   -1866.54716244 Ry
     Harris-Foulkes estimate   =   -1866.55838318 Ry
     estimated scf accuracy    <       0.02283624 Ry

     iteration #  9     ecut=   100.00 Ry     beta=0.50
     Davidson diagonalization with overlap
     ethr =  5.60E-06,  avg # of iterations =  8.1

     total cpu time spent up to now is     2690.3 secs

     total energy              =   -1866.55751058 Ry
     Harris-Foulkes estimate   =   -1866.55828547 Ry
     estimated scf accuracy    <       0.00235215 Ry

     iteration # 10     ecut=   100.00 Ry     beta=0.50
     Davidson diagonalization with overlap
     ethr =  5.77E-07,  avg # of iterations =  2.0

     total cpu time spent up to now is     2864.4 secs

     total energy              =   -1866.55711807 Ry
     Harris-Foulkes estimate   =   -1866.55761317 Ry
     estimated scf accuracy    <       0.00091506 Ry

     iteration # 11     ecut=   100.00 Ry     beta=0.50
     Davidson diagonalization with overlap
     ethr =  2.24E-07,  avg # of iterations =  4.1

     total cpu time spent up to now is     3180.9 secs

     total energy              =   -1866.55764246 Ry
     Harris-Foulkes estimate   =   -1866.55768726 Ry
     estimated scf accuracy    <       0.00022870 Ry

     iteration # 12     ecut=   100.00 Ry     beta=0.50
     Davidson diagonalization with overlap
     ethr =  5.61E-08,  avg # of iterations =  1.1

     total cpu time spent up to now is     3348.8 secs

     total energy              =   -1866.55755842 Ry
     Harris-Foulkes estimate   =   -1866.55764616 Ry
     estimated scf accuracy    <       0.00014647 Ry

     iteration # 13     ecut=   100.00 Ry     beta=0.50
     Davidson diagonalization with overlap
     ethr =  3.59E-08,  avg # of iterations =  4.0

     total cpu time spent up to now is     3658.7 secs

     total energy              =   -1866.55761854 Ry
     Harris-Foulkes estimate   =   -1866.55763214 Ry
     estimated scf accuracy    <       0.00003981 Ry

     iteration # 14     ecut=   100.00 Ry     beta=0.50
     Davidson diagonalization with overlap
     ethr =  9.76E-09,  avg # of iterations =  1.0

     total cpu time spent up to now is     3825.2 secs

     total energy              =   -1866.55760889 Ry
     Harris-Foulkes estimate   =   -1866.55761972 Ry
     estimated scf accuracy    <       0.00001617 Ry

     iteration # 15     ecut=   100.00 Ry     beta=0.50
     Davidson diagonalization with overlap
     ethr =  3.96E-09,  avg # of iterations =  4.0

     total cpu time spent up to now is     4163.5 secs

     total energy              =   -1866.55762162 Ry
     Harris-Foulkes estimate   =   -1866.55762513 Ry
     estimated scf accuracy    <       0.00001650 Ry

     iteration # 16     ecut=   100.00 Ry     beta=0.50
     Davidson diagonalization with overlap
     ethr =  3.96E-09,  avg # of iterations =  1.0

     total cpu time spent up to now is     4331.2 secs

     total energy              =   -1866.55761656 Ry
     Harris-Foulkes estimate   =   -1866.55762176 Ry
     estimated scf accuracy    <       0.00001030 Ry

     iteration # 17     ecut=   100.00 Ry     beta=0.50
     Davidson diagonalization with overlap
     ethr =  2.53E-09,  avg # of iterations =  4.0

     total cpu time spent up to now is     4601.9 secs

     total energy              =   -1866.55762024 Ry
     Harris-Foulkes estimate   =   -1866.55762033 Ry
     estimated scf accuracy    <       0.00000062 Ry

     iteration # 18     ecut=   100.00 Ry     beta=0.50
     Davidson diagonalization with overlap
     ethr =  1.52E-10,  avg # of iterations =  1.5

     total cpu time spent up to now is     4771.5 secs

     total energy              =   -1866.55762010 Ry
     Harris-Foulkes estimate   =   -1866.55762027 Ry
     estimated scf accuracy    <       0.00000047 Ry

     iteration # 19     ecut=   100.00 Ry     beta=0.50
     Davidson diagonalization with overlap
     ethr =  1.15E-10,  avg # of iterations =  3.1

     total cpu time spent up to now is     4956.9 secs

     total energy              =   -1866.55762014 Ry
     Harris-Foulkes estimate   =   -1866.55762015 Ry
     estimated scf accuracy    <       0.00000009 Ry

     iteration # 20     ecut=   100.00 Ry     beta=0.50
     Davidson diagonalization with overlap
     ethr =  2.11E-11,  avg # of iterations =  4.1

     total cpu time spent up to now is     5218.0 secs

     total energy              =   -1866.55762016 Ry
     Harris-Foulkes estimate   =   -1866.55762016 Ry
     estimated scf accuracy    <       0.00000001 Ry

     iteration # 21     ecut=   100.00 Ry     beta=0.50
     Davidson diagonalization with overlap
     ethr =  3.05E-12,  avg # of iterations =  4.0

     total cpu time spent up to now is     5448.7 secs

     End of self-consistent calculation

          k = 0.0000 0.0000 0.0000 (159319 PWs)   bands (ev):

   -21.3071 -21.3055 -21.2786 -21.2781 -20.6747 -20.6744 -20.6612 -20.6593
   -20.2050 -20.2049 -20.0163 -20.0161 -19.9225 -19.9224 -19.6743 -19.6740
   -19.5730 -19.5722 -19.5335 -19.5333 -15.9906 -15.9836 -15.9578 -15.9525
   -14.2707 -14.2512 -14.2498 -14.2185 -13.8516 -13.8459 -13.8351 -13.8270
   -13.0826 -13.0259 -13.0153 -13.0095 -12.6386 -12.5618 -12.5585 -12.5076
   -11.4799 -11.4410 -11.4229 -11.3531 -11.2836 -11.2493 -11.2119 -11.2032
   -10.2774 -10.2581 -10.1315 -10.1274  -9.9436  -9.9244  -9.8171  -9.7758
    -9.4655  -9.4607  -9.4028  -9.3886  -8.6445  -8.6176  -8.5331  -8.4551
    -8.3084  -8.2942  -8.1940  -8.1927  -7.7537  -7.7453  -7.4311  -7.4237
    -7.3907  -7.3821  -7.3537  -7.3170  -7.2606  -7.2498  -6.9851  -6.9649
    -6.7814  -6.7506  -6.7036  -6.6702  -6.5111  -6.4828  -6.4695  -6.4487
    -6.4155  -6.3821  -6.3803  -6.3277  -6.0781  -5.9768  -5.9239  -5.8453
    -5.7088  -5.5839  -5.5740  -5.4857  -5.4645  -5.4214  -5.2953  -5.2193
    -5.2112  -5.2021  -5.1971  -5.1909  -5.1252  -5.0027  -4.9567  -4.9123
    -4.6871  -4.6047  -4.5796  -4.5629  -4.5294  -4.4871  -4.3998  -4.3917
    -4.3343  -4.3098  -4.2783  -4.2643  -4.0700  -4.0363  -3.9720  -3.8977
    -3.8743  -3.8701  -3.7866  -3.7844  -3.7721  -3.7581  -3.7263  -3.7200
    -3.6618  -3.6359  -3.6022  -3.5975  -3.5151  -3.5037  -3.4795  -3.4693
    -3.4520  -3.3538  -3.3487  -3.3434  -3.3159  -3.2599  -3.2385  -3.2087
    -3.0827  -3.0697  -2.9783  -2.9613  -2.8901  -2.8594  -2.8395  -2.8078
    -2.7446  -2.7105  -2.6984  -2.6660  -2.6637  -2.6280  -2.5468  -2.4712
    -2.4527  -2.4497  -2.4201  -2.3956  -2.2685  -2.1969  -2.1353  -2.0949
    -1.8224  -1.7748  -1.6765  -1.6545  -1.5200  -1.5125  -1.3166  -1.2998
    -1.0241  -1.0083  -0.9353  -0.9320  -0.8711  -0.8683  -0.8338  -0.8049
    -0.7348  -0.7187  -0.6901  -0.6813  -0.5269  -0.5077  -0.3470  -0.3211
     0.0796   0.0918   0.1090   0.1277   5.1163   5.2996   5.4143   5.4532
     5.4934   5.7347   5.8398   5.8990   5.9099   6.1556   6.1700   6.1752
     6.3440   6.5601   6.5931   6.6527   6.6993   6.7572   6.8528   6.8578
     6.8822   6.9420   7.0028   7.0399   7.0533   7.0949   7.1813   7.2241
     7.2802   7.3794   7.4120   7.4274   7.4827   7.4831   7.5008   7.5573
     7.5582   7.5841   7.6551   7.6934

          k = 0.0000 0.0000-0.2651 (159424 PWs)   bands (ev):

   -21.3063 -21.3063 -21.2783 -21.2783 -20.6746 -20.6745 -20.6603 -20.6602
   -20.2049 -20.2049 -20.0162 -20.0162 -19.9225 -19.9225 -19.6742 -19.6742
   -19.5726 -19.5726 -19.5334 -19.5334 -15.9875 -15.9872 -15.9550 -15.9547
   -14.2661 -14.2654 -14.2297 -14.2290 -13.8494 -13.8492 -13.8306 -13.8304
   -13.0600 -13.0597 -13.0073 -13.0070 -12.6125 -12.6120 -12.5210 -12.5204
   -11.4666 -11.4661 -11.3841 -11.3836 -11.2651 -11.2650 -11.2074 -11.2073
   -10.2683 -10.2682 -10.1297 -10.1296  -9.9329  -9.9328  -9.7966  -9.7965
    -9.4635  -9.4634  -9.3955  -9.3955  -8.6393  -8.6390  -8.4849  -8.4845
    -8.3036  -8.3034  -8.1925  -8.1924  -7.7504  -7.7504  -7.4265  -7.4265
    -7.3854  -7.3854  -7.3401  -7.3399  -7.2526  -7.2524  -6.9755  -6.9754
    -6.7632  -6.7628  -6.6789  -6.6786  -6.5119  -6.5117  -6.4730  -6.4728
    -6.3863  -6.3858  -6.3455  -6.3452  -6.0282  -6.0281  -5.9121  -5.9121
    -5.6339  -5.6339  -5.5274  -5.5272  -5.4398  -5.4395  -5.2403  -5.2399
    -5.2062  -5.2061  -5.1977  -5.1974  -5.0655  -5.0652  -4.9393  -4.9392
    -4.6487  -4.6486  -4.5641  -4.5640  -4.5225  -4.5224  -4.3929  -4.3929
    -4.3206  -4.3203  -4.2745  -4.2744  -4.0472  -4.0469  -3.9235  -3.9232
    -3.8818  -3.8816  -3.8078  -3.8074  -3.7492  -3.7492  -3.7197  -3.7194
    -3.6585  -3.6584  -3.5906  -3.5906  -3.5178  -3.5176  -3.4596  -3.4592
    -3.3898  -3.3892  -3.3455  -3.3454  -3.3211  -3.3210  -3.2028  -3.2023
    -3.0752  -3.0752  -2.9810  -2.9809  -2.8783  -2.8780  -2.8317  -2.8316
    -2.7158  -2.7154  -2.6770  -2.6768  -2.6463  -2.6460  -2.5241  -2.5240
    -2.4462  -2.4458  -2.3929  -2.3928  -2.2464  -2.2461  -2.1081  -2.1080
    -1.8024  -1.8023  -1.6614  -1.6614  -1.5178  -1.5177  -1.3081  -1.3081
    -1.0171  -1.0170  -0.9266  -0.9263  -0.8819  -0.8816  -0.8133  -0.8132
    -0.7268  -0.7267  -0.6835  -0.6835  -0.5183  -0.5182  -0.3346  -0.3346
     0.0838   0.0841   0.1201   0.1204   5.1677   5.1679   5.4901   5.4906
     5.5487   5.5491   5.9777   5.9782   6.0099   6.0101   6.2074   6.2075
     6.3325   6.3329   6.6218   6.6218   6.7874   6.7874   6.8297   6.8303
     6.9352   6.9354   6.9822   6.9825   7.1012   7.1014   7.1924   7.1928
     7.2661   7.2661   7.4562   7.4563   7.4864   7.4868   7.5285   7.5287
     7.6177   7.6178   7.6531   7.6538

          k = 0.0000-0.3620 0.0000 (159284 PWs)   bands (ev):

   -21.3059 -21.3059 -21.2787 -21.2786 -20.6746 -20.6746 -20.6602 -20.6602
   -20.2050 -20.2050 -20.0163 -20.0163 -19.9224 -19.9224 -19.6741 -19.6741
   -19.5722 -19.5722 -19.5338 -19.5338 -15.9873 -15.9873 -15.9552 -15.9552
   -14.2568 -14.2568 -14.2332 -14.2332 -13.8488 -13.8488 -13.8313 -13.8313
   -13.0614 -13.0614 -13.0320 -13.0320 -12.5925 -12.5925 -12.5246 -12.5246
   -11.4833 -11.4833 -11.3629 -11.3629 -11.2533 -11.2533 -11.1920 -11.1920
   -10.2792 -10.2792 -10.1277 -10.1277  -9.9329  -9.9329  -9.7881  -9.7881
    -9.4845  -9.4845  -9.4381  -9.4381  -8.5912  -8.5912  -8.5062  -8.5062
    -8.3136  -8.3136  -8.1784  -8.1784  -7.7640  -7.7640  -7.4254  -7.4254
    -7.4079  -7.4079  -7.2823  -7.2823  -7.2537  -7.2537  -6.9563  -6.9563
    -6.7573  -6.7573  -6.6934  -6.6934  -6.5086  -6.5086  -6.4475  -6.4475
    -6.4206  -6.4206  -6.3710  -6.3710  -6.0137  -6.0137  -5.8694  -5.8694
    -5.6528  -5.6528  -5.5388  -5.5388  -5.3855  -5.3855  -5.3037  -5.3037
    -5.2113  -5.2113  -5.1812  -5.1812  -5.1060  -5.1060  -4.9224  -4.9224
    -4.6609  -4.6609  -4.5855  -4.5855  -4.5208  -4.5208  -4.4203  -4.4203
    -4.3103  -4.3103  -4.2441  -4.2441  -4.0467  -4.0467  -3.9610  -3.9610
    -3.9021  -3.9021  -3.8059  -3.8059  -3.7485  -3.7485  -3.6345  -3.6345
    -3.6146  -3.6146  -3.5719  -3.5719  -3.5518  -3.5518  -3.4281  -3.4281
    -3.4102  -3.4102  -3.3625  -3.3625  -3.2670  -3.2670  -3.2060  -3.2060
    -3.0605  -3.0605  -3.0102  -3.0102  -2.9329  -2.9329  -2.8962  -2.8962
    -2.8758  -2.8758  -2.5800  -2.5800  -2.5239  -2.5239  -2.4839  -2.4839
    -2.4577  -2.4577  -2.3836  -2.3836  -2.2733  -2.2733  -2.1107  -2.1107
    -1.7970  -1.7970  -1.6886  -1.6886  -1.4974  -1.4974  -1.3104  -1.3104
    -1.0233  -1.0233  -0.9207  -0.9207  -0.8898  -0.8898  -0.8183  -0.8183
    -0.7190  -0.7190  -0.6864  -0.6864  -0.4873  -0.4873  -0.3666  -0.3666
     0.0942   0.0942   0.1074   0.1074   5.1632   5.1632   5.3728   5.3728
     5.7213   5.7213   5.9250   5.9250   6.0060   6.0060   6.4265   6.4265
     6.4513   6.4513   6.5913   6.5913   6.6754   6.6754   6.7111   6.7111
     6.8811   6.8811   7.0136   7.0136   7.0549   7.0549   7.1211   7.1211
     7.1826   7.1826   7.2867   7.2867   7.4015   7.4015   7.5571   7.5571
     7.6328   7.6328   7.7360   7.7360

          k = 0.0000-0.3620-0.2651 (159188 PWs)   bands (ev):

   -21.3059 -21.3059 -21.2787 -21.2787 -20.6746 -20.6746 -20.6602 -20.6602
   -20.2050 -20.2050 -20.0163 -20.0163 -19.9224 -19.9224 -19.6741 -19.6741
   -19.5722 -19.5722 -19.5338 -19.5338 -15.9873 -15.9873 -15.9552 -15.9552
   -14.2563 -14.2563 -14.2338 -14.2338 -13.8489 -13.8489 -13.8312 -13.8312
   -13.0560 -13.0560 -13.0373 -13.0373 -12.5942 -12.5942 -12.5233 -12.5233
   -11.4749 -11.4749 -11.3733 -11.3733 -11.2509 -11.2509 -11.1927 -11.1927
   -10.2789 -10.2789 -10.1279 -10.1279  -9.9296  -9.9296  -9.7907  -9.7907
    -9.4849  -9.4849  -9.4379  -9.4379  -8.5912  -8.5912  -8.5073  -8.5073
    -8.3128  -8.3128  -8.1779  -8.1779  -7.7644  -7.7644  -7.4251  -7.4251
    -7.4077  -7.4077  -7.2751  -7.2751  -7.2625  -7.2625  -6.9550  -6.9550
    -6.7607  -6.7607  -6.6880  -6.6880  -6.4965  -6.4965  -6.4776  -6.4776
    -6.4176  -6.4176  -6.3505  -6.3505  -6.0148  -6.0148  -5.8883  -5.8883
    -5.6644  -5.6644  -5.5156  -5.5156  -5.3890  -5.3890  -5.2907  -5.2907
    -5.2029  -5.2029  -5.1688  -5.1688  -5.1244  -5.1244  -4.9301  -4.9301
    -4.6705  -4.6705  -4.5920  -4.5920  -4.5066  -4.5066  -4.4203  -4.4203
    -4.3159  -4.3159  -4.2453  -4.2453  -4.0506  -4.0506  -3.9425  -3.9425
    -3.8900  -3.8900  -3.8244  -3.8244  -3.7535  -3.7535  -3.6871  -3.6871
    -3.5988  -3.5988  -3.5519  -3.5519  -3.4986  -3.4986  -3.4647  -3.4647
    -3.3836  -3.3836  -3.3803  -3.3803  -3.2413  -3.2413  -3.2404  -3.2404
    -3.0525  -3.0525  -2.9863  -2.9863  -2.9685  -2.9685  -2.8918  -2.8918
    -2.8791  -2.8791  -2.5644  -2.5644  -2.5268  -2.5268  -2.5109  -2.5109
    -2.4415  -2.4415  -2.3839  -2.3839  -2.2650  -2.2650  -2.1154  -2.1154
    -1.7986  -1.7986  -1.6861  -1.6861  -1.4991  -1.4991  -1.3101  -1.3101
    -1.0229  -1.0229  -0.9269  -0.9269  -0.8832  -0.8832  -0.8187  -0.8187
    -0.7161  -0.7161  -0.6886  -0.6886  -0.4868  -0.4868  -0.3682  -0.3682
     0.0932   0.0932   0.1088   0.1088   5.1698   5.1698   5.3266   5.3266
     5.8373   5.8373   5.8977   5.8977   6.1268   6.1268   6.1474   6.1474
     6.4741   6.4741   6.5939   6.5939   6.6930   6.6930   6.7369   6.7369
     6.9142   6.9142   6.9287   6.9287   7.1159   7.1159   7.1856   7.1856
     7.2529   7.2529   7.3548   7.3548   7.3873   7.3873   7.4423   7.4423
     7.5983   7.5984   7.7000   7.7000

          k = 0.3333 0.0000 0.0000 (159231 PWs)   bands (ev):

   -21.2993 -21.2979 -21.2850 -21.2842 -20.6711 -20.6704 -20.6643 -20.6628
   -20.1808 -20.1804 -20.1043 -20.1039 -19.8235 -19.8232 -19.7187 -19.7182
   -19.5597 -19.5588 -19.5412 -19.5406 -15.9808 -15.9746 -15.9643 -15.9589
   -14.2651 -14.2554 -14.2414 -14.2256 -13.8445 -13.8418 -13.8362 -13.8322
   -13.0702 -13.0403 -13.0175 -13.0055 -12.6105 -12.5651 -12.5643 -12.5427
   -11.4658 -11.4388 -11.4180 -11.3721 -11.2725 -11.2424 -11.2329 -11.2039
   -10.2569 -10.2496 -10.1881 -10.1793  -9.9015  -9.8699  -9.8406  -9.7970
    -9.4745  -9.4435  -9.4148  -9.3775  -8.6413  -8.5855  -8.5524  -8.4704
    -8.2938  -8.2737  -8.2429  -8.2228  -7.6939  -7.6738  -7.5270  -7.5163
    -7.3223  -7.3200  -7.2976  -7.2829  -7.2354  -7.2142  -7.0536  -7.0426
    -6.8080  -6.7672  -6.7463  -6.6915  -6.5002  -6.4966  -6.4538  -6.4513
    -6.3272  -6.2881  -6.2685  -6.2581  -6.1463  -6.0180  -5.9804  -5.9444
    -5.6618  -5.6160  -5.5824  -5.5105  -5.4894  -5.3870  -5.3676  -5.2492
    -5.1549  -5.1497  -5.1293  -5.1140  -5.0567  -5.0269  -4.9890  -4.9244
    -4.6978  -4.6369  -4.6191  -4.5885  -4.5180  -4.4743  -4.4575  -4.4000
    -4.3330  -4.3166  -4.3065  -4.2850  -4.0442  -3.9916  -3.9500  -3.9317
    -3.8975  -3.8414  -3.8289  -3.8208  -3.7972  -3.7686  -3.7509  -3.7157
    -3.6824  -3.6584  -3.6280  -3.6276  -3.5226  -3.4932  -3.4770  -3.4514
    -3.4274  -3.3896  -3.3698  -3.3382  -3.3322  -3.3161  -3.2068  -3.1788
    -3.0314  -3.0249  -2.9909  -2.9552  -2.8583  -2.8256  -2.8014  -2.7918
    -2.7328  -2.7323  -2.7220  -2.6990  -2.6349  -2.6031  -2.5210  -2.4758
    -2.4643  -2.4586  -2.4183  -2.4113  -2.2135  -2.1526  -2.1169  -2.1127
    -1.7836  -1.7591  -1.7101  -1.6937  -1.4543  -1.4373  -1.3356  -1.3269
    -1.0486  -1.0403  -1.0155  -0.9973  -0.8533  -0.8323  -0.8050  -0.7926
    -0.7153  -0.7046  -0.6909  -0.6888  -0.4994  -0.4790  -0.3957  -0.3792
     0.0840   0.0884   0.1031   0.1183   5.2663   5.4387   5.5377   5.5937
     5.6128   5.7266   5.8650   5.9024   5.9757   5.9952   6.1018   6.2926
     6.3448   6.3528   6.4553   6.5125   6.5373   6.6081   6.6409   6.7371
     6.7788   6.9015   6.9247   6.9693   6.9946   7.0625   7.0936   7.1400
     7.1573   7.2014   7.2648   7.3193   7.3889   7.5333   7.5384   7.6090
     7.6892   7.7149   7.7996   7.8944

          k = 0.3333 0.0000-0.2651 (159184 PWs)   bands (ev):

   -21.2986 -21.2986 -21.2846 -21.2845 -20.6708 -20.6707 -20.6635 -20.6634
   -20.1806 -20.1806 -20.1041 -20.1041 -19.8234 -19.8234 -19.7184 -19.7184
   -19.5593 -19.5592 -19.5409 -19.5409 -15.9785 -15.9779 -15.9614 -15.9609
   -14.2618 -14.2609 -14.2329 -14.2320 -13.8435 -13.8433 -13.8341 -13.8338
   -13.0547 -13.0543 -13.0128 -13.0123 -12.5943 -12.5938 -12.5471 -12.5465
   -11.4456 -11.4452 -11.4052 -11.4047 -11.2620 -11.2616 -11.2113 -11.2109
   -10.2537 -10.2537 -10.1840 -10.1839  -9.8856  -9.8853  -9.8180  -9.8178
    -9.4631  -9.4628  -9.3925  -9.3922  -8.6230  -8.6224  -8.5035  -8.5028
    -8.2877  -8.2871  -8.2286  -8.2282  -7.6841  -7.6840  -7.5214  -7.5214
    -7.3171  -7.3166  -7.2973  -7.2966  -7.2221  -7.2221  -7.0481  -7.0480
    -6.7851  -6.7845  -6.7214  -6.7210  -6.4931  -6.4927  -6.4610  -6.4608
    -6.3330  -6.3326  -6.2440  -6.2436  -6.0801  -6.0799  -5.9627  -5.9626
    -5.6503  -5.6502  -5.5253  -5.5249  -5.4500  -5.4497  -5.2966  -5.2959
    -5.1459  -5.1456  -5.1199  -5.1195  -5.0582  -5.0580  -4.9557  -4.9556
    -4.6713  -4.6712  -4.5979  -4.5978  -4.5009  -4.5005  -4.4306  -4.4302
    -4.3255  -4.3251  -4.2950  -4.2947  -4.0094  -4.0093  -3.9464  -3.9463
    -3.8768  -3.8762  -3.8148  -3.8147  -3.7790  -3.7787  -3.7185  -3.7181
    -3.6856  -3.6854  -3.6358  -3.6354  -3.5238  -3.5235  -3.4529  -3.4526
    -3.3902  -3.3900  -3.3798  -3.3795  -3.3056  -3.3052  -3.1951  -3.1945
    -3.0325  -3.0323  -2.9731  -2.9730  -2.8456  -2.8453  -2.7919  -2.7914
    -2.7430  -2.7425  -2.6897  -2.6895  -2.6252  -2.6251  -2.5076  -2.5075
    -2.4440  -2.4436  -2.4292  -2.4292  -2.1838  -2.1836  -2.1119  -2.1118
    -1.7737  -1.7737  -1.6999  -1.6998  -1.4467  -1.4466  -1.3303  -1.3303
    -1.0447  -1.0445  -1.0058  -1.0054  -0.8454  -0.8451  -0.7971  -0.7967
    -0.7098  -0.7096  -0.6888  -0.6887  -0.4894  -0.4894  -0.3875  -0.3875
     0.0854   0.0858   0.1105   0.1108   5.3264   5.3265   5.5697   5.5701
     5.6994   5.6999   5.8448   5.8452   6.0794   6.0796   6.1423   6.1423
     6.3537   6.3540   6.4750   6.4753   6.5431   6.5434   6.7251   6.7259
     6.8091   6.8094   6.9010   6.9014   7.0332   7.0335   7.1659   7.1666
     7.2516   7.2519   7.2923   7.2925   7.3644   7.3645   7.5308   7.5314
     7.7280   7.7281   7.8399   7.8403

          k = 0.3333-0.3620 0.0000 (159286 PWs)   bands (ev):

   -21.2984 -21.2984 -21.2847 -21.2847 -20.6708 -20.6708 -20.6635 -20.6635
   -20.1806 -20.1806 -20.1042 -20.1042 -19.8233 -19.8233 -19.7183 -19.7183
   -19.5591 -19.5591 -19.5411 -19.5411 -15.9779 -15.9779 -15.9617 -15.9617
   -14.2511 -14.2511 -14.2383 -14.2383 -13.8426 -13.8426 -13.8338 -13.8338
   -13.0581 -13.0581 -13.0330 -13.0330 -12.5819 -12.5819 -12.5476 -12.5476
   -11.4648 -11.4648 -11.3876 -11.3876 -11.2351 -11.2351 -11.2036 -11.2036
   -10.2556 -10.2556 -10.1802 -10.1802  -9.8899  -9.8899  -9.8151  -9.8151
    -9.4745  -9.4745  -9.4505  -9.4505  -8.5699  -8.5699  -8.5248  -8.5248
    -8.2898  -8.2898  -8.2272  -8.2272  -7.6790  -7.6790  -7.5077  -7.5077
    -7.3302  -7.3302  -7.2816  -7.2816  -7.2235  -7.2235  -7.0369  -7.0369
    -6.7779  -6.7779  -6.7387  -6.7387  -6.4883  -6.4883  -6.4579  -6.4579
    -6.3113  -6.3113  -6.2634  -6.2634  -6.0626  -6.0626  -5.9684  -5.9684
    -5.6330  -5.6330  -5.5728  -5.5728  -5.3855  -5.3855  -5.3296  -5.3296
    -5.1722  -5.1722  -5.1198  -5.1198  -5.0622  -5.0622  -4.9361  -4.9361
    -4.7048  -4.7048  -4.6382  -4.6382  -4.5004  -4.5004  -4.4278  -4.4277
    -4.3078  -4.3078  -4.2642  -4.2642  -4.0270  -4.0270  -3.9836  -3.9836
    -3.8588  -3.8588  -3.7950  -3.7950  -3.7350  -3.7350  -3.7212  -3.7212
    -3.6574  -3.6574  -3.6067  -3.6067  -3.4986  -3.4986  -3.4450  -3.4450
    -3.4287  -3.4287  -3.3882  -3.3882  -3.3034  -3.3034  -3.2403  -3.2403
    -3.0604  -3.0604  -2.9794  -2.9794  -2.9407  -2.9407  -2.8834  -2.8834
    -2.7337  -2.7337  -2.6074  -2.6074  -2.5300  -2.5300  -2.4781  -2.4781
    -2.4537  -2.4537  -2.4020  -2.4020  -2.2055  -2.2055  -2.0982  -2.0982
    -1.7625  -1.7625  -1.6986  -1.6986  -1.4461  -1.4461  -1.3514  -1.3514
    -1.0422  -1.0422  -0.9978  -0.9978  -0.8380  -0.8380  -0.8123  -0.8123
    -0.7126  -0.7126  -0.6935  -0.6935  -0.4779  -0.4779  -0.4080  -0.4080
     0.0909   0.0909   0.1053   0.1053   5.3041   5.3041   5.4676   5.4676
     5.7896   5.7896   5.9251   5.9251   6.0188   6.0188   6.2043   6.2043
     6.4201   6.4201   6.4451   6.4451   6.5647   6.5648   6.7139   6.7139
     6.7948   6.7948   6.9097   6.9097   7.0549   7.0549   7.0708   7.0708
     7.1928   7.1928   7.3407   7.3407   7.5110   7.5110   7.5536   7.5536
     7.7050   7.7050   7.7930   7.7930

          k = 0.3333-0.3620-0.2651 (159232 PWs)   bands (ev):

   -21.2984 -21.2984 -21.2847 -21.2847 -20.6708 -20.6708 -20.6635 -20.6635
   -20.1806 -20.1806 -20.1042 -20.1042 -19.8233 -19.8233 -19.7183 -19.7183
   -19.5591 -19.5591 -19.5411 -19.5411 -15.9779 -15.9779 -15.9617 -15.9617
   -14.2504 -14.2504 -14.2391 -14.2391 -13.8426 -13.8426 -13.8338 -13.8338
   -13.0503 -13.0503 -13.0409 -13.0409 -12.5825 -12.5825 -12.5471 -12.5471
   -11.4518 -11.4518 -11.4021 -11.4021 -11.2328 -11.2328 -11.2049 -11.2049
   -10.2552 -10.2552 -10.1799 -10.1799  -9.8865  -9.8865  -9.8185  -9.8185
    -9.4739  -9.4739  -9.4510  -9.4510  -8.5671  -8.5671  -8.5284  -8.5284
    -8.2892  -8.2892  -8.2275  -8.2275  -7.6790  -7.6790  -7.5078  -7.5078
    -7.3281  -7.3281  -7.2813  -7.2813  -7.2250  -7.2250  -7.0359  -7.0359
    -6.7783  -6.7783  -6.7382  -6.7382  -6.4858  -6.4858  -6.4693  -6.4693
    -6.2873  -6.2873  -6.2837  -6.2837  -6.0638  -6.0638  -5.9643  -5.9643
    -5.6361  -5.6361  -5.5688  -5.5688  -5.3759  -5.3759  -5.3391  -5.3391
    -5.1485  -5.1485  -5.1406  -5.1406  -5.0579  -5.0579  -4.9387  -4.9387
    -4.7096  -4.7096  -4.6412  -4.6412  -4.4847  -4.4847  -4.4495  -4.4495
    -4.3038  -4.3038  -4.2657  -4.2657  -4.0199  -4.0199  -3.9780  -3.9780
    -3.8463  -3.8463  -3.8197  -3.8197  -3.7417  -3.7417  -3.7389  -3.7389
    -3.6078  -3.6078  -3.5967  -3.5967  -3.5030  -3.5030  -3.5012  -3.5012
    -3.4014  -3.4014  -3.3887  -3.3887  -3.2730  -3.2730  -3.2719  -3.2719
    -3.0356  -3.0356  -2.9882  -2.9882  -2.9485  -2.9485  -2.8873  -2.8873
    -2.7310  -2.7310  -2.6059  -2.6059  -2.5280  -2.5280  -2.4929  -2.4929
    -2.4303  -2.4303  -2.4247  -2.4247  -2.1849  -2.1849  -2.1097  -2.1097
    -1.7617  -1.7617  -1.6992  -1.6992  -1.4461  -1.4461  -1.3512  -1.3512
    -1.0402  -1.0402  -0.9999  -0.9999  -0.8360  -0.8360  -0.8151  -0.8151
    -0.7107  -0.7107  -0.6939  -0.6939  -0.4774  -0.4774  -0.4086  -0.4086
     0.0930   0.0930   0.1028   0.1028   5.3179   5.3179   5.4314   5.4314
     5.8344   5.8344   5.8924   5.8924   6.1011   6.1011   6.1703   6.1703
     6.3820   6.3820   6.4418   6.4418   6.6315   6.6315   6.6335   6.6335
     6.7987   6.7987   6.9016   6.9016   6.9928   6.9928   7.1098   7.1098
     7.2065   7.2065   7.3782   7.3783   7.5423   7.5423   7.5492   7.5492
     7.6703   7.6704   7.7476   7.7476

     highest occupied, lowest unoccupied level (ev):     0.1277    5.1163

!    total energy              =   -1866.55762016 Ry
     Harris-Foulkes estimate   =   -1866.55762016 Ry
     estimated scf accuracy    <          4.9E-10 Ry

     total all-electron energy =     -6910.310737 Ry

     The total energy is the sum of the following terms:

     one-electron contribution =   -1510.23266762 Ry
     hartree contribution      =     902.62892458 Ry
     xc contribution           =    -419.07848732 Ry
     ewald contribution        =    -323.24249969 Ry
     Dispersion Correction     =      -0.68281746 Ry
     one-center paw contrib.   =    -515.95007265 Ry

     convergence has been achieved in  21 iterations

     Forces acting on atoms (cartesian axes, Ry/au):

     atom    1 type  4   force =    -0.00068561    0.00012568   -0.00081072
     atom    2 type  4   force =    -0.00068194   -0.00009306    0.00077813
     atom    3 type  4   force =     0.00068556    0.00012629    0.00081103
     atom    4 type  4   force =     0.00068211   -0.00009236   -0.00077775
     atom    5 type  4   force =    -0.00035449   -0.00045780    0.00092194
     atom    6 type  4   force =    -0.00031108    0.00048244   -0.00092864
     atom    7 type  4   force =     0.00035630   -0.00045661   -0.00092171
     atom    8 type  4   force =     0.00030903    0.00048352    0.00092895
     atom    9 type  4   force =    -0.00059131    0.00007170    0.00002739
     atom   10 type  4   force =    -0.00087288   -0.00007632    0.00013689
     atom   11 type  4   force =     0.00059095    0.00006518   -0.00002770
     atom   12 type  4   force =     0.00087323   -0.00008242   -0.00013727
     atom   13 type  4   force =     0.00055925   -0.00089497   -0.00068954
     atom   14 type  4   force =     0.00054934    0.00082480    0.00076848
     atom   15 type  4   force =    -0.00055977   -0.00089606    0.00068952
     atom   16 type  4   force =    -0.00054837    0.00082362   -0.00076836
     atom   17 type  4   force =     0.00098930   -0.00071299    0.00022466
     atom   18 type  4   force =     0.00070728    0.00045556   -0.00063513
     atom   19 type  4   force =    -0.00098917   -0.00071856   -0.00022418
     atom   20 type  4   force =    -0.00070743    0.00044998    0.00063566
     atom   21 type  2   force =     0.00063724   -0.00024461   -0.00016047
     atom   22 type  2   force =     0.00067820    0.00022790    0.00013920
     atom   23 type  2   force =    -0.00063665   -0.00024342    0.00016032
     atom   24 type  2   force =    -0.00067894    0.00022885   -0.00013923
     atom   25 type  1   force =    -0.00121349   -0.00027327    0.00035278
     atom   26 type  1   force =    -0.00126993    0.00021899   -0.00035277
     atom   27 type  1   force =     0.00121283   -0.00024480   -0.00035250
     atom   28 type  1   force =     0.00127036    0.00024761    0.00035311
     atom   29 type  1   force =     0.00017949   -0.00000103   -0.00029193
     atom   30 type  1   force =     0.00018293   -0.00001317    0.00031479
     atom   31 type  1   force =    -0.00018051    0.00002881    0.00029203
     atom   32 type  1   force =    -0.00018222    0.00001645   -0.00031513
     atom   33 type  1   force =    -0.00011209   -0.00004264    0.00058031
     atom   34 type  1   force =    -0.00026244   -0.00009252   -0.00059535
     atom   35 type  1   force =     0.00011229   -0.00002672   -0.00058030
     atom   36 type  1   force =     0.00026267   -0.00007682    0.00059524
     atom   37 type  1   force =    -0.00086672    0.00047936    0.00088763
     atom   38 type  1   force =    -0.00103767   -0.00030964   -0.00089107
     atom   39 type  1   force =     0.00086686    0.00048028   -0.00088730
     atom   40 type  1   force =     0.00103742   -0.00030835    0.00089135
     atom   41 type  1   force =     0.00024392    0.00000894   -0.00017761
     atom   42 type  1   force =     0.00002941   -0.00013758    0.00014502
     atom   43 type  1   force =    -0.00024420   -0.00000723    0.00017752
     atom   44 type  1   force =    -0.00002925   -0.00015393   -0.00014493
     atom   45 type  1   force =    -0.00013577    0.00016736    0.00007767
     atom   46 type  1   force =    -0.00014606   -0.00017200   -0.00006349
     atom   47 type  1   force =     0.00013544    0.00015578   -0.00007791
     atom   48 type  1   force =     0.00014639   -0.00018487    0.00006322
     atom   49 type  1   force =    -0.00033830   -0.00011819    0.00022832
     atom   50 type  1   force =    -0.00022184    0.00011271   -0.00024729
     atom   51 type  1   force =     0.00033717   -0.00010239   -0.00022838
     atom   52 type  1   force =     0.00022293    0.00012894    0.00024712
     atom   53 type  1   force =    -0.00083149    0.00008757    0.00017912
     atom   54 type  1   force =    -0.00052205    0.00012125    0.00001415
     atom   55 type  1   force =     0.00083216    0.00004533   -0.00017935
     atom   56 type  1   force =     0.00052146    0.00007909   -0.00001438
     atom   57 type  1   force =     0.00101560   -0.00015825    0.00015386
     atom   58 type  1   force =     0.00113349    0.00019076   -0.00005994
     atom   59 type  1   force =    -0.00101494   -0.00018133   -0.00015388
     atom   60 type  1   force =    -0.00113444    0.00016755    0.00005982
     atom   61 type  1   force =     0.00041659    0.00009050    0.00018420
     atom   62 type  1   force =     0.00045939   -0.00009345   -0.00022510
     atom   63 type  1   force =    -0.00041742    0.00010596   -0.00018396
     atom   64 type  1   force =    -0.00045867   -0.00007854    0.00022532
     atom   65 type  1   force =     0.00053814   -0.00002260    0.00025453
     atom   66 type  1   force =     0.00042401    0.00002886   -0.00028265
     atom   67 type  1   force =    -0.00053770   -0.00003178   -0.00025463
     atom   68 type  1   force =    -0.00042443    0.00001991    0.00028269
     atom   69 type  3   force =    -0.00019299   -0.00000708   -0.00023561
     atom   70 type  3   force =     0.00000609    0.00003285    0.00006206
     atom   71 type  3   force =     0.00019315   -0.00000688    0.00023563
     atom   72 type  3   force =    -0.00000623    0.00003292   -0.00006199
     atom   73 type  3   force =    -0.00045911    0.00061220   -0.00019824
     atom   74 type  3   force =    -0.00046281   -0.00055196    0.00012944
     atom   75 type  3   force =     0.00045900    0.00061180    0.00019811
     atom   76 type  3   force =     0.00046292   -0.00055236   -0.00012961
     atom   77 type  3   force =    -0.00036931    0.00024433    0.00019733
     atom   78 type  3   force =    -0.00017025   -0.00011962    0.00012403
     atom   79 type  3   force =     0.00036953    0.00024384   -0.00019766
     atom   80 type  3   force =     0.00017003   -0.00012007   -0.00012437
     atom   81 type  3   force =     0.00116690   -0.00093084   -0.00035406
     atom   82 type  3   force =     0.00123284    0.00093848    0.00036494
     atom   83 type  3   force =    -0.00116688   -0.00093065    0.00035395
     atom   84 type  3   force =    -0.00123285    0.00093868   -0.00036505
     atom   85 type  3   force =     0.00015119    0.00055696    0.00028631
     atom   86 type  3   force =     0.00016615   -0.00056059   -0.00029253
     atom   87 type  3   force =    -0.00015122    0.00055702   -0.00028609
     atom   88 type  3   force =    -0.00016615   -0.00056059    0.00029256
     atom   89 type  3   force =    -0.00026382    0.00100542    0.00026821
     atom   90 type  3   force =    -0.00023366   -0.00096271   -0.00026268
     atom   91 type  3   force =     0.00026447    0.00100635   -0.00026830
     atom   92 type  3   force =     0.00023311   -0.00096183    0.00026260
     atom   93 type  3   force =    -0.00020943   -0.00039597    0.00049418
     atom   94 type  3   force =    -0.00023023    0.00041278   -0.00047006
     atom   95 type  3   force =     0.00020930   -0.00039610   -0.00049434
     atom   96 type  3   force =     0.00023041    0.00041265    0.00046991
     atom   97 type  3   force =     0.00043326   -0.00067143    0.00038921
     atom   98 type  3   force =     0.00041572    0.00058216   -0.00038920
     atom   99 type  3   force =    -0.00043334   -0.00067195   -0.00038926
     atom  100 type  3   force =    -0.00041570    0.00058187    0.00038917
     atom  101 type  3   force =     0.00037291    0.00059148   -0.00006105
     atom  102 type  3   force =     0.00041560   -0.00052904    0.00007009
     atom  103 type  3   force =    -0.00037341    0.00059041    0.00006109
     atom  104 type  3   force =    -0.00041508   -0.00053006   -0.00007007
     atom  105 type  3   force =    -0.00023806    0.00025486   -0.00008952
     atom  106 type  3   force =    -0.00022783   -0.00025644    0.00007882
     atom  107 type  3   force =     0.00023805    0.00025480    0.00008945
     atom  108 type  3   force =     0.00022787   -0.00025650   -0.00007894
     atom  109 type  3   force =     0.00013955    0.00007979    0.00019914
     atom  110 type  3   force =     0.00013667   -0.00009351   -0.00019670
     atom  111 type  3   force =    -0.00013947    0.00007992   -0.00019925
     atom  112 type  3   force =    -0.00013670   -0.00009336    0.00019661
     atom  113 type  3   force =     0.00054650    0.00038401    0.00034207
     atom  114 type  3   force =     0.00053349   -0.00037705   -0.00033594
     atom  115 type  3   force =    -0.00054649    0.00038380   -0.00034209
     atom  116 type  3   force =    -0.00053347   -0.00037724    0.00033596
     atom  117 type  3   force =    -0.00022750    0.00008065    0.00029112
     atom  118 type  3   force =    -0.00024101   -0.00005701   -0.00028773
     atom  119 type  3   force =     0.00022757    0.00008080   -0.00029117
     atom  120 type  3   force =     0.00024091   -0.00005685    0.00028765
     atom  121 type  3   force =    -0.00027532    0.00089428   -0.00033552
     atom  122 type  3   force =    -0.00030710   -0.00090947    0.00034075
     atom  123 type  3   force =     0.00027529    0.00089433    0.00033557
     atom  124 type  3   force =     0.00030719   -0.00090942   -0.00034074
     atom  125 type  3   force =    -0.00101355   -0.00065958   -0.00013108
     atom  126 type  3   force =    -0.00104286    0.00068091    0.00014265
     atom  127 type  3   force =     0.00101382   -0.00065976    0.00013116
     atom  128 type  3   force =     0.00104267    0.00068078   -0.00014259
     atom  129 type  3   force =    -0.00022185    0.00040537    0.00042285
     atom  130 type  3   force =    -0.00035224   -0.00042534   -0.00052251
     atom  131 type  3   force =     0.00022161    0.00040487   -0.00042268
     atom  132 type  3   force =     0.00035249   -0.00042584    0.00052266
     atom  133 type  3   force =     0.00036217    0.00049175    0.00006708
     atom  134 type  3   force =     0.00032029   -0.00049277   -0.00010105
     atom  135 type  3   force =    -0.00036215    0.00049164   -0.00006721
     atom  136 type  3   force =    -0.00032022   -0.00049287    0.00010105
     atom  137 type  3   force =     0.00028574   -0.00005132   -0.00004424
     atom  138 type  3   force =     0.00029053    0.00004692    0.00003971
     atom  139 type  3   force =    -0.00028608   -0.00005078    0.00004404
     atom  140 type  3   force =    -0.00029017    0.00004746   -0.00003992
     atom  141 type  3   force =     0.00013230   -0.00071072    0.00047638
     atom  142 type  3   force =     0.00015494    0.00070814   -0.00045640
     atom  143 type  3   force =    -0.00013227   -0.00071064   -0.00047643
     atom  144 type  3   force =    -0.00015497    0.00070824    0.00045634
     atom  145 type  3   force =     0.00062540    0.00033900    0.00021776
     atom  146 type  3   force =     0.00061898   -0.00034283   -0.00020737
     atom  147 type  3   force =    -0.00062538    0.00033915   -0.00021750
     atom  148 type  3   force =    -0.00061900   -0.00034269    0.00020765
     atom  149 type  3   force =    -0.00056195    0.00015953   -0.00050345
     atom  150 type  3   force =    -0.00053207   -0.00016230    0.00051401
     atom  151 type  3   force =     0.00056183    0.00015955    0.00050350
     atom  152 type  3   force =     0.00053216   -0.00016229   -0.00051398
     atom  153 type  3   force =     0.00046736    0.00006255    0.00043704
     atom  154 type  3   force =     0.00047706   -0.00007003   -0.00043120
     atom  155 type  3   force =    -0.00046735    0.00006298   -0.00043709
     atom  156 type  3   force =    -0.00047701   -0.00006956    0.00043115
     atom  157 type  3   force =    -0.00006319   -0.00063906    0.00023739
     atom  158 type  3   force =    -0.00005046    0.00063975   -0.00022814
     atom  159 type  3   force =     0.00006296   -0.00063953   -0.00023738
     atom  160 type  3   force =     0.00005070    0.00063922    0.00022817

     Total force =     0.010284     Total SCF correction =     0.000043


     Computing stress (Cartesian axis) and pressure

          total   stress  (Ry/bohr**3)                   (kbar)     P=   -6.41
  -0.00005413   0.00000000   0.00000002         -7.96      0.00      0.00
   0.00000000  -0.00002299  -0.00000000          0.00     -3.38     -0.00
   0.00000002  -0.00000000  -0.00005370          0.00     -0.00     -7.90


     Writing output data file scf.save
 
     init_run     :    105.30s CPU    108.67s WALL (       1 calls)
     electrons    :   5164.14s CPU   5339.51s WALL (       1 calls)
     forces       :     50.14s CPU     50.59s WALL (       1 calls)
     stress       :    253.98s CPU    254.57s WALL (       1 calls)

     Called by init_run:
     wfcinit      :     96.14s CPU     99.30s WALL (       1 calls)
     potinit      :      3.18s CPU      3.22s WALL (       1 calls)

     Called by electrons:
     c_bands      :   4676.77s CPU   4826.88s WALL (      21 calls)
     sum_band     :    457.62s CPU    479.51s WALL (      21 calls)
     v_of_rho     :      4.05s CPU      4.46s WALL (      22 calls)
     newd         :     10.84s CPU     13.76s WALL (      22 calls)
     PAW_pot      :     13.69s CPU     13.70s WALL (      22 calls)
     mix_rho      :      1.10s CPU      1.21s WALL (      21 calls)

     Called by c_bands:
     init_us_2    :     21.93s CPU     22.05s WALL (     360 calls)
     cegterg      :   4598.70s CPU   4748.43s WALL (     168 calls)

     Called by sum_band:
     sum_band:bec :      0.21s CPU      0.21s WALL (     168 calls)
     addusdens    :     10.91s CPU     13.75s WALL (      21 calls)

     Called by *egterg:
     h_psi        :   2387.89s CPU   2507.60s WALL (     778 calls)
     s_psi        :    598.39s CPU    598.52s WALL (     778 calls)
     g_psi        :      9.74s CPU      9.74s WALL (     602 calls)
     cdiaghg      :    206.22s CPU    206.26s WALL (     770 calls)

     Called by h_psi:
     h_psi:pot    :   2373.42s CPU   2492.91s WALL (     778 calls)
     h_psi:calbec :    591.08s CPU    591.77s WALL (     778 calls)
     vloc_psi     :   1182.93s CPU   1301.59s WALL (     778 calls)
     add_vuspsi   :    599.41s CPU    599.55s WALL (     778 calls)

     General routines
     calbec       :    847.97s CPU    848.99s WALL (     986 calls)
     fft          :      8.18s CPU      8.86s WALL (     310 calls)
     fftw         :   1238.50s CPU   1375.34s WALL (  275302 calls)
 
     Parallel routines
     fft_scatter  :    240.04s CPU    375.63s WALL (  275612 calls)
 
     PWSCF        :     1h33m CPU        1h37m WALL

 
   This run was terminated on:  14:20:22  20Dec2017            

=------------------------------------------------------------------------------=
   JOB DONE.
=------------------------------------------------------------------------------=
