
     Program PWSCF v.6.1 (svn rev. 13369) starts on 15Dec2017 at  5:36:16 

     This program is part of the open-source Quantum ESPRESSO suite
     for quantum simulation of materials; please cite
         "P. Giannozzi et al., J. Phys.:Condens. Matter 21 395502 (2009);
          URL http://www.quantum-espresso.org", 
     in publications or presentations arising from this work. More details at
     http://www.quantum-espresso.org/quote

     Parallel version (MPI), running on     8 processors
     R & G space division:  proc/nbgrp/npool/nimage =       8
     Waiting for input...
     Reading input from standard input

     Current dimensions of program PWSCF are:
     Max number of different atomic species (ntypx) = 10
     Max number of k-points (npk) =  40000
     Max angular momentum in pseudopotentials (lmaxx) =  3
               file C.pbe-n-kjpaw_psl.0.1.UPF: wavefunction(s)  2P renormalized
               file N.pbe-n-kjpaw_psl.0.1.UPF: wavefunction(s)  2P renormalized
               file H.pbe-kjpaw_psl.0.1.UPF: wavefunction(s)  1S renormalized
               file O.pbe-n-kjpaw_psl.0.1.UPF: wavefunction(s)  2P renormalized

     -------------------------------------
     Parameters for Dispersion Correction:
     -------------------------------------
       atom      VdW radius       C_6     

        C          2.744         60.710
        N          2.640         42.670
        H          1.892          4.857
        O          2.536         24.284

     Subspace diagonalization in iterative solution of the eigenvalue problem:
     a serial algorithm will be used

 
     Parallelization info
     --------------------
     sticks:   dense  smooth     PW     G-vecs:    dense   smooth      PW
     Min        1048    1048    278                62002    62002    8462
     Max        1049    1049    279                62005    62005    8463
     Sum        8389    8389   2227               496029   496029   67697
 


     bravais-lattice index     =            0
     lattice parameter (alat)  =      15.9574  a.u.
     unit-cell volume          =    3671.0061 (a.u.)^3
     number of atoms/cell      =           56
     number of atomic types    =            4
     number of electrons       =       224.00
     number of Kohn-Sham states=          134
     kinetic-energy cutoff     =     100.0000  Ry
     charge density cutoff     =     400.0000  Ry
     convergence threshold     =      1.0E-08
     mixing beta               =       0.5000
     number of iterations used =            8  plain     mixing
     Exchange-correlation      =  SLA  PW   PBX  PBC ( 1  4  3  4 0 0)

     celldm(1)=  15.957414  celldm(2)=   0.000000  celldm(3)=   0.000000
     celldm(4)=   0.000000  celldm(5)=   0.000000  celldm(6)=   0.000000

     crystal axes: (cart. coord. in units of alat)
               a(1) = (   1.000000   0.000000   0.000000 )  
               a(2) = (   0.000000   1.035409   0.000000 )  
               a(3) = (  -0.128768   0.000000   0.872541 )  

     reciprocal axes: (cart. coord. in units 2 pi/alat)
               b(1) = (  1.000000  0.000000  0.147578 )  
               b(2) = (  0.000000  0.965802  0.000000 )  
               b(3) = (  0.000000  0.000000  1.146078 )  


     PseudoPot. # 1 for  C read from file:
     /scratch/ahofstet/pseudo/C.pbe-n-kjpaw_psl.0.1.UPF
     MD5 check sum: 430fe95172b1e11ef3f8ed03bac87931
     Pseudo is Projector augmented-wave + core cor, Zval =  4.0
     Generated using "atomic" code by A. Dal Corso  v.5.0.99 svn rev. 10869
     Shape of augmentation charge: BESSEL
     Using radial grid of 1073 points,  4 beta functions with: 
                l(1) =   0
                l(2) =   0
                l(3) =   1
                l(4) =   1
     Q(r) pseudized with 0 coefficients 


     PseudoPot. # 2 for  N read from file:
     /scratch/ahofstet/pseudo/N.pbe-n-kjpaw_psl.0.1.UPF
     MD5 check sum: f73187c8b701007e77325f868c9291d7
     Pseudo is Projector augmented-wave + core cor, Zval =  5.0
     Generated using "atomic" code by A. Dal Corso  v.5.0.99 svn rev. 10869
     Shape of augmentation charge: PSQ
     Using radial grid of 1085 points,  4 beta functions with: 
                l(1) =   0
                l(2) =   0
                l(3) =   1
                l(4) =   1
     Q(r) pseudized with 0 coefficients 


     PseudoPot. # 3 for  H read from file:
     /scratch/ahofstet/pseudo/H.pbe-kjpaw_psl.0.1.UPF
     MD5 check sum: 94e484f906d9e9773b2f6e52662335b2
     Pseudo is Projector augmented-wave, Zval =  1.0
     Generated using "atomic" code by A. Dal Corso  v.5.0.99 svn rev. 10869
     Shape of augmentation charge: PSQ
     Using radial grid of  929 points,  2 beta functions with: 
                l(1) =   0
                l(2) =   0
     Q(r) pseudized with 0 coefficients 


     PseudoPot. # 4 for  O read from file:
     /scratch/ahofstet/pseudo/O.pbe-n-kjpaw_psl.0.1.UPF
     MD5 check sum: 3f94a2996a3169367d6eb21d9b593f20
     Pseudo is Projector augmented-wave + core cor, Zval =  6.0
     Generated using "atomic" code by A. Dal Corso  v.5.0.99 svn rev. 10869
     Shape of augmentation charge: BESSEL
     Using radial grid of 1095 points,  4 beta functions with: 
                l(1) =   0
                l(2) =   0
                l(3) =   1
                l(4) =   1
     Q(r) pseudized with 0 coefficients 


     atomic species   valence    mass     pseudopotential
        C              4.00    12.01070      C( 1.00)
        N              5.00    14.00670      N( 1.00)
        H              1.00     1.00794      H( 1.00)
        O              6.00    15.99940      O( 1.00)

      2 Sym. Ops., with inversion, found



   Cartesian axes

     site n.     atom                  positions (alat units)
         1           O   tau(   1) = (   0.2593920   0.7620623   0.5041149  )
         2           O   tau(   2) = (   0.5474595   0.2443139   0.8046750  )
         3           O   tau(   3) = (   0.6118402   0.2733462   0.3684261  )
         4           O   tau(   4) = (   0.3237727   0.7910946   0.0678660  )
         5           O   tau(   5) = (   0.0850892   0.6111449   0.3849342  )
         6           O   tau(   6) = (   0.8505176   0.0933972   0.0513240  )
         7           O   tau(   7) = (   0.7861430   0.4242636   0.4876067  )
         8           O   tau(   8) = (   0.0207146   0.9420113   0.8212170  )
         9           N   tau(   9) = (   0.0742078   0.8670118   0.3382401  )
        10           N   tau(  10) = (   0.8614112   0.3492302   0.0980355  )
        11           N   tau(  11) = (   0.7970243   0.1683967   0.5343009  )
        12           N   tau(  12) = (   0.0098209   0.6861783   0.7745054  )
        13           N   tau(  13) = (   0.0797716   0.1033357   0.2846158  )
        14           N   tau(  14) = (   0.8558767   0.6209716   0.1516906  )
        15           N   tau(  15) = (   0.7914606   0.9320728   0.5879251  )
        16           N   tau(  16) = (   0.0153555   0.4144369   0.7208504  )
        17           N   tau(  17) = (   0.2303835   0.0411472   0.4774673  )
        18           N   tau(  18) = (   0.5764943   0.5588037   0.8313802  )
        19           N   tau(  19) = (   0.6408487   0.9942613   0.3950736  )
        20           N   tau(  20) = (   0.2947379   0.4766048   0.0411608  )
        21           N   tau(  21) = (   0.1461911   0.2374856   0.3387452  )
        22           N   tau(  22) = (   0.7894315   0.7551312   0.0975335  )
        23           N   tau(  23) = (   0.7250410   0.7979229   0.5337957  )
        24           N   tau(  24) = (   0.0818007   0.2802773   0.7750074  )
        25           N   tau(  25) = (   0.1429742   0.7457704   0.4127753  )
        26           N   tau(  26) = (   0.7926466   0.2279985   0.0234873  )
        27           N   tau(  27) = (   0.7282579   0.2896381   0.4597656  )
        28           N   tau(  28) = (   0.0785855   0.8074100   0.8490537  )
        29           N   tau(  29) = (   0.2373806   0.1997863   0.4546311  )
        30           N   tau(  30) = (   0.5694661   0.7174354   0.8541799  )
        31           N   tau(  31) = (   0.6338516   0.8356222   0.4179098  )
        32           N   tau(  32) = (   0.3017661   0.3179731   0.0183611  )
        33           C   tau(  33) = (   0.1309455   1.0126902   0.3695302  )
        34           C   tau(  34) = (   0.8046446   0.4949444   0.0667150  )
        35           C   tau(  35) = (   0.7402866   0.0227183   0.5030108  )
        36           C   tau(  36) = (   0.0665876   0.5404641   0.8058260  )
        37           O   tau(  37) = (   0.4307916   0.9920426   0.6962649  )
        38           O   tau(  38) = (   0.3760493   0.4743588   0.6125373  )
        39           O   tau(  39) = (   0.4404405   0.0433659   0.1762761  )
        40           O   tau(  40) = (   0.4951829   0.5610497   0.2600036  )
        41           H   tau(  41) = (  -0.0012650   0.1033930   0.1895910  )
        42           H   tau(  42) = (   0.9368832   0.6210518   0.2466716  )
        43           H   tau(  43) = (   0.8724971   0.9320155   0.6829499  )
        44           H   tau(  44) = (  -0.0656511   0.4143567   0.6258693  )
        45           H   tau(  45) = (   0.3037352   1.0240662   0.5674003  )
        46           H   tau(  46) = (   0.5031048   0.5063334   0.7414015  )
        47           H   tau(  47) = (   0.5674970   0.0113423   0.3051406  )
        48           H   tau(  48) = (   0.3681274   0.5290751   0.1311394  )
        49           H   tau(  49) = (   0.4624068   0.8945982   0.7512329  )
        50           H   tau(  50) = (   0.3444304   0.3769396   0.5575781  )
        51           H   tau(  51) = (   0.4088254   0.1408103   0.1213080  )
        52           H   tau(  52) = (   0.5268018   0.6584689   0.3149628  )
        53           H   tau(  53) = (   0.4751260   0.0474936   0.7543814  )
        54           H   tau(  54) = (   0.3317259   0.5652404   0.5544212  )
        55           H   tau(  55) = (   0.3961062   0.9879149   0.1181595  )
        56           H   tau(  56) = (   0.5395063   0.4701681   0.3181197  )

     number of k points=     8
                       cart. coord. in units 2pi/alat
        k(    1) = (   0.0000000   0.0000000   0.0000000), wk =   0.1666667
        k(    2) = (   0.0000000   0.0000000   0.3820260), wk =   0.3333333
        k(    3) = (   0.0000000  -0.4829012   0.0000000), wk =   0.1666667
        k(    4) = (   0.0000000  -0.4829012   0.3820260), wk =   0.3333333
        k(    5) = (  -0.5000000   0.0000000  -0.0737890), wk =   0.1666667
        k(    6) = (  -0.5000000   0.0000000   0.3082370), wk =   0.3333333
        k(    7) = (  -0.5000000  -0.4829012  -0.0737890), wk =   0.1666667
        k(    8) = (  -0.5000000  -0.4829012   0.3082370), wk =   0.3333333

     Dense  grid:   496029 G-vectors     FFT dimensions: ( 108, 108,  90)

     Estimated max dynamical RAM per process >     357.74MB

     Estimated total allocated dynamical RAM >    2861.95MB

     Check: negative/imaginary core charge=   -0.000002    0.000000

     Initial potential from superposition of free atoms

     starting charge  223.99949, renormalised to  224.00000
     Starting wfc are  176 randomized atomic wfcs
     Checking if some PAW data can be deallocated... 

     total cpu time spent up to now is       19.5 secs

     per-process dynamical memory:   290.8 Mb

     Self-consistent Calculation

     iteration #  1     ecut=   100.00 Ry     beta=0.50
     Davidson diagonalization with overlap
     ethr =  1.00E-02,  avg # of iterations =  3.0

     total cpu time spent up to now is       62.9 secs

     total energy              =   -1267.58685133 Ry
     Harris-Foulkes estimate   =   -1270.55789876 Ry
     estimated scf accuracy    <       5.31537374 Ry

     iteration #  2     ecut=   100.00 Ry     beta=0.50
     Davidson diagonalization with overlap
     ethr =  2.37E-03,  avg # of iterations =  3.0

     total cpu time spent up to now is       98.5 secs

     total energy              =   -1268.71223615 Ry
     Harris-Foulkes estimate   =   -1269.34520349 Ry
     estimated scf accuracy    <       1.39081707 Ry

     iteration #  3     ecut=   100.00 Ry     beta=0.50
     Davidson diagonalization with overlap
     ethr =  6.21E-04,  avg # of iterations =  3.0

     total cpu time spent up to now is      131.1 secs

     total energy              =   -1268.98450153 Ry
     Harris-Foulkes estimate   =   -1269.02699760 Ry
     estimated scf accuracy    <       0.13411588 Ry

     iteration #  4     ecut=   100.00 Ry     beta=0.50
     Davidson diagonalization with overlap
     ethr =  5.99E-05,  avg # of iterations = 10.2

     total cpu time spent up to now is      177.2 secs

     total energy              =   -1269.00216348 Ry
     Harris-Foulkes estimate   =   -1269.01501958 Ry
     estimated scf accuracy    <       0.03542059 Ry

     iteration #  5     ecut=   100.00 Ry     beta=0.50
     Davidson diagonalization with overlap
     ethr =  1.58E-05,  avg # of iterations =  5.4

     total cpu time spent up to now is      210.9 secs

     total energy              =   -1269.00810771 Ry
     Harris-Foulkes estimate   =   -1269.01142019 Ry
     estimated scf accuracy    <       0.00921175 Ry

     iteration #  6     ecut=   100.00 Ry     beta=0.50
     Davidson diagonalization with overlap
     ethr =  4.11E-06,  avg # of iterations =  4.6

     total cpu time spent up to now is      242.6 secs

     total energy              =   -1269.00986861 Ry
     Harris-Foulkes estimate   =   -1269.01045033 Ry
     estimated scf accuracy    <       0.00168594 Ry

     iteration #  7     ecut=   100.00 Ry     beta=0.50
     Davidson diagonalization with overlap
     ethr =  7.53E-07,  avg # of iterations =  2.8

     total cpu time spent up to now is      272.4 secs

     total energy              =   -1269.01022615 Ry
     Harris-Foulkes estimate   =   -1269.01034169 Ry
     estimated scf accuracy    <       0.00033137 Ry

     iteration #  8     ecut=   100.00 Ry     beta=0.50
     Davidson diagonalization with overlap
     ethr =  1.48E-07,  avg # of iterations =  2.0

     total cpu time spent up to now is      301.8 secs

     total energy              =   -1269.01030192 Ry
     Harris-Foulkes estimate   =   -1269.01030691 Ry
     estimated scf accuracy    <       0.00002537 Ry

     iteration #  9     ecut=   100.00 Ry     beta=0.50
     Davidson diagonalization with overlap
     ethr =  1.13E-08,  avg # of iterations =  3.0

     total cpu time spent up to now is      340.5 secs

     total energy              =   -1269.01031049 Ry
     Harris-Foulkes estimate   =   -1269.01031155 Ry
     estimated scf accuracy    <       0.00000485 Ry

     iteration # 10     ecut=   100.00 Ry     beta=0.50
     Davidson diagonalization with overlap
     ethr =  2.16E-09,  avg # of iterations =  2.1

     total cpu time spent up to now is      368.9 secs

     total energy              =   -1269.01031131 Ry
     Harris-Foulkes estimate   =   -1269.01031148 Ry
     estimated scf accuracy    <       0.00000095 Ry

     iteration # 11     ecut=   100.00 Ry     beta=0.50
     Davidson diagonalization with overlap
     ethr =  4.24E-10,  avg # of iterations =  3.0

     total cpu time spent up to now is      404.5 secs

     total energy              =   -1269.01031155 Ry
     Harris-Foulkes estimate   =   -1269.01031161 Ry
     estimated scf accuracy    <       0.00000021 Ry

     iteration # 12     ecut=   100.00 Ry     beta=0.50
     Davidson diagonalization with overlap
     ethr =  9.45E-11,  avg # of iterations =  2.0

     total cpu time spent up to now is      434.6 secs

     total energy              =   -1269.01031159 Ry
     Harris-Foulkes estimate   =   -1269.01031160 Ry
     estimated scf accuracy    <       0.00000005 Ry

     iteration # 13     ecut=   100.00 Ry     beta=0.50
     Davidson diagonalization with overlap
     ethr =  2.06E-11,  avg # of iterations =  3.0

     total cpu time spent up to now is      467.8 secs

     total energy              =   -1269.01031160 Ry
     Harris-Foulkes estimate   =   -1269.01031160 Ry
     estimated scf accuracy    <       0.00000001 Ry

     iteration # 14     ecut=   100.00 Ry     beta=0.50
     Davidson diagonalization with overlap
     ethr =  6.16E-12,  avg # of iterations =  2.0

     total cpu time spent up to now is      496.5 secs

     End of self-consistent calculation

          k = 0.0000 0.0000 0.0000 ( 62035 PWs)   bands (ev):

   -23.5754 -23.5645 -23.5297 -23.5286 -22.0339 -22.0267 -22.0104 -21.9931
   -18.7457 -18.7362 -18.7307 -18.7145 -17.6059 -17.5904 -17.5141 -17.4908
   -17.2492 -17.2032 -17.2029 -17.1825 -16.8752 -16.8537 -16.8520 -16.8367
   -15.1543 -15.1509 -15.1308 -15.1210 -10.9001 -10.8798 -10.8480 -10.8423
    -9.9927  -9.9670  -9.9502  -9.8718  -9.1441  -9.0298  -8.9497  -8.9304
    -7.3824  -7.3327  -6.9755  -6.9349  -6.6575  -6.6569  -6.5431  -6.5314
    -6.4817  -6.2511  -6.1377  -6.0721  -6.0413  -6.0007  -5.9003  -5.7585
    -5.5318  -5.4944  -5.4387  -5.4089  -5.3917  -5.3911  -5.2735  -5.1838
    -5.0290  -4.9477  -4.8388  -4.7622  -2.6455  -2.5212  -2.1767  -2.1029
    -1.9747  -1.9362  -1.8846  -1.8360  -1.7472  -1.6984  -1.6526  -1.5023
    -1.4303  -1.4114  -1.3284  -1.2369  -1.2327  -1.1953  -1.1776  -0.9739
    -0.4672  -0.4200  -0.3585  -0.2938  -0.2532  -0.2225  -0.1795  -0.1740
    -0.1638  -0.1526  -0.1011   0.0488   0.1070   0.1284   0.4587   0.4625
     0.7606   0.7682   0.8489   0.8541   0.8612   0.9306   1.0264   1.1710
     4.3850   4.5588   4.5992   4.6524   5.1968   5.2550   5.6791   5.7884
     7.0634   7.0642   7.2741   7.4534   7.6837   8.9428   9.0188   9.1876
     9.3397   9.5728   9.7231   9.7658   9.8613   9.8768

          k = 0.0000 0.0000 0.3820 ( 62012 PWs)   bands (ev):

   -23.5644 -23.5552 -23.5419 -23.5369 -22.0288 -22.0176 -22.0169 -22.0011
   -18.7428 -18.7380 -18.7256 -18.7175 -17.6030 -17.5972 -17.5117 -17.4977
   -17.2351 -17.2125 -17.2045 -17.1930 -16.8611 -16.8533 -16.8502 -16.8388
   -15.1522 -15.1507 -15.1297 -15.1247 -10.9041 -10.8955 -10.8362 -10.8317
    -9.9848  -9.9725  -9.9318  -9.8920  -9.1438  -9.0961  -8.9139  -8.8957
    -7.3523  -7.3249  -6.9591  -6.9407  -6.8066  -6.7983  -6.4952  -6.4672
    -6.3256  -6.1797  -6.1253  -6.1130  -6.0393  -5.8773  -5.8125  -5.7988
    -5.7026  -5.6764  -5.4150  -5.4096  -5.3736  -5.3265  -5.3016  -5.2253
    -5.0563  -5.0380  -4.7347  -4.7155  -2.5938  -2.5256  -2.1252  -2.0896
    -2.0261  -1.9389  -1.8153  -1.7906  -1.7465  -1.7454  -1.6122  -1.4851
    -1.4824  -1.4510  -1.3971  -1.3426  -1.3293  -1.2079  -0.9485  -0.9369
    -0.4850  -0.4284  -0.3385  -0.3203  -0.2643  -0.2535  -0.1914  -0.1795
    -0.1633  -0.1294  -0.0829   0.0168   0.1222   0.1498   0.4438   0.4537
     0.7653   0.7749   0.8097   0.8333   0.9157   0.9300   1.0632   1.1380
     4.4068   4.4850   4.6240   4.6383   5.3330   5.3926   5.5702   5.6629
     7.0344   7.0430   7.2964   7.3885   8.1416   8.9509   9.1326   9.1361
     9.2769   9.3950   9.6795   9.6845   9.8355   9.9313

          k = 0.0000-0.4829 0.0000 ( 62048 PWs)   bands (ev):

   -23.5697 -23.5696 -23.5290 -23.5289 -22.0346 -22.0346 -21.9991 -21.9991
   -18.7402 -18.7392 -18.7228 -18.7218 -17.5782 -17.5767 -17.4857 -17.4842
   -17.2602 -17.2587 -17.2004 -17.1989 -16.8666 -16.8665 -16.8396 -16.8394
   -15.1483 -15.1481 -15.1405 -15.1403 -10.8893 -10.8873 -10.8449 -10.8429
    -9.9639  -9.9604  -9.9201  -9.9165  -9.0066  -9.0044  -8.9827  -8.9806
    -7.2605  -7.2596  -7.1492  -7.1482  -6.5816  -6.5809  -6.5610  -6.5606
    -6.3698  -6.3698  -6.0489  -6.0487  -6.0263  -6.0263  -5.8824  -5.8823
    -5.5085  -5.5082  -5.4312  -5.4310  -5.3674  -5.3674  -5.2327  -5.2325
    -4.9747  -4.9747  -4.8971  -4.8968  -2.5190  -2.5187  -2.4098  -2.4093
    -1.9633  -1.9624  -1.6673  -1.6670  -1.6284  -1.6282  -1.4938  -1.4932
    -1.3974  -1.3974  -1.3355  -1.3355  -1.1644  -1.1643  -1.0596  -1.0595
    -0.5522  -0.5521  -0.4644  -0.4642  -0.3197  -0.3194  -0.1299  -0.1298
    -0.0391  -0.0389   0.0497   0.0502   0.1331   0.1338   0.4702   0.4713
     0.7846   0.7847   0.8073   0.8074   0.8681   0.8682   1.1370   1.1373
     4.5423   4.5423   4.5603   4.5607   5.2191   5.2194   5.7398   5.7400
     7.1429   7.1432   7.2737   7.2737   7.9443   7.9445   9.2162   9.2178
     9.5380   9.5384   9.6308   9.6314   9.9457   9.9479

          k = 0.0000-0.4829 0.3820 ( 61988 PWs)   bands (ev):

   -23.5596 -23.5595 -23.5392 -23.5391 -22.0274 -22.0273 -22.0066 -22.0065
   -18.7393 -18.7383 -18.7221 -18.7211 -17.5783 -17.5768 -17.4897 -17.4882
   -17.2546 -17.2527 -17.2094 -17.2074 -16.8574 -16.8570 -16.8434 -16.8431
   -15.1473 -15.1469 -15.1412 -15.1409 -10.8831 -10.8805 -10.8496 -10.8471
    -9.9655  -9.9615  -9.9213  -9.9171  -9.0091  -9.0069  -8.9821  -8.9798
    -7.2457  -7.2448  -7.1559  -7.1551  -6.6273  -6.6260  -6.5660  -6.5646
    -6.2542  -6.2542  -6.0321  -6.0314  -5.9779  -5.9768  -5.9329  -5.9324
    -5.5962  -5.5952  -5.5309  -5.5298  -5.3323  -5.3322  -5.2473  -5.2472
    -4.9429  -4.9423  -4.8710  -4.8703  -2.4813  -2.4806  -2.4202  -2.4194
    -1.9238  -1.9226  -1.7452  -1.7448  -1.6046  -1.6046  -1.4951  -1.4946
    -1.4082  -1.4077  -1.3023  -1.3019  -1.1368  -1.1366  -1.0799  -1.0796
    -0.5224  -0.5223  -0.4755  -0.4754  -0.3054  -0.3051  -0.1315  -0.1312
    -0.0414  -0.0411  -0.0046  -0.0042   0.1008   0.1017   0.4606   0.4617
     0.7763   0.7764   0.7969   0.7971   0.9174   0.9176   1.1405   1.1408
     4.5335   4.5343   4.5436   4.5448   5.3572   5.3576   5.6249   5.6254
     7.1328   7.1333   7.2276   7.2279   8.3170   8.3174   9.0700   9.0708
     9.4960   9.4989   9.7140   9.7158   9.7510   9.7534

          k =-0.5000 0.0000-0.0738 ( 61948 PWs)   bands (ev):

   -23.5741 -23.5656 -23.5294 -23.5289 -22.0319 -22.0294 -22.0064 -21.9970
   -18.7408 -18.7359 -18.7260 -18.7200 -17.6047 -17.5921 -17.5287 -17.4891
   -17.2346 -17.2124 -17.2041 -17.1878 -16.8784 -16.8507 -16.8500 -16.8266
   -15.1580 -15.1444 -15.1287 -15.1272 -10.9118 -10.8768 -10.8434 -10.8336
   -10.0024  -9.9520  -9.9449  -9.8861  -9.1506  -9.0961  -8.9424  -8.8540
    -7.3856  -7.2678  -6.9656  -6.9359  -6.8930  -6.7700  -6.4618  -6.4487
    -6.4057  -6.2728  -6.1824  -6.0977  -5.9077  -5.8400  -5.7722  -5.7200
    -5.6606  -5.6544  -5.4791  -5.4771  -5.4075  -5.3929  -5.2258  -5.2215
    -5.0743  -5.0398  -4.7124  -4.7113  -2.6540  -2.5177  -2.1380  -2.1113
    -1.8932  -1.8778  -1.8601  -1.8201  -1.7525  -1.6825  -1.6366  -1.6084
    -1.4853  -1.4638  -1.3868  -1.2800  -1.2291  -1.2190  -0.9401  -0.9226
    -0.5087  -0.4013  -0.3832  -0.3337  -0.3262  -0.2482  -0.2330  -0.1793
    -0.1760  -0.1120  -0.0955   0.0746   0.1142   0.1659   0.4306   0.4574
     0.7966   0.8012   0.8240   0.8253   0.8658   1.0195   1.0234   1.0468
     4.4253   4.5629   4.6070   4.6278   5.2114   5.2297   5.6924   5.7430
     6.9944   7.1365   7.3135   7.3668   8.2395   8.3970   9.1312   9.1575
     9.2689   9.4550   9.6013   9.7428   9.8604   9.9926

          k =-0.5000 0.0000 0.3082 ( 61938 PWs)   bands (ev):

   -23.5636 -23.5559 -23.5418 -23.5370 -22.0256 -22.0212 -22.0128 -22.0050
   -18.7425 -18.7399 -18.7232 -18.7204 -17.6002 -17.5903 -17.5158 -17.4999
   -17.2335 -17.2221 -17.1947 -17.1867 -16.8728 -16.8558 -16.8469 -16.8374
   -15.1562 -15.1499 -15.1262 -15.1249 -10.8965 -10.8682 -10.8605 -10.8448
    -9.9929  -9.9641  -9.9273  -9.8951  -9.1157  -9.0894  -8.9500  -8.9042
    -7.3793  -7.3294  -6.9622  -6.9464  -6.7383  -6.6826  -6.5242  -6.5142
    -6.3132  -6.1743  -6.1702  -6.0760  -6.0483  -5.9554  -5.8925  -5.8719
    -5.6111  -5.6078  -5.4247  -5.3889  -5.3686  -5.3280  -5.2647  -5.2118
    -5.0290  -5.0255  -4.7772  -4.7768  -2.6053  -2.5355  -2.1263  -2.0951
    -1.9678  -1.9441  -1.8781  -1.8573  -1.7181  -1.6647  -1.6509  -1.5758
    -1.5092  -1.4550  -1.2846  -1.2813  -1.2580  -1.2008  -1.0436  -0.9680
    -0.4650  -0.4425  -0.3466  -0.2817  -0.2275  -0.2250  -0.2098  -0.1793
    -0.1574  -0.1388  -0.0607   0.0117   0.1221   0.1419   0.4334   0.4555
     0.7623   0.7727   0.8300   0.8307   0.9325   0.9984   1.0294   1.0455
     4.4516   4.5276   4.5966   4.6034   5.3530   5.3627   5.5920   5.6196
     6.9896   7.0677   7.3233   7.3515   8.4318   8.7263   8.8660   9.2930
     9.3438   9.4394   9.6269   9.7377   9.7889   9.8773

          k =-0.5000-0.4829-0.0738 ( 62048 PWs)   bands (ev):

   -23.5696 -23.5695 -23.5290 -23.5290 -22.0340 -22.0340 -22.0000 -22.0000
   -18.7372 -18.7363 -18.7234 -18.7225 -17.5812 -17.5797 -17.4892 -17.4877
   -17.2542 -17.2530 -17.2070 -17.2059 -16.8700 -16.8693 -16.8311 -16.8303
   -15.1468 -15.1468 -15.1422 -15.1421 -10.8819 -10.8817 -10.8481 -10.8479
    -9.9619  -9.9601  -9.9229  -9.9210  -9.0180  -9.0159  -8.9751  -8.9730
    -7.2482  -7.2474  -7.1449  -7.1442  -6.6391  -6.6380  -6.5522  -6.5511
    -6.3406  -6.3405  -6.0087  -6.0086  -5.9439  -5.9431  -5.8734  -5.8734
    -5.6018  -5.6002  -5.5380  -5.5366  -5.4049  -5.4049  -5.2297  -5.2297
    -4.9150  -4.9142  -4.8579  -4.8573  -2.5100  -2.5093  -2.4396  -2.4389
    -1.9469  -1.9460  -1.6872  -1.6872  -1.5885  -1.5884  -1.4798  -1.4797
    -1.4388  -1.4388  -1.3174  -1.3170  -1.0915  -1.0910  -1.0339  -1.0335
    -0.5411  -0.5411  -0.4631  -0.4630  -0.2736  -0.2735  -0.2287  -0.2286
    -0.0730  -0.0726   0.0220   0.0221   0.1293   0.1299   0.4506   0.4517
     0.7971   0.7972   0.8101   0.8102   0.8966   0.8966   1.1049   1.1050
     4.4955   4.4971   4.6182   4.6198   5.2203   5.2206   5.7188   5.7189
     7.1475   7.1477   7.2529   7.2532   8.1854   8.1856   9.0366   9.0379
     9.6519   9.6532   9.6614   9.6617   9.7801   9.7819

          k =-0.5000-0.4829 0.3082 ( 61984 PWs)   bands (ev):

   -23.5596 -23.5595 -23.5392 -23.5391 -22.0257 -22.0256 -22.0084 -22.0083
   -18.7378 -18.7369 -18.7246 -18.7236 -17.5766 -17.5751 -17.4896 -17.4881
   -17.2465 -17.2447 -17.2138 -17.2120 -16.8654 -16.8645 -16.8403 -16.8394
   -15.1454 -15.1452 -15.1428 -15.1426 -10.8742 -10.8740 -10.8572 -10.8570
    -9.9567  -9.9535  -9.9287  -9.9254  -9.0161  -9.0139  -8.9750  -8.9729
    -7.2433  -7.2422  -7.1689  -7.1679  -6.6094  -6.6081  -6.5502  -6.5491
    -6.2533  -6.2532  -6.0963  -6.0953  -5.9748  -5.9742  -5.9398  -5.9393
    -5.5303  -5.5293  -5.4864  -5.4856  -5.3428  -5.3425  -5.2542  -5.2540
    -4.9575  -4.9570  -4.9153  -4.9148  -2.4640  -2.4635  -2.4199  -2.4193
    -1.9408  -1.9397  -1.7186  -1.7185  -1.6435  -1.6430  -1.4873  -1.4871
    -1.3949  -1.3948  -1.3094  -1.3086  -1.1539  -1.1532  -1.0629  -1.0628
    -0.5357  -0.5355  -0.4925  -0.4924  -0.2376  -0.2374  -0.2146  -0.2144
    -0.0424  -0.0422   0.0257   0.0258   0.1544   0.1548   0.4463   0.4473
     0.7808   0.7811   0.7933   0.7936   0.9563   0.9566   1.0964   1.0965
     4.4769   4.4784   4.6129   4.6144   5.3582   5.3584   5.6069   5.6071
     7.1356   7.1360   7.2099   7.2103   8.3763   8.3769   9.0665   9.0680
     9.4839   9.4856   9.6125   9.6145   9.7216   9.7224

     highest occupied, lowest unoccupied level (ev):     1.1710    4.3850

!    total energy              =   -1269.01031160 Ry
     Harris-Foulkes estimate   =   -1269.01031160 Ry
     estimated scf accuracy    <          1.4E-09 Ry

     total all-electron energy =     -4757.400584 Ry

     The total energy is the sum of the following terms:

     one-electron contribution =    -596.16981894 Ry
     hartree contribution      =     392.21424790 Ry
     xc contribution           =    -246.53060209 Ry
     ewald contribution        =    -478.76812726 Ry
     Dispersion Correction     =      -0.25766464 Ry
     one-center paw contrib.   =    -339.49834657 Ry

     convergence has been achieved in  14 iterations

     Forces acting on atoms (cartesian axes, Ry/au):

     atom    1 type  4   force =    -0.00108704    0.00026983   -0.00041905
     atom    2 type  4   force =     0.00117926    0.00022161    0.00048209
     atom    3 type  4   force =     0.00108704   -0.00026983    0.00041905
     atom    4 type  4   force =    -0.00117926   -0.00022161   -0.00048209
     atom    5 type  4   force =     0.00109774    0.00098680   -0.00042771
     atom    6 type  4   force =    -0.00092398    0.00054268    0.00051065
     atom    7 type  4   force =    -0.00109774   -0.00098680    0.00042771
     atom    8 type  4   force =     0.00092398   -0.00054268   -0.00051065
     atom    9 type  2   force =     0.00086514    0.00059341    0.00069313
     atom   10 type  2   force =    -0.00111029    0.00113222   -0.00086643
     atom   11 type  2   force =    -0.00086514   -0.00059341   -0.00069313
     atom   12 type  2   force =     0.00111029   -0.00113222    0.00086643
     atom   13 type  2   force =    -0.00026573   -0.00014638    0.00090981
     atom   14 type  2   force =    -0.00069769    0.00005223   -0.00200565
     atom   15 type  2   force =     0.00026573    0.00014638   -0.00090981
     atom   16 type  2   force =     0.00069769   -0.00005223    0.00200565
     atom   17 type  2   force =    -0.00084304    0.00141034   -0.00161662
     atom   18 type  2   force =    -0.00009078    0.00127910    0.00051494
     atom   19 type  2   force =     0.00084304   -0.00141034    0.00161662
     atom   20 type  2   force =     0.00009078   -0.00127910   -0.00051494
     atom   21 type  2   force =    -0.00011424   -0.00131530    0.00022154
     atom   22 type  2   force =     0.00022723   -0.00133837   -0.00009658
     atom   23 type  2   force =     0.00011424    0.00131530   -0.00022154
     atom   24 type  2   force =    -0.00022723    0.00133837    0.00009658
     atom   25 type  2   force =    -0.00153699    0.00015730   -0.00095895
     atom   26 type  2   force =     0.00129869    0.00059432    0.00082582
     atom   27 type  2   force =     0.00153699   -0.00015730    0.00095895
     atom   28 type  2   force =    -0.00129869   -0.00059432   -0.00082582
     atom   29 type  2   force =     0.00028797   -0.00074064   -0.00084423
     atom   30 type  2   force =     0.00006497   -0.00062204    0.00127724
     atom   31 type  2   force =    -0.00028797    0.00074064    0.00084423
     atom   32 type  2   force =    -0.00006497    0.00062204   -0.00127724
     atom   33 type  1   force =     0.00040865   -0.00079550    0.00014573
     atom   34 type  1   force =     0.00061950   -0.00144993    0.00091665
     atom   35 type  1   force =    -0.00040865    0.00079550   -0.00014573
     atom   36 type  1   force =    -0.00061950    0.00144993   -0.00091665
     atom   37 type  4   force =     0.00053858   -0.00017008    0.00039353
     atom   38 type  4   force =    -0.00045084    0.00033170   -0.00024325
     atom   39 type  4   force =    -0.00053858    0.00017008   -0.00039353
     atom   40 type  4   force =     0.00045084   -0.00033170    0.00024325
     atom   41 type  3   force =    -0.00018899    0.00028767    0.00033450
     atom   42 type  3   force =     0.00054719    0.00025920    0.00008840
     atom   43 type  3   force =     0.00018899   -0.00028767   -0.00033450
     atom   44 type  3   force =    -0.00054719   -0.00025920   -0.00008840
     atom   45 type  3   force =     0.00060241   -0.00032405    0.00092837
     atom   46 type  3   force =    -0.00038650   -0.00025746   -0.00068183
     atom   47 type  3   force =    -0.00060241    0.00032405   -0.00092837
     atom   48 type  3   force =     0.00038650    0.00025746    0.00068183
     atom   49 type  3   force =    -0.00031945   -0.00021339   -0.00038490
     atom   50 type  3   force =     0.00021817   -0.00053793    0.00021214
     atom   51 type  3   force =     0.00031945    0.00021339    0.00038490
     atom   52 type  3   force =    -0.00021817    0.00053793   -0.00021214
     atom   53 type  3   force =    -0.00024795   -0.00007796   -0.00026844
     atom   54 type  3   force =     0.00031154   -0.00022298    0.00035797
     atom   55 type  3   force =     0.00024795    0.00007796    0.00026844
     atom   56 type  3   force =    -0.00031154    0.00022298   -0.00035797

     Total force =     0.009604     Total SCF correction =     0.000068


     Computing stress (Cartesian axis) and pressure

          total   stress  (Ry/bohr**3)                   (kbar)     P=   -2.20
  -0.00001324   0.00000015  -0.00001373         -1.95      0.02     -2.02
   0.00000015  -0.00001834   0.00000029          0.02     -2.70      0.04
  -0.00001373   0.00000029  -0.00001327         -2.02      0.04     -1.95


     Writing output data file scf.save
 
     init_run     :     18.38s CPU     18.81s WALL (       1 calls)
     electrons    :    462.33s CPU    477.20s WALL (       1 calls)
     forces       :      9.77s CPU      9.85s WALL (       1 calls)
     stress       :     34.62s CPU     34.74s WALL (       1 calls)

     Called by init_run:
     wfcinit      :     12.40s CPU     12.76s WALL (       1 calls)
     potinit      :      2.14s CPU      2.17s WALL (       1 calls)

     Called by electrons:
     c_bands      :    405.70s CPU    418.59s WALL (      14 calls)
     sum_band     :     49.73s CPU     51.17s WALL (      14 calls)
     v_of_rho     :      1.05s CPU      1.15s WALL (      15 calls)
     newd         :      2.25s CPU      2.61s WALL (      15 calls)
     PAW_pot      :      3.31s CPU      3.31s WALL (      15 calls)
     mix_rho      :      0.24s CPU      0.26s WALL (      14 calls)

     Called by c_bands:
     init_us_2    :      2.63s CPU      2.65s WALL (     248 calls)
     cegterg      :    393.85s CPU    406.68s WALL (     112 calls)

     Called by sum_band:
     sum_band:bec :      0.04s CPU      0.04s WALL (     112 calls)
     addusdens    :      2.30s CPU      2.64s WALL (      14 calls)

     Called by *egterg:
     h_psi        :    231.75s CPU    240.17s WALL (     513 calls)
     s_psi        :     39.25s CPU     39.25s WALL (     513 calls)
     g_psi        :      1.18s CPU      1.18s WALL (     393 calls)
     cdiaghg      :     23.47s CPU     23.46s WALL (     505 calls)

     Called by h_psi:
     h_psi:pot    :    230.27s CPU    238.65s WALL (     513 calls)
     h_psi:calbec :     41.30s CPU     41.42s WALL (     513 calls)
     vloc_psi     :    149.77s CPU    158.03s WALL (     513 calls)
     add_vuspsi   :     39.19s CPU     39.20s WALL (     513 calls)

     General routines
     calbec       :     64.94s CPU     65.13s WALL (     665 calls)
     fft          :      1.94s CPU      2.13s WALL (     219 calls)
     fftw         :    164.48s CPU    173.50s WALL (   94336 calls)
 
     Parallel routines
     fft_scatter  :     40.29s CPU     45.58s WALL (   94555 calls)
 
     PWSCF        :  8m50.41s CPU     9m 7.00s WALL

 
   This run was terminated on:   5:45:23  15Dec2017            

=------------------------------------------------------------------------------=
   JOB DONE.
=------------------------------------------------------------------------------=
