
     Program PWSCF v.6.1 (svn rev. 13369) starts on 14Dec2017 at 17:59: 5 

     This program is part of the open-source Quantum ESPRESSO suite
     for quantum simulation of materials; please cite
         "P. Giannozzi et al., J. Phys.:Condens. Matter 21 395502 (2009);
          URL http://www.quantum-espresso.org", 
     in publications or presentations arising from this work. More details at
     http://www.quantum-espresso.org/quote

     Parallel version (MPI), running on     8 processors
     R & G space division:  proc/nbgrp/npool/nimage =       8
     Waiting for input...
     Reading input from standard input

     Current dimensions of program PWSCF are:
     Max number of different atomic species (ntypx) = 10
     Max number of k-points (npk) =  40000
     Max angular momentum in pseudopotentials (lmaxx) =  3
               file C.pbe-n-kjpaw_psl.0.1.UPF: wavefunction(s)  2P renormalized
               file N.pbe-n-kjpaw_psl.0.1.UPF: wavefunction(s)  2P renormalized
               file H.pbe-kjpaw_psl.0.1.UPF: wavefunction(s)  1S renormalized
               file O.pbe-n-kjpaw_psl.0.1.UPF: wavefunction(s)  2P renormalized

     -------------------------------------
     Parameters for Dispersion Correction:
     -------------------------------------
       atom      VdW radius       C_6     

        C          2.744         60.710
        N          2.640         42.670
        H          1.892          4.857
        O          2.536         24.284

     Subspace diagonalization in iterative solution of the eigenvalue problem:
     a serial algorithm will be used

 
     Parallelization info
     --------------------
     sticks:   dense  smooth     PW     G-vecs:    dense   smooth      PW
     Min         749     749    195               117664   117664   15691
     Max         750     750    196               117675   117675   15697
     Sum        5997    5997   1567               941345   941345  125559
 


     bravais-lattice index     =            0
     lattice parameter (alat)  =      13.5059  a.u.
     unit-cell volume          =    6968.9251 (a.u.)^3
     number of atoms/cell      =          104
     number of atomic types    =            4
     number of electrons       =       376.00
     number of Kohn-Sham states=          225
     kinetic-energy cutoff     =     100.0000  Ry
     charge density cutoff     =     400.0000  Ry
     convergence threshold     =      1.0E-08
     mixing beta               =       0.5000
     number of iterations used =            8  plain     mixing
     Exchange-correlation      =  SLA  PW   PBX  PBC ( 1  4  3  4 0 0)

     celldm(1)=  13.505873  celldm(2)=   0.000000  celldm(3)=   0.000000
     celldm(4)=   0.000000  celldm(5)=   0.000000  celldm(6)=   0.000000

     crystal axes: (cart. coord. in units of alat)
               a(1) = (   1.000000   0.000000   0.000000 )  
               a(2) = (   0.000000   1.035106   0.000000 )  
               a(3) = (  -0.496197   0.000000   2.732833 )  

     reciprocal axes: (cart. coord. in units 2 pi/alat)
               b(1) = (  1.000000  0.000000  0.181569 )  
               b(2) = (  0.000000  0.966085  0.000000 )  
               b(3) = (  0.000000  0.000000  0.365921 )  


     PseudoPot. # 1 for  C read from file:
     /scratch/ahofstet/pseudo/C.pbe-n-kjpaw_psl.0.1.UPF
     MD5 check sum: 430fe95172b1e11ef3f8ed03bac87931
     Pseudo is Projector augmented-wave + core cor, Zval =  4.0
     Generated using "atomic" code by A. Dal Corso  v.5.0.99 svn rev. 10869
     Shape of augmentation charge: BESSEL
     Using radial grid of 1073 points,  4 beta functions with: 
                l(1) =   0
                l(2) =   0
                l(3) =   1
                l(4) =   1
     Q(r) pseudized with 0 coefficients 


     PseudoPot. # 2 for  N read from file:
     /scratch/ahofstet/pseudo/N.pbe-n-kjpaw_psl.0.1.UPF
     MD5 check sum: f73187c8b701007e77325f868c9291d7
     Pseudo is Projector augmented-wave + core cor, Zval =  5.0
     Generated using "atomic" code by A. Dal Corso  v.5.0.99 svn rev. 10869
     Shape of augmentation charge: PSQ
     Using radial grid of 1085 points,  4 beta functions with: 
                l(1) =   0
                l(2) =   0
                l(3) =   1
                l(4) =   1
     Q(r) pseudized with 0 coefficients 


     PseudoPot. # 3 for  H read from file:
     /scratch/ahofstet/pseudo/H.pbe-kjpaw_psl.0.1.UPF
     MD5 check sum: 94e484f906d9e9773b2f6e52662335b2
     Pseudo is Projector augmented-wave, Zval =  1.0
     Generated using "atomic" code by A. Dal Corso  v.5.0.99 svn rev. 10869
     Shape of augmentation charge: PSQ
     Using radial grid of  929 points,  2 beta functions with: 
                l(1) =   0
                l(2) =   0
     Q(r) pseudized with 0 coefficients 


     PseudoPot. # 4 for  O read from file:
     /scratch/ahofstet/pseudo/O.pbe-n-kjpaw_psl.0.1.UPF
     MD5 check sum: 3f94a2996a3169367d6eb21d9b593f20
     Pseudo is Projector augmented-wave + core cor, Zval =  6.0
     Generated using "atomic" code by A. Dal Corso  v.5.0.99 svn rev. 10869
     Shape of augmentation charge: BESSEL
     Using radial grid of 1095 points,  4 beta functions with: 
                l(1) =   0
                l(2) =   0
                l(3) =   1
                l(4) =   1
     Q(r) pseudized with 0 coefficients 


     atomic species   valence    mass     pseudopotential
        C              4.00    12.01070      C( 1.00)
        N              5.00    14.00670      N( 1.00)
        H              1.00     1.00794      H( 1.00)
        O              6.00    15.99940      O( 1.00)

      4 Sym. Ops., with inversion, found ( 2 have fractional translation)



   Cartesian axes

     site n.     atom                  positions (alat units)
         1           O   tau(   1) = (   0.0557058   0.1891379   2.2088612  )
         2           O   tau(   2) = (   0.1999993   0.7066907   1.8903890  )
         3           O   tau(   3) = (   0.4480976   0.8459678   0.5239723  )
         4           O   tau(   4) = (   0.3038041   0.3284149   0.8424444  )
         5           H   tau(   5) = (  -0.0200213   0.3911711   2.3117773  )
         6           H   tau(   6) = (   0.2757264   0.9087239   1.7874729  )
         7           H   tau(   7) = (   0.5238247   0.6439345   0.4210562  )
         8           H   tau(   8) = (   0.2280770   0.1263817   0.9453605  )
         9           H   tau(   9) = (   0.2611356   0.8784776   0.0048064  )
        10           H   tau(  10) = (   0.4907661   0.3609248   1.3616104  )
        11           H   tau(  11) = (   0.2426678   0.1566280   2.7280271  )
        12           H   tau(  12) = (   0.0130373   0.6741808   1.3712231  )
        13           H   tau(  13) = (   0.1973661   0.0537137   0.1167510  )
        14           H   tau(  14) = (   0.5545357   0.5712665   1.2496658  )
        15           H   tau(  15) = (   0.3064374   0.9813920   2.6160825  )
        16           H   tau(  16) = (  -0.0507322   0.4638392   1.4831677  )
        17           H   tau(  17) = (   0.1483996   0.5543803   0.1936183  )
        18           H   tau(  18) = (   0.6035021   0.0368275   1.1727984  )
        19           H   tau(  19) = (   0.3554039   0.4807254   2.5392151  )
        20           H   tau(  20) = (  -0.0996987   0.9982782   1.5600351  )
        21           H   tau(  21) = (   0.1090213   0.1700953   2.0829381  )
        22           H   tau(  22) = (   0.1466838   0.6876481   2.0163121  )
        23           H   tau(  23) = (   0.3947821   0.8650104   0.6498953  )
        24           H   tau(  24) = (   0.3571196   0.3474576   0.7165214  )
        25           H   tau(  25) = (  -0.0511339   0.0910393   0.5948261  )
        26           H   tau(  26) = (   0.8030356   0.6085921   0.7715907  )
        27           H   tau(  27) = (   0.5549373   0.9440663   2.1380074  )
        28           H   tau(  28) = (  -0.2992322   0.4265135   1.9612428  )
        29           H   tau(  29) = (   0.0128489   0.0654864   2.2509664  )
        30           H   tau(  30) = (   0.2428562   0.5830393   1.8482838  )
        31           H   tau(  31) = (   0.4909545   0.9696192   0.4818670  )
        32           H   tau(  32) = (   0.2609472   0.4520664   0.8845497  )
        33           H   tau(  33) = (  -0.0568180   0.1593536   0.3537673  )
        34           H   tau(  34) = (   0.8087197   0.6769064   1.0126494  )
        35           H   tau(  35) = (   0.5606214   0.8757520   2.3790661  )
        36           H   tau(  36) = (  -0.3049163   0.3581992   1.7201841  )
        37           H   tau(  37) = (   0.1633168   0.1446454   0.4744972  )
        38           H   tau(  38) = (   0.5885850   0.6621982   0.8919196  )
        39           H   tau(  39) = (   0.3404867   0.8904602   2.2583363  )
        40           H   tau(  40) = (  -0.0847815   0.3729074   1.8409139  )
        41           O   tau(  41) = (   0.1890353   0.3055322   0.1015371  )
        42           O   tau(  42) = (   0.5628665   0.8230851   1.2648796  )
        43           O   tau(  43) = (   0.3147682   0.7295734   2.6312964  )
        44           O   tau(  44) = (  -0.0590630   0.2120206   1.4679538  )
        45           O   tau(  45) = (  -0.1738646   0.2361765   2.5638492  )
        46           O   tau(  46) = (   0.4295698   0.7537293   1.5354010  )
        47           O   tau(  47) = (   0.6776680   0.7989291   0.1689843  )
        48           O   tau(  48) = (   0.0742337   0.2813763   1.1974324  )
        49           N   tau(  49) = (  -0.2268067   0.3542666   2.6810624  )
        50           N   tau(  50) = (   0.4825118   0.8718194   1.4181878  )
        51           N   tau(  51) = (   0.7306101   0.6808391   0.0517710  )
        52           N   tau(  52) = (   0.0212916   0.1632862   1.3146457  )
        53           N   tau(  53) = (  -0.0412600   0.5303818   2.3551170  )
        54           N   tau(  54) = (   0.2969652   0.0128290   1.7441333  )
        55           N   tau(  55) = (   0.5450635   0.5047238   0.3777165  )
        56           N   tau(  56) = (   0.2068382   1.0222767   0.9887002  )
        57           C   tau(  57) = (  -0.1247713   0.6064467   2.5073685  )
        58           C   tau(  58) = (   0.3804764   0.0888939   1.5918817  )
        59           C   tau(  59) = (   0.6285747   0.4286589   0.2254649  )
        60           C   tau(  60) = (   0.1233270   0.9462117   1.1409518  )
        61           N   tau(  61) = (  -0.2086300   0.5370154   2.6630186  )
        62           N   tau(  62) = (   0.4643351   0.0194626   1.4362316  )
        63           N   tau(  63) = (   0.7124334   0.4980902   0.0698149  )
        64           N   tau(  64) = (   0.0394683   1.0156430   1.2966018  )
        65           N   tau(  65) = (  -0.1143013   0.7939823   2.4914782  )
        66           N   tau(  66) = (   0.3700064   0.2764295   1.6077720  )
        67           N   tau(  67) = (   0.6181047   0.2411233   0.2413553  )
        68           N   tau(  68) = (   0.1337970   0.7586761   1.1250615  )
        69           N   tau(  69) = (   0.0205976   0.6729420   2.2466324  )
        70           N   tau(  70) = (   0.2351076   0.1553892   1.8526178  )
        71           N   tau(  71) = (   0.4832059   0.3621636   0.4862010  )
        72           N   tau(  72) = (   0.2686959   0.8797164   0.8802157  )
        73           N   tau(  73) = (  -0.0249467   0.8284933   2.3309080  )
        74           N   tau(  74) = (   0.2806519   0.3109404   1.7683422  )
        75           N   tau(  75) = (   0.5287502   0.2066124   0.4019255  )
        76           N   tau(  76) = (   0.2231515   0.7241652   0.9644912  )
        77           N   tau(  77) = (   0.0383732   0.9225383   0.4094461  )
        78           N   tau(  78) = (   0.7135285   0.4049855   0.9569706  )
        79           N   tau(  79) = (   0.4654302   0.1125673   2.3233874  )
        80           N   tau(  80) = (  -0.2097250   0.6301201   1.7758628  )
        81           N   tau(  81) = (   0.1985807   0.9439012   0.1164940  )
        82           N   tau(  82) = (   0.5533210   0.4263484   1.2499227  )
        83           N   tau(  83) = (   0.3052227   0.0912044   2.6163394  )
        84           N   tau(  84) = (  -0.0495175   0.6087572   1.4829108  )
        85           C   tau(  85) = (   0.1217401   0.8494030   0.2548413  )
        86           C   tau(  86) = (   0.6301616   0.3318501   1.1115754  )
        87           C   tau(  87) = (   0.3820633   0.1857027   2.4779921  )
        88           C   tau(  88) = (  -0.1263582   0.7032555   1.6212581  )
        89           N   tau(  89) = (   0.1039319   0.6629409   0.2788567  )
        90           N   tau(  90) = (   0.6479698   0.1453880   1.0875600  )
        91           N   tau(  91) = (   0.3998715   0.3721648   2.4539767  )
        92           N   tau(  92) = (  -0.1441664   0.8897176   1.6452735  )
        93           N   tau(  93) = (  -0.0234967   0.7813741   0.5218470  )
        94           N   tau(  94) = (   0.7753984   0.2638213   0.8445698  )
        95           N   tau(  95) = (   0.5273001   0.2537316   2.2109865  )
        96           N   tau(  96) = (  -0.2715950   0.7712844   1.8882637  )
        97           N   tau(  97) = (   0.0156875   0.6254088   0.4433643  )
        98           N   tau(  98) = (   0.7362142   0.1078559   0.9230524  )
        99           N   tau(  99) = (   0.4881159   0.4096969   2.2894691  )
       100           N   tau( 100) = (  -0.2324108   0.9272497   1.8097811  )
       101           C   tau( 101) = (   0.0228764   0.0836380   0.4611596  )
       102           C   tau( 102) = (   0.7290253   0.6011908   0.9052571  )
       103           C   tau( 103) = (   0.4809270   0.9514677   2.2716739  )
       104           C   tau( 104) = (  -0.2252218   0.4339148   1.8275763  )

     number of k points=     4
                       cart. coord. in units 2pi/alat
        k(    1) = (   0.0000000   0.0000000   0.0000000), wk =   0.2222222
        k(    2) = (   0.0000000   0.3220283   0.0000000), wk =   0.4444444
        k(    3) = (   0.3333333   0.0000000   0.0605228), wk =   0.4444444
        k(    4) = (   0.3333333   0.3220283   0.0605228), wk =   0.8888889

     Dense  grid:   941345 G-vectors     FFT dimensions: (  90,  90, 240)

     Estimated max dynamical RAM per process >     890.84MB

     Estimated total allocated dynamical RAM >    7126.71MB

     Check: negative/imaginary core charge=   -0.000002    0.000000

     Initial potential from superposition of free atoms

     starting charge  375.99882, renormalised to  376.00000
     Starting wfc are  308 randomized atomic wfcs
     Checking if some PAW data can be deallocated... 

     total cpu time spent up to now is       40.1 secs

     per-process dynamical memory:   523.5 Mb

     Self-consistent Calculation

     iteration #  1     ecut=   100.00 Ry     beta=0.50
     Davidson diagonalization with overlap
     ethr =  1.00E-02,  avg # of iterations =  3.2

     total cpu time spent up to now is      135.3 secs

     total energy              =   -2002.35305491 Ry
     Harris-Foulkes estimate   =   -2007.48967358 Ry
     estimated scf accuracy    <       9.58945719 Ry

     iteration #  2     ecut=   100.00 Ry     beta=0.50
     Davidson diagonalization with overlap
     ethr =  2.55E-03,  avg # of iterations =  3.0

     total cpu time spent up to now is      204.4 secs

     total energy              =   -2004.02176424 Ry
     Harris-Foulkes estimate   =   -2004.95088712 Ry
     estimated scf accuracy    <       2.00885261 Ry

     iteration #  3     ecut=   100.00 Ry     beta=0.50
     Davidson diagonalization with overlap
     ethr =  5.34E-04,  avg # of iterations =  8.2

     total cpu time spent up to now is      290.1 secs

     total energy              =   -2004.46975028 Ry
     Harris-Foulkes estimate   =   -2004.60970840 Ry
     estimated scf accuracy    <       0.36823248 Ry

     iteration #  4     ecut=   100.00 Ry     beta=0.50
     Davidson diagonalization with overlap
     ethr =  9.79E-05,  avg # of iterations =  8.2

     total cpu time spent up to now is      361.7 secs

     total energy              =   -2004.51617352 Ry
     Harris-Foulkes estimate   =   -2004.54597597 Ry
     estimated scf accuracy    <       0.07999345 Ry

     iteration #  5     ecut=   100.00 Ry     beta=0.50
     Davidson diagonalization with overlap
     ethr =  2.13E-05,  avg # of iterations =  9.0

     total cpu time spent up to now is      447.3 secs

     total energy              =   -2004.53455489 Ry
     Harris-Foulkes estimate   =   -2004.54329044 Ry
     estimated scf accuracy    <       0.02513184 Ry

     iteration #  6     ecut=   100.00 Ry     beta=0.50
     Davidson diagonalization with overlap
     ethr =  6.68E-06,  avg # of iterations =  4.2

     total cpu time spent up to now is      507.9 secs

     total energy              =   -2004.53830962 Ry
     Harris-Foulkes estimate   =   -2004.53916929 Ry
     estimated scf accuracy    <       0.00221004 Ry

     iteration #  7     ecut=   100.00 Ry     beta=0.50
     Davidson diagonalization with overlap
     ethr =  5.88E-07,  avg # of iterations = 10.2

     total cpu time spent up to now is      616.6 secs

     total energy              =   -2004.53908659 Ry
     Harris-Foulkes estimate   =   -2004.53937510 Ry
     estimated scf accuracy    <       0.00085326 Ry

     iteration #  8     ecut=   100.00 Ry     beta=0.50
     Davidson diagonalization with overlap
     ethr =  2.27E-07,  avg # of iterations =  3.0

     total cpu time spent up to now is      674.7 secs

     total energy              =   -2004.53922867 Ry
     Harris-Foulkes estimate   =   -2004.53926213 Ry
     estimated scf accuracy    <       0.00011257 Ry

     iteration #  9     ecut=   100.00 Ry     beta=0.50
     Davidson diagonalization with overlap
     ethr =  2.99E-08,  avg # of iterations =  3.2

     total cpu time spent up to now is      742.6 secs

     total energy              =   -2004.53925295 Ry
     Harris-Foulkes estimate   =   -2004.53925521 Ry
     estimated scf accuracy    <       0.00001245 Ry

     iteration # 10     ecut=   100.00 Ry     beta=0.50
     Davidson diagonalization with overlap
     ethr =  3.31E-09,  avg # of iterations =  3.8

     total cpu time spent up to now is      826.6 secs

     total energy              =   -2004.53925678 Ry
     Harris-Foulkes estimate   =   -2004.53925762 Ry
     estimated scf accuracy    <       0.00000286 Ry

     iteration # 11     ecut=   100.00 Ry     beta=0.50
     Davidson diagonalization with overlap
     ethr =  7.61E-10,  avg # of iterations =  2.2

     total cpu time spent up to now is      883.3 secs

     total energy              =   -2004.53925705 Ry
     Harris-Foulkes estimate   =   -2004.53925726 Ry
     estimated scf accuracy    <       0.00000063 Ry

     iteration # 12     ecut=   100.00 Ry     beta=0.50
     Davidson diagonalization with overlap
     ethr =  1.68E-10,  avg # of iterations =  4.0

     total cpu time spent up to now is      960.3 secs

     total energy              =   -2004.53925728 Ry
     Harris-Foulkes estimate   =   -2004.53925734 Ry
     estimated scf accuracy    <       0.00000017 Ry

     iteration # 13     ecut=   100.00 Ry     beta=0.50
     Davidson diagonalization with overlap
     ethr =  4.60E-11,  avg # of iterations =  2.2

     total cpu time spent up to now is     1015.4 secs

     total energy              =   -2004.53925729 Ry
     Harris-Foulkes estimate   =   -2004.53925730 Ry
     estimated scf accuracy    <       0.00000004 Ry

     iteration # 14     ecut=   100.00 Ry     beta=0.50
     Davidson diagonalization with overlap
     ethr =  9.49E-12,  avg # of iterations =  4.0

     total cpu time spent up to now is     1094.2 secs

     End of self-consistent calculation

          k = 0.0000 0.0000 0.0000 (117761 PWs)   bands (ev):

   -23.8470 -23.8469 -23.8276 -23.8276 -22.5369 -22.5351 -22.5348 -22.5331
   -21.8683 -21.8664 -21.8633 -21.8614 -18.9917 -18.9916 -18.9867 -18.9867
   -17.9170 -17.9157 -17.9062 -17.9051 -17.8019 -17.7961 -17.7876 -17.7834
   -17.5565 -17.5498 -17.5458 -17.5432 -17.4655 -17.4629 -17.4110 -17.4102
   -16.7821 -16.7797 -16.7731 -16.7704 -15.3160 -15.3028 -15.2922 -15.2860
   -14.9464 -14.9461 -14.9352 -14.9284 -12.1380 -12.1307 -12.1280 -12.1206
   -10.9837 -10.9767 -10.9641 -10.9511 -10.7295 -10.7288 -10.7237 -10.7215
    -9.6074  -9.6001  -9.5914  -9.5852  -9.5132  -9.5110  -9.4403  -9.4388
    -8.8721  -8.8513  -8.8377  -8.8173  -8.0598  -8.0446  -7.9969  -7.9809
    -7.2199  -7.2137  -7.1972  -7.1927  -6.8840  -6.8637  -6.6934  -6.6844
    -6.6404  -6.6404  -6.5971  -6.5676  -6.5173  -6.4729  -6.4541  -6.4200
    -6.1824  -6.1406  -6.1253  -6.1141  -6.1103  -6.0820  -6.0453  -6.0071
    -5.8461  -5.8296  -5.8074  -5.7818  -5.5359  -5.5225  -5.4975  -5.4504
    -5.4435  -5.4211  -5.2839  -5.2795  -5.1551  -5.1374  -5.1143  -5.1060
    -3.9850  -3.9850  -3.9491  -3.9412  -3.6744  -3.6552  -3.4810  -3.4714
    -3.3080  -3.3059  -2.9349  -2.9211  -2.7270  -2.6878  -2.6860  -2.5926
    -2.5688  -2.5012  -2.2618  -2.2597  -2.2429  -2.2125  -2.0339  -1.9563
    -1.9159  -1.8887  -1.7296  -1.7234  -1.6057  -1.6030  -1.5253  -1.4879
    -1.4431  -1.4291  -1.4286  -1.4092  -1.3373  -1.3344  -1.3267  -1.3264
    -0.9673  -0.9559  -0.9412  -0.9230  -0.7947  -0.7744  -0.7501  -0.7499
    -0.5855  -0.5674  -0.5657  -0.5607  -0.5446  -0.5296  -0.5252  -0.5228
    -0.2845  -0.2816  -0.2585  -0.2428  -0.1614  -0.1504  -0.1490  -0.1463
     0.3698   0.3759   0.4156   0.4214   0.4579   0.4727   0.6578   0.6824
     0.7751   0.8259   0.8345   0.8369   4.2440   4.2601   4.2626   4.2733
     4.8918   4.9351   4.9576   4.9637   5.2399   5.2748   5.2872   5.2933
     6.1366   6.1411   6.2301   6.2330   7.0029   7.0474   7.0667   7.1991
     7.2190   7.2944   7.4303   7.7634   7.9580   8.0064   8.3944   8.5220
     8.5486   8.6228   8.7066   8.8140   8.8771   8.9289   9.1253   9.1588
     9.1853

          k = 0.0000 0.3220 0.0000 (117712 PWs)   bands (ev):

   -23.8464 -23.8463 -23.8278 -23.8278 -22.5362 -22.5352 -22.5346 -22.5336
   -21.8676 -21.8667 -21.8626 -21.8617 -18.9921 -18.9920 -18.9874 -18.9873
   -17.9266 -17.9208 -17.9198 -17.9169 -17.8006 -17.7982 -17.7872 -17.7849
   -17.5834 -17.5798 -17.5760 -17.5754 -17.4353 -17.4348 -17.3846 -17.3843
   -16.7665 -16.7647 -16.7621 -16.7601 -15.2962 -15.2893 -15.2769 -15.2736
   -14.9520 -14.9516 -14.9427 -14.9391 -12.1153 -12.1103 -12.1094 -12.1044
   -10.9959 -10.9920 -10.9776 -10.9709 -10.7326 -10.7321 -10.7218 -10.7216
    -9.6132  -9.6062  -9.6025  -9.5970  -9.5060  -9.4999  -9.4708  -9.4655
    -8.8786  -8.8605  -8.8531  -8.8356  -8.0962  -8.0652  -8.0616  -8.0317
    -7.0952  -7.0788  -7.0750  -7.0554  -6.8501  -6.8466  -6.8300  -6.8174
    -6.8077  -6.8017  -6.5656  -6.5391  -6.4620  -6.4453  -6.4144  -6.3946
    -6.2398  -6.2069  -6.1738  -6.1592  -6.1446  -6.1212  -6.0232  -6.0215
    -5.8522  -5.8236  -5.8075  -5.8016  -5.6089  -5.5750  -5.5563  -5.5147
    -5.4741  -5.4612  -5.2734  -5.2707  -5.0456  -5.0290  -5.0270  -5.0115
    -3.9483  -3.9432  -3.9336  -3.9261  -3.4905  -3.4622  -3.3706  -3.3650
    -3.3603  -3.3280  -2.9301  -2.9109  -2.6810  -2.6782  -2.5830  -2.5551
    -2.5399  -2.4951  -2.2392  -2.2113  -2.1998  -2.1571  -2.0641  -1.9823
    -1.9561  -1.9397  -1.7460  -1.7443  -1.6959  -1.6681  -1.6350  -1.6145
    -1.5419  -1.5416  -1.5142  -1.5121  -1.2438  -1.2332  -1.2319  -1.2080
    -1.0168  -1.0056  -0.9996  -0.9961  -0.8438  -0.8056  -0.7914  -0.7909
    -0.5779  -0.5767  -0.5695  -0.5652  -0.5112  -0.5041  -0.4832  -0.4818
    -0.2738  -0.2683  -0.2644  -0.2489  -0.1482  -0.1481  -0.1242  -0.1179
     0.4062   0.4131   0.4616   0.4647   0.4951   0.5048   0.6757   0.6847
     0.7560   0.7897   0.8655   0.8748   4.2256   4.2376   4.2377   4.2413
     4.8706   4.8874   4.9234   4.9263   5.2529   5.2657   5.2921   5.2956
     6.1418   6.1440   6.1925   6.1965   7.0655   7.1072   7.2146   7.2255
     7.2331   7.5084   7.5420   7.5875   7.7983   8.0166   8.1963   8.2293
     8.2463   8.4231   8.4403   8.5362   8.7817   8.9342   9.0562   9.2016
     9.2205

          k = 0.3333 0.0000 0.0605 (117686 PWs)   bands (ev):

   -23.8437 -23.8437 -23.8308 -23.8308 -22.5367 -22.5350 -22.5349 -22.5332
   -21.8683 -21.8664 -21.8634 -21.8615 -18.9927 -18.9926 -18.9860 -18.9859
   -17.9162 -17.9156 -17.9061 -17.9051 -17.8009 -17.7948 -17.7889 -17.7844
   -17.5551 -17.5488 -17.5461 -17.5447 -17.4725 -17.4688 -17.4058 -17.4046
   -16.7818 -16.7812 -16.7728 -16.7718 -15.3155 -15.3022 -15.2920 -15.2857
   -14.9441 -14.9438 -14.9376 -14.9309 -12.1364 -12.1334 -12.1258 -12.1228
   -10.9878 -10.9803 -10.9603 -10.9467 -10.7281 -10.7269 -10.7246 -10.7229
    -9.6051  -9.6042  -9.5906  -9.5896  -9.5176  -9.5039  -9.4420  -9.4338
    -8.8643  -8.8602  -8.8312  -8.8278  -8.0614  -8.0445  -7.9974  -7.9801
    -7.2209  -7.2123  -7.1981  -7.1894  -6.7965  -6.7950  -6.6927  -6.6772
    -6.6583  -6.6524  -6.5940  -6.5936  -6.5093  -6.4859  -6.4476  -6.4120
    -6.1972  -6.1850  -6.1636  -6.1314  -6.1085  -6.0973  -6.0163  -6.0126
    -5.8510  -5.8391  -5.8166  -5.7869  -5.5185  -5.5120  -5.4820  -5.4792
    -5.4397  -5.4359  -5.3144  -5.2870  -5.1345  -5.0976  -5.0774  -5.0506
    -4.0398  -4.0340  -3.9904  -3.9859  -3.5832  -3.5759  -3.4935  -3.4901
    -3.2806  -3.2799  -2.9035  -2.9031  -2.7043  -2.7003  -2.6605  -2.6301
    -2.5732  -2.5377  -2.2738  -2.2461  -2.2331  -2.2013  -2.0428  -2.0420
    -1.9677  -1.9332  -1.8202  -1.7897  -1.6246  -1.6225  -1.5710  -1.5250
    -1.5125  -1.5004  -1.4409  -1.4334  -1.2288  -1.2078  -1.2063  -1.1949
    -0.9932  -0.9820  -0.9235  -0.9052  -0.7872  -0.7736  -0.7592  -0.7513
    -0.5919  -0.5846  -0.5695  -0.5589  -0.5479  -0.5425  -0.5277  -0.5165
    -0.3054  -0.2867  -0.2718  -0.2424  -0.1885  -0.1717  -0.1659  -0.1548
     0.3802   0.3979   0.4010   0.4134   0.4830   0.5030   0.6539   0.6752
     0.7329   0.7448   0.9117   0.9440   4.1855   4.1871   4.3174   4.3367
     4.9071   4.9197   4.9450   4.9749   5.2153   5.2776   5.2944   5.3244
     6.1493   6.1501   6.2291   6.2455   6.9513   6.9859   7.2393   7.2674
     7.4473   7.5288   7.7364   7.7627   8.0708   8.0971   8.3634   8.4324
     8.6335   8.7477   8.7949   8.8621   8.9152   8.9409   9.0103   9.0541
     9.1794

          k = 0.3333 0.3220 0.0605 (117675 PWs)   bands (ev):

   -23.8436 -23.8433 -23.8308 -23.8305 -22.5361 -22.5352 -22.5346 -22.5337
   -21.8676 -21.8666 -21.8627 -21.8618 -18.9927 -18.9924 -18.9874 -18.9871
   -17.9266 -17.9213 -17.9190 -17.9182 -17.8025 -17.7988 -17.7867 -17.7845
   -17.5864 -17.5835 -17.5721 -17.5709 -17.4385 -17.4350 -17.3846 -17.3816
   -16.7658 -16.7653 -16.7613 -16.7606 -15.2957 -15.2888 -15.2775 -15.2739
   -14.9534 -14.9503 -14.9432 -14.9384 -12.1163 -12.1110 -12.1096 -12.1045
   -11.0012 -10.9977 -10.9720 -10.9653 -10.7316 -10.7298 -10.7239 -10.7221
    -9.6103  -9.6064  -9.6034  -9.5980  -9.5075  -9.4982  -9.4721  -9.4634
    -8.8713  -8.8633  -8.8515  -8.8446  -8.0900  -8.0823  -8.0540  -8.0413
    -7.0867  -7.0792  -7.0731  -7.0643  -6.8442  -6.8319  -6.8229  -6.8082
    -6.7754  -6.7410  -6.5767  -6.5503  -6.4723  -6.4404  -6.4180  -6.3937
    -6.2342  -6.2114  -6.2088  -6.1847  -6.1528  -6.1324  -6.0324  -6.0196
    -5.8460  -5.8203  -5.8123  -5.8079  -5.5772  -5.5572  -5.5251  -5.5095
    -5.4734  -5.4610  -5.2826  -5.2532  -5.0322  -5.0187  -5.0120  -4.9913
    -4.0009  -3.9964  -3.9876  -3.9837  -3.4589  -3.4473  -3.3942  -3.3766
    -3.3020  -3.2981  -2.9444  -2.9285  -2.6980  -2.6879  -2.5930  -2.5693
    -2.5129  -2.5082  -2.2488  -2.2070  -2.1903  -2.1733  -2.0698  -2.0374
    -1.9584  -1.9354  -1.7661  -1.7311  -1.7019  -1.6715  -1.6379  -1.6102
    -1.5364  -1.5215  -1.4056  -1.3912  -1.3408  -1.3289  -1.2466  -1.2233
    -1.0080  -0.9994  -0.9855  -0.9765  -0.8429  -0.8161  -0.8098  -0.7770
    -0.5932  -0.5878  -0.5602  -0.5544  -0.5204  -0.5107  -0.5066  -0.4823
    -0.2897  -0.2806  -0.2728  -0.2555  -0.1562  -0.1541  -0.1470  -0.1370
     0.4300   0.4309   0.4620   0.4792   0.5137   0.5329   0.6589   0.6661
     0.7534   0.7580   0.9016   0.9308   4.1561   4.1579   4.3008   4.3106
     4.8775   4.8879   4.9056   4.9220   5.2475   5.2749   5.2981   5.3154
     6.1128   6.1435   6.2032   6.2208   7.0382   7.0548   7.2688   7.2804
     7.5232   7.6907   7.7715   7.8108   8.0319   8.0928   8.2064   8.2517
     8.3469   8.4578   8.5168   8.6063   8.6682   8.8150   8.8815   8.9808
     9.0419

     highest occupied, lowest unoccupied level (ev):     0.9440    4.1561

!    total energy              =   -2004.53925730 Ry
     Harris-Foulkes estimate   =   -2004.53925731 Ry
     estimated scf accuracy    <          6.5E-09 Ry

     total all-electron energy =     -7581.018277 Ry

     The total energy is the sum of the following terms:

     one-electron contribution =   -1159.21876514 Ry
     hartree contribution      =     726.61982575 Ry
     xc contribution           =    -402.36273758 Ry
     ewald contribution        =    -610.84575339 Ry
     Dispersion Correction     =      -0.45327213 Ry
     one-center paw contrib.   =    -558.27855481 Ry

     convergence has been achieved in  14 iterations

     Forces acting on atoms (cartesian axes, Ry/au):

     atom    1 type  4   force =    -0.00146819    0.00004778    0.00224027
     atom    2 type  4   force =     0.00146819    0.00004778   -0.00224027
     atom    3 type  4   force =     0.00146819   -0.00004778   -0.00224027
     atom    4 type  4   force =    -0.00146819   -0.00004778    0.00224027
     atom    5 type  3   force =     0.00133500   -0.00273003   -0.00082416
     atom    6 type  3   force =    -0.00133500   -0.00273003    0.00082416
     atom    7 type  3   force =    -0.00133500    0.00273003    0.00082416
     atom    8 type  3   force =     0.00133500    0.00273003   -0.00082416
     atom    9 type  3   force =    -0.00027626    0.00181998    0.00056242
     atom   10 type  3   force =     0.00027626    0.00181998   -0.00056242
     atom   11 type  3   force =     0.00027626   -0.00181998   -0.00056242
     atom   12 type  3   force =    -0.00027626   -0.00181998    0.00056242
     atom   13 type  3   force =     0.00000857   -0.00068896   -0.00022685
     atom   14 type  3   force =    -0.00000857   -0.00068896    0.00022685
     atom   15 type  3   force =    -0.00000857    0.00068896    0.00022685
     atom   16 type  3   force =     0.00000857    0.00068896   -0.00022685
     atom   17 type  3   force =    -0.00043835   -0.00045013   -0.00043475
     atom   18 type  3   force =     0.00043835   -0.00045013    0.00043475
     atom   19 type  3   force =     0.00043835    0.00045013    0.00043475
     atom   20 type  3   force =    -0.00043835    0.00045013   -0.00043475
     atom   21 type  3   force =     0.00020165    0.00058936    0.00020248
     atom   22 type  3   force =    -0.00020165    0.00058936   -0.00020248
     atom   23 type  3   force =    -0.00020165   -0.00058936   -0.00020248
     atom   24 type  3   force =     0.00020165   -0.00058936    0.00020248
     atom   25 type  3   force =     0.00015324    0.00045948   -0.00018882
     atom   26 type  3   force =    -0.00015324    0.00045948    0.00018882
     atom   27 type  3   force =    -0.00015324   -0.00045948    0.00018882
     atom   28 type  3   force =     0.00015324   -0.00045948   -0.00018882
     atom   29 type  3   force =    -0.00035700   -0.00101763    0.00109684
     atom   30 type  3   force =     0.00035700   -0.00101763   -0.00109684
     atom   31 type  3   force =     0.00035700    0.00101763   -0.00109684
     atom   32 type  3   force =    -0.00035700    0.00101763    0.00109684
     atom   33 type  3   force =     0.00067658   -0.00223467    0.00081120
     atom   34 type  3   force =    -0.00067658   -0.00223467   -0.00081120
     atom   35 type  3   force =    -0.00067658    0.00223467   -0.00081120
     atom   36 type  3   force =     0.00067658    0.00223467    0.00081120
     atom   37 type  3   force =    -0.00076765   -0.00127834   -0.00011306
     atom   38 type  3   force =     0.00076765   -0.00127834    0.00011306
     atom   39 type  3   force =     0.00076765    0.00127834    0.00011306
     atom   40 type  3   force =    -0.00076765    0.00127834   -0.00011306
     atom   41 type  4   force =     0.00008938   -0.00012275   -0.00039172
     atom   42 type  4   force =    -0.00008938   -0.00012275    0.00039172
     atom   43 type  4   force =    -0.00008938    0.00012275    0.00039172
     atom   44 type  4   force =     0.00008938    0.00012275   -0.00039172
     atom   45 type  4   force =    -0.00078445    0.00148284    0.00080488
     atom   46 type  4   force =     0.00078445    0.00148284   -0.00080488
     atom   47 type  4   force =     0.00078445   -0.00148284   -0.00080488
     atom   48 type  4   force =    -0.00078445   -0.00148284    0.00080488
     atom   49 type  2   force =     0.00022255   -0.00141829    0.00138308
     atom   50 type  2   force =    -0.00022255   -0.00141829   -0.00138308
     atom   51 type  2   force =    -0.00022255    0.00141829   -0.00138308
     atom   52 type  2   force =     0.00022255    0.00141829    0.00138308
     atom   53 type  2   force =     0.00199767    0.00537543   -0.00313110
     atom   54 type  2   force =    -0.00199767    0.00537543    0.00313110
     atom   55 type  2   force =    -0.00199767   -0.00537543    0.00313110
     atom   56 type  2   force =     0.00199767   -0.00537543   -0.00313110
     atom   57 type  1   force =    -0.00094491    0.00066859    0.00058920
     atom   58 type  1   force =     0.00094491    0.00066859   -0.00058920
     atom   59 type  1   force =     0.00094491   -0.00066859   -0.00058920
     atom   60 type  1   force =    -0.00094491   -0.00066859    0.00058920
     atom   61 type  2   force =    -0.00006623   -0.00020134   -0.00058895
     atom   62 type  2   force =     0.00006623   -0.00020134    0.00058895
     atom   63 type  2   force =     0.00006623    0.00020134    0.00058895
     atom   64 type  2   force =    -0.00006623    0.00020134   -0.00058895
     atom   65 type  2   force =    -0.00142566    0.00009319    0.00215475
     atom   66 type  2   force =     0.00142566    0.00009319   -0.00215475
     atom   67 type  2   force =     0.00142566   -0.00009319   -0.00215475
     atom   68 type  2   force =    -0.00142566   -0.00009319    0.00215475
     atom   69 type  2   force =    -0.00052788   -0.00073264    0.00117256
     atom   70 type  2   force =     0.00052788   -0.00073264   -0.00117256
     atom   71 type  2   force =     0.00052788    0.00073264   -0.00117256
     atom   72 type  2   force =    -0.00052788    0.00073264    0.00117256
     atom   73 type  2   force =     0.00187433   -0.00088027   -0.00379456
     atom   74 type  2   force =    -0.00187433   -0.00088027    0.00379456
     atom   75 type  2   force =    -0.00187433    0.00088027    0.00379456
     atom   76 type  2   force =     0.00187433    0.00088027   -0.00379456
     atom   77 type  2   force =     0.00081487    0.00020172   -0.00006991
     atom   78 type  2   force =    -0.00081487    0.00020172    0.00006991
     atom   79 type  2   force =    -0.00081487   -0.00020172    0.00006991
     atom   80 type  2   force =     0.00081487   -0.00020172   -0.00006991
     atom   81 type  2   force =    -0.00045923   -0.00045912    0.00132510
     atom   82 type  2   force =     0.00045923   -0.00045912   -0.00132510
     atom   83 type  2   force =     0.00045923    0.00045912   -0.00132510
     atom   84 type  2   force =    -0.00045923    0.00045912    0.00132510
     atom   85 type  1   force =    -0.00072549    0.00596087   -0.00142718
     atom   86 type  1   force =     0.00072549    0.00596087    0.00142718
     atom   87 type  1   force =     0.00072549   -0.00596087    0.00142718
     atom   88 type  1   force =    -0.00072549   -0.00596087   -0.00142718
     atom   89 type  2   force =     0.00021893   -0.00563207    0.00038790
     atom   90 type  2   force =    -0.00021893   -0.00563207   -0.00038790
     atom   91 type  2   force =    -0.00021893    0.00563207   -0.00038790
     atom   92 type  2   force =     0.00021893    0.00563207    0.00038790
     atom   93 type  2   force =     0.00070956    0.00088133   -0.00108478
     atom   94 type  2   force =    -0.00070956    0.00088133    0.00108478
     atom   95 type  2   force =    -0.00070956   -0.00088133    0.00108478
     atom   96 type  2   force =     0.00070956   -0.00088133   -0.00108478
     atom   97 type  2   force =    -0.00074715    0.00337345    0.00045903
     atom   98 type  2   force =     0.00074715    0.00337345   -0.00045903
     atom   99 type  2   force =     0.00074715   -0.00337345   -0.00045903
     atom  100 type  2   force =    -0.00074715   -0.00337345    0.00045903
     atom  101 type  1   force =     0.00066019   -0.00241341   -0.00256023
     atom  102 type  1   force =    -0.00066019   -0.00241341    0.00256023
     atom  103 type  1   force =    -0.00066019    0.00241341    0.00256023
     atom  104 type  1   force =     0.00066019    0.00241341   -0.00256023

     Total force =     0.029229     Total SCF correction =     0.000152


     Computing stress (Cartesian axis) and pressure

          total   stress  (Ry/bohr**3)                   (kbar)     P=   -6.09
  -0.00002207   0.00000000   0.00000742         -3.25      0.00      1.09
   0.00000000  -0.00007101   0.00000000          0.00    -10.45      0.00
   0.00000742   0.00000000  -0.00003107          1.09      0.00     -4.57


     Writing output data file scf.save
 
     init_run     :     38.29s CPU     39.45s WALL (       1 calls)
     electrons    :   1023.63s CPU   1054.28s WALL (       1 calls)
     forces       :     22.67s CPU     22.88s WALL (       1 calls)
     stress       :     87.21s CPU     87.47s WALL (       1 calls)

     Called by init_run:
     wfcinit      :     26.52s CPU     27.54s WALL (       1 calls)
     potinit      :      4.22s CPU      4.24s WALL (       1 calls)

     Called by electrons:
     c_bands      :    918.11s CPU    943.95s WALL (      14 calls)
     sum_band     :     91.97s CPU     95.59s WALL (      14 calls)
     v_of_rho     :      1.98s CPU      2.12s WALL (      15 calls)
     newd         :      5.15s CPU      6.20s WALL (      15 calls)
     PAW_pot      :      6.02s CPU      6.03s WALL (      15 calls)
     mix_rho      :      0.46s CPU      0.47s WALL (      14 calls)

     Called by c_bands:
     init_us_2    :      3.99s CPU      4.03s WALL (     124 calls)
     cegterg      :    898.42s CPU    924.23s WALL (      56 calls)

     Called by sum_band:
     sum_band:bec :      0.05s CPU      0.05s WALL (      56 calls)
     addusdens    :      5.16s CPU      6.14s WALL (      14 calls)

     Called by *egterg:
     h_psi        :    448.74s CPU    467.92s WALL (     335 calls)
     s_psi        :    109.25s CPU    109.27s WALL (     335 calls)
     g_psi        :      1.94s CPU      1.94s WALL (     275 calls)
     cdiaghg      :     67.20s CPU     67.22s WALL (     331 calls)

     Called by h_psi:
     h_psi:pot    :    446.07s CPU    465.18s WALL (     335 calls)
     h_psi:calbec :    113.04s CPU    113.27s WALL (     335 calls)
     vloc_psi     :    224.08s CPU    242.95s WALL (     335 calls)
     add_vuspsi   :    108.96s CPU    108.96s WALL (     335 calls)

     General routines
     calbec       :    172.88s CPU    173.24s WALL (     411 calls)
     fft          :      4.01s CPU      4.26s WALL (     219 calls)
     fftw         :    245.09s CPU    266.39s WALL (   82118 calls)
 
     Parallel routines
     fft_scatter  :     71.98s CPU     92.40s WALL (   82337 calls)
 
     PWSCF        : 19m39.29s CPU    20m47.28s WALL

 
   This run was terminated on:  18:19:52  14Dec2017            

=------------------------------------------------------------------------------=
   JOB DONE.
=------------------------------------------------------------------------------=
