
     Program PWSCF v.6.1 (svn rev. 13369) starts on  4Nov2017 at  4:29:30 

     This program is part of the open-source Quantum ESPRESSO suite
     for quantum simulation of materials; please cite
         "P. Giannozzi et al., J. Phys.:Condens. Matter 21 395502 (2009);
          URL http://www.quantum-espresso.org", 
     in publications or presentations arising from this work. More details at
     http://www.quantum-espresso.org/quote

     Parallel version (MPI), running on     8 processors
     R & G space division:  proc/nbgrp/npool/nimage =       8
     Waiting for input...
     Reading input from standard input

     Current dimensions of program PWSCF are:
     Max number of different atomic species (ntypx) = 10
     Max number of k-points (npk) =  40000
     Max angular momentum in pseudopotentials (lmaxx) =  3
               file C.pbe-n-kjpaw_psl.0.1.UPF: wavefunction(s)  2P renormalized
               file N.pbe-n-kjpaw_psl.0.1.UPF: wavefunction(s)  2P renormalized
               file H.pbe-kjpaw_psl.0.1.UPF: wavefunction(s)  1S renormalized
               file O.pbe-n-kjpaw_psl.0.1.UPF: wavefunction(s)  2P renormalized

     -------------------------------------
     Parameters for Dispersion Correction:
     -------------------------------------
       atom      VdW radius       C_6     

        C          2.744         60.710
        N          2.640         42.670
        H          1.892          4.857
        O          2.536         24.284

     Subspace diagonalization in iterative solution of the eigenvalue problem:
     a serial algorithm will be used

 
     Parallelization info
     --------------------
     sticks:   dense  smooth     PW     G-vecs:    dense   smooth      PW
     Min         761     761    204                74699    74699   10438
     Max         762     762    205                74705    74705   10443
     Sum        6095    6095   1633               597615   597615   83513
 


     bravais-lattice index     =            0
     lattice parameter (alat)  =      18.6777  a.u.
     unit-cell volume          =    4423.4016 (a.u.)^3
     number of atoms/cell      =           68
     number of atomic types    =            4
     number of electrons       =       248.00
     number of Kohn-Sham states=          148
     kinetic-energy cutoff     =     100.0000  Ry
     charge density cutoff     =     400.0000  Ry
     convergence threshold     =      1.0E-08
     mixing beta               =       0.5000
     number of iterations used =            8  plain     mixing
     Exchange-correlation      =  SLA  PW   PBX  PBC ( 1  4  3  4 0 0)

     celldm(1)=  18.677675  celldm(2)=   0.000000  celldm(3)=   0.000000
     celldm(4)=   0.000000  celldm(5)=   0.000000  celldm(6)=   0.000000

     crystal axes: (cart. coord. in units of alat)
               a(1) = (   1.000000   0.000000   0.000000 )  
               a(2) = (   0.000000   0.549030   0.000000 )  
               a(3) = (  -0.171314   0.000000   1.236494 )  

     reciprocal axes: (cart. coord. in units 2 pi/alat)
               b(1) = (  1.000000  0.000000  0.138548 )  
               b(2) = (  0.000000  1.821395  0.000000 )  
               b(3) = (  0.000000  0.000000  0.808738 )  


     PseudoPot. # 1 for  C read from file:
     /scratch/ahofstet/pseudo/C.pbe-n-kjpaw_psl.0.1.UPF
     MD5 check sum: 430fe95172b1e11ef3f8ed03bac87931
     Pseudo is Projector augmented-wave + core cor, Zval =  4.0
     Generated using "atomic" code by A. Dal Corso  v.5.0.99 svn rev. 10869
     Shape of augmentation charge: BESSEL
     Using radial grid of 1073 points,  4 beta functions with: 
                l(1) =   0
                l(2) =   0
                l(3) =   1
                l(4) =   1
     Q(r) pseudized with 0 coefficients 


     PseudoPot. # 2 for  N read from file:
     /scratch/ahofstet/pseudo/N.pbe-n-kjpaw_psl.0.1.UPF
     MD5 check sum: f73187c8b701007e77325f868c9291d7
     Pseudo is Projector augmented-wave + core cor, Zval =  5.0
     Generated using "atomic" code by A. Dal Corso  v.5.0.99 svn rev. 10869
     Shape of augmentation charge: PSQ
     Using radial grid of 1085 points,  4 beta functions with: 
                l(1) =   0
                l(2) =   0
                l(3) =   1
                l(4) =   1
     Q(r) pseudized with 0 coefficients 


     PseudoPot. # 3 for  H read from file:
     /scratch/ahofstet/pseudo/H.pbe-kjpaw_psl.0.1.UPF
     MD5 check sum: 94e484f906d9e9773b2f6e52662335b2
     Pseudo is Projector augmented-wave, Zval =  1.0
     Generated using "atomic" code by A. Dal Corso  v.5.0.99 svn rev. 10869
     Shape of augmentation charge: PSQ
     Using radial grid of  929 points,  2 beta functions with: 
                l(1) =   0
                l(2) =   0
     Q(r) pseudized with 0 coefficients 


     PseudoPot. # 4 for  O read from file:
     /scratch/ahofstet/pseudo/O.pbe-n-kjpaw_psl.0.1.UPF
     MD5 check sum: 3f94a2996a3169367d6eb21d9b593f20
     Pseudo is Projector augmented-wave + core cor, Zval =  6.0
     Generated using "atomic" code by A. Dal Corso  v.5.0.99 svn rev. 10869
     Shape of augmentation charge: BESSEL
     Using radial grid of 1095 points,  4 beta functions with: 
                l(1) =   0
                l(2) =   0
                l(3) =   1
                l(4) =   1
     Q(r) pseudized with 0 coefficients 


     atomic species   valence    mass     pseudopotential
        C              4.00    12.01070      C( 1.00)
        N              5.00    14.00670      N( 1.00)
        H              1.00     1.00794      H( 1.00)
        O              6.00    15.99940      O( 1.00)

      4 Sym. Ops., with inversion, found ( 2 have fractional translation)



   Cartesian axes

     site n.     atom                  positions (alat units)
         1           O   tau(   1) = (   0.8840370   0.0835236   0.4728171  )
         2           O   tau(   2) = (   0.5303061   0.3580384   0.1454299  )
         3           O   tau(   3) = (  -0.0553508   0.4655061   0.7636770  )
         4           O   tau(   4) = (   0.2983801   0.1909913   1.0910642  )
         5           O   tau(   5) = (   0.7823300   0.0215678   0.2850589  )
         6           O   tau(   6) = (   0.6320131   0.2960827   0.3331882  )
         7           O   tau(   7) = (   0.0463562   0.5274619   0.9514353  )
         8           O   tau(   8) = (   0.1966731   0.2529471   0.9033059  )
         9           N   tau(   9) = (   0.9185771   0.1974152   0.2757932  )
        10           N   tau(  10) = (   0.4957660   0.4719301   0.3424539  )
        11           N   tau(  11) = (  -0.0898909   0.3516145   0.9607010  )
        12           N   tau(  12) = (   0.3329202   0.0770996   0.8940402  )
        13           N   tau(  13) = (   0.1388410   0.4011508   0.4725456  )
        14           N   tau(  14) = (   0.2755021   0.1266360   0.1457015  )
        15           N   tau(  15) = (   0.6898452   0.1478789   0.7639485  )
        16           N   tau(  16) = (   0.5531841   0.4223938   1.0907926  )
        17           N   tau(  17) = (   0.8610287   0.0989057   0.3483218  )
        18           N   tau(  18) = (   0.5533144   0.3734205   0.2699252  )
        19           N   tau(  19) = (  -0.0323425   0.4501241   0.8881723  )
        20           N   tau(  20) = (   0.2753718   0.1756092   0.9665689  )
        21           N   tau(  21) = (   0.1355772   0.4618837   0.3570680  )
        22           N   tau(  22) = (   0.2787659   0.1873688   0.2611790  )
        23           N   tau(  23) = (   0.6931090   0.0871460   0.8794261  )
        24           N   tau(  24) = (   0.5499203   0.3616609   0.9753151  )
        25           N   tau(  25) = (   0.0573178   0.2912889   0.4666713  )
        26           N   tau(  26) = (   0.3570253   0.0167740   0.1515758  )
        27           N   tau(  27) = (   0.7713684   0.2577409   0.7698228  )
        28           N   tau(  28) = (   0.4716609   0.5322557   1.0849184  )
        29           N   tau(  29) = (   0.0521118   0.3916385   0.2751483  )
        30           N   tau(  30) = (   0.3622313   0.1171236   0.3430987  )
        31           N   tau(  31) = (   0.7765744   0.1573912   0.9613458  )
        32           N   tau(  32) = (   0.4664549   0.4319061   0.8933954  )
        33           C   tau(  33) = (   0.0017093   0.2825350   0.3419675  )
        34           C   tau(  34) = (   0.4126338   0.0080201   0.2762795  )
        35           C   tau(  35) = (   0.8269769   0.2664947   0.8945266  )
        36           C   tau(  36) = (   0.4160524   0.5410096   0.9602146  )
        37           C   tau(  37) = (   0.0280575   0.4283159   0.1345973  )
        38           C   tau(  38) = (   0.3862856   0.1538010   0.4836498  )
        39           C   tau(  39) = (   0.8006287   0.1207139   1.1018969  )
        40           C   tau(  40) = (   0.4424006   0.3952287   0.7528443  )
        41           O   tau(  41) = (   0.0952997   0.1363061   0.6712344  )
        42           O   tau(  42) = (   0.1477296   0.4108210   1.1835068  )
        43           O   tau(  43) = (   0.7333865   0.4127236   0.5652597  )
        44           O   tau(  44) = (   0.6809566   0.1382087   0.0529873  )
        45           H   tau(  45) = (   0.0363597   0.5383400   0.1267540  )
        46           H   tau(  46) = (   0.3779834   0.2638252   0.4914931  )
        47           H   tau(  47) = (   0.7923265   0.0106897   1.1097401  )
        48           H   tau(  48) = (   0.4507028   0.2852046   0.7450010  )
        49           H   tau(  49) = (   0.9257308   0.3955331   0.1077088  )
        50           H   tau(  50) = (   0.4886123   0.1210182   0.5105382  )
        51           H   tau(  51) = (  -0.0970446   0.1534966   1.1287853  )
        52           H   tau(  52) = (   0.3400739   0.4280115   0.7259559  )
        53           H   tau(  53) = (   0.1036277   0.3789424   0.0697130  )
        54           H   tau(  54) = (   0.3107154   0.1044276   0.5485341  )
        55           H   tau(  55) = (   0.7250585   0.1700873   1.1667811  )
        56           H   tau(  56) = (   0.5179708   0.4446022   0.6879601  )
        57           H   tau(  57) = (   0.0415138   0.0569916   0.6990455  )
        58           H   tau(  58) = (   0.2015156   0.3315064   1.1556957  )
        59           H   tau(  59) = (   0.7871724   0.4920381   0.5374486  )
        60           H   tau(  60) = (   0.6271707   0.2175233   0.0807985  )
        61           H   tau(  61) = (   0.1344921   0.1752438   0.7546038  )
        62           H   tau(  62) = (   0.1085372   0.4497586   1.1001374  )
        63           H   tau(  63) = (   0.6941941   0.3737860   0.4818903  )
        64           H   tau(  64) = (   0.7201490   0.0992711   0.1363568  )
        65           H   tau(  65) = (   0.0571715   0.2222013   0.5531373  )
        66           H   tau(  66) = (   0.3571716   0.4967162   0.0651098  )
        67           H   tau(  67) = (   0.7715147   0.3268284   0.6833568  )
        68           H   tau(  68) = (   0.4715146   0.0523135   1.1713844  )

     number of k points=    12
                       cart. coord. in units 2pi/alat
        k(    1) = (   0.0000000   0.0000000   0.0000000), wk =   0.1250000
        k(    2) = (   0.0000000   0.0000000  -0.4043691), wk =   0.1250000
        k(    3) = (   0.0000000   0.4553488   0.0000000), wk =   0.2500000
        k(    4) = (   0.0000000   0.4553488  -0.4043691), wk =   0.2500000
        k(    5) = (   0.0000000  -0.9106975   0.0000000), wk =   0.1250000
        k(    6) = (   0.0000000  -0.9106975  -0.4043691), wk =   0.1250000
        k(    7) = (  -0.5000000   0.0000000  -0.0692740), wk =   0.1250000
        k(    8) = (  -0.5000000   0.0000000  -0.4736431), wk =   0.1250000
        k(    9) = (  -0.5000000   0.4553488  -0.0692740), wk =   0.2500000
        k(   10) = (  -0.5000000   0.4553488  -0.4736431), wk =   0.2500000
        k(   11) = (  -0.5000000  -0.9106975  -0.0692740), wk =   0.1250000
        k(   12) = (  -0.5000000  -0.9106975  -0.4736431), wk =   0.1250000

     Dense  grid:   597615 G-vectors     FFT dimensions: ( 120,  72, 150)

     Estimated max dynamical RAM per process >     556.00MB

     Estimated total allocated dynamical RAM >    4448.00MB

     Check: negative/imaginary core charge=   -0.000002    0.000000

     Initial potential from superposition of free atoms

     starting charge  247.99924, renormalised to  248.00000
     Starting wfc are  200 randomized atomic wfcs
     Checking if some PAW data can be deallocated... 

     total cpu time spent up to now is       33.4 secs

     per-process dynamical memory:   420.5 Mb

     Self-consistent Calculation

     iteration #  1     ecut=   100.00 Ry     beta=0.50
     Davidson diagonalization with overlap
     ethr =  1.00E-02,  avg # of iterations =  3.0

     total cpu time spent up to now is      121.1 secs

     total energy              =   -1350.72604334 Ry
     Harris-Foulkes estimate   =   -1354.20835563 Ry
     estimated scf accuracy    <       6.39030796 Ry

     iteration #  2     ecut=   100.00 Ry     beta=0.50
     Davidson diagonalization with overlap
     ethr =  2.58E-03,  avg # of iterations =  3.1

     total cpu time spent up to now is      187.2 secs

     total energy              =   -1351.92345457 Ry
     Harris-Foulkes estimate   =   -1352.55204499 Ry
     estimated scf accuracy    <       1.37487077 Ry

     iteration #  3     ecut=   100.00 Ry     beta=0.50
     Davidson diagonalization with overlap
     ethr =  5.54E-04,  avg # of iterations =  5.7

     total cpu time spent up to now is      261.2 secs

     total energy              =   -1352.22657740 Ry
     Harris-Foulkes estimate   =   -1352.28970105 Ry
     estimated scf accuracy    <       0.18225047 Ry

     iteration #  4     ecut=   100.00 Ry     beta=0.50
     Davidson diagonalization with overlap
     ethr =  7.35E-05,  avg # of iterations =  9.6

     total cpu time spent up to now is      336.7 secs

     total energy              =   -1352.24545637 Ry
     Harris-Foulkes estimate   =   -1352.25737488 Ry
     estimated scf accuracy    <       0.03374865 Ry

     iteration #  5     ecut=   100.00 Ry     beta=0.50
     Davidson diagonalization with overlap
     ethr =  1.36E-05,  avg # of iterations =  9.0

     total cpu time spent up to now is      423.8 secs

     total energy              =   -1352.25280214 Ry
     Harris-Foulkes estimate   =   -1352.25827253 Ry
     estimated scf accuracy    <       0.01469971 Ry

     iteration #  6     ecut=   100.00 Ry     beta=0.50
     Davidson diagonalization with overlap
     ethr =  5.93E-06,  avg # of iterations =  3.2

     total cpu time spent up to now is      478.8 secs

     total energy              =   -1352.25489939 Ry
     Harris-Foulkes estimate   =   -1352.25551949 Ry
     estimated scf accuracy    <       0.00151921 Ry

     iteration #  7     ecut=   100.00 Ry     beta=0.50
     Davidson diagonalization with overlap
     c_bands:  1 eigenvalues not converged
     ethr =  6.13E-07,  avg # of iterations =  8.9

     total cpu time spent up to now is      572.4 secs

     total energy              =   -1352.25544522 Ry
     Harris-Foulkes estimate   =   -1352.25562373 Ry
     estimated scf accuracy    <       0.00054855 Ry

     iteration #  8     ecut=   100.00 Ry     beta=0.50
     Davidson diagonalization with overlap
     ethr =  2.21E-07,  avg # of iterations =  2.0

     total cpu time spent up to now is      626.4 secs

     total energy              =   -1352.25552174 Ry
     Harris-Foulkes estimate   =   -1352.25555476 Ry
     estimated scf accuracy    <       0.00009588 Ry

     iteration #  9     ecut=   100.00 Ry     beta=0.50
     Davidson diagonalization with overlap
     ethr =  3.87E-08,  avg # of iterations =  3.5

     total cpu time spent up to now is      687.6 secs

     total energy              =   -1352.25554090 Ry
     Harris-Foulkes estimate   =   -1352.25554216 Ry
     estimated scf accuracy    <       0.00000912 Ry

     iteration # 10     ecut=   100.00 Ry     beta=0.50
     Davidson diagonalization with overlap
     ethr =  3.68E-09,  avg # of iterations =  4.0

     total cpu time spent up to now is      767.6 secs

     total energy              =   -1352.25554379 Ry
     Harris-Foulkes estimate   =   -1352.25554437 Ry
     estimated scf accuracy    <       0.00000195 Ry

     iteration # 11     ecut=   100.00 Ry     beta=0.50
     Davidson diagonalization with overlap
     ethr =  7.85E-10,  avg # of iterations =  2.0

     total cpu time spent up to now is      818.0 secs

     total energy              =   -1352.25554390 Ry
     Harris-Foulkes estimate   =   -1352.25554398 Ry
     estimated scf accuracy    <       0.00000027 Ry

     iteration # 12     ecut=   100.00 Ry     beta=0.50
     Davidson diagonalization with overlap
     ethr =  1.09E-10,  avg # of iterations =  4.0

     total cpu time spent up to now is      907.7 secs

     total energy              =   -1352.25554410 Ry
     Harris-Foulkes estimate   =   -1352.25554415 Ry
     estimated scf accuracy    <       0.00000018 Ry

     iteration # 13     ecut=   100.00 Ry     beta=0.50
     Davidson diagonalization with overlap
     ethr =  7.29E-11,  avg # of iterations =  1.9

     total cpu time spent up to now is      957.3 secs

     total energy              =   -1352.25554407 Ry
     Harris-Foulkes estimate   =   -1352.25554411 Ry
     estimated scf accuracy    <       0.00000007 Ry

     iteration # 14     ecut=   100.00 Ry     beta=0.50
     Davidson diagonalization with overlap
     ethr =  2.70E-11,  avg # of iterations =  4.0

     total cpu time spent up to now is     1028.4 secs

     total energy              =   -1352.25554410 Ry
     Harris-Foulkes estimate   =   -1352.25554410 Ry
     estimated scf accuracy    <       0.00000001 Ry

     iteration # 15     ecut=   100.00 Ry     beta=0.50
     Davidson diagonalization with overlap
     ethr =  5.42E-12,  avg # of iterations =  1.5

     total cpu time spent up to now is     1077.4 secs

     End of self-consistent calculation

          k = 0.0000 0.0000 0.0000 ( 74653 PWs)   bands (ev):

   -23.9353 -23.9325 -23.8957 -23.8937 -22.5051 -22.5049 -22.4323 -22.4322
   -19.1257 -19.1170 -19.1145 -19.0988 -17.9842 -17.9799 -17.9513 -17.9291
   -17.8023 -17.7670 -17.7077 -17.6928 -17.4929 -17.4538 -17.4316 -17.4055
   -15.6612 -15.6526 -15.6022 -15.5857 -12.2217 -12.1386 -12.1348 -12.0777
   -11.3250 -11.2897 -11.2865 -11.2690  -9.7832  -9.7665  -9.7528  -9.7387
    -8.8622  -8.7793  -8.7744  -8.7466  -7.4077  -7.3239  -7.2248  -7.1803
    -7.0709  -6.9028  -6.8971  -6.8955  -6.7001  -6.4693  -6.3912  -6.3904
    -6.3235  -6.2884  -6.1594  -6.1512  -6.1228  -6.1222  -5.8705  -5.8187
    -5.6882  -5.6137  -5.5465  -5.3633  -5.2504  -5.2306  -5.1043  -4.9034
    -3.9118  -3.8894  -3.8893  -3.8712  -3.4654  -3.4298  -3.4248  -3.2917
    -2.7333  -2.6710  -2.6403  -2.6063  -2.4450  -2.3317  -2.0656  -2.0518
    -1.9553  -1.9527  -1.8922  -1.8554  -1.7047  -1.6862  -1.6856  -1.5766
    -1.3985  -1.3860  -1.3749  -1.2571  -0.8514  -0.8505  -0.7434  -0.7353
    -0.6289  -0.6175  -0.5757  -0.5441  -0.4836  -0.4357  -0.4104  -0.3424
    -0.1494  -0.1442  -0.1065  -0.0001   0.4167   0.4174   0.4656   0.4835
     0.5437   0.5755   0.7743   0.7990   4.1153   4.1857   4.2257   4.2951
     4.9596   4.9664   5.0279   5.0327   6.7296   6.7581   6.7652   6.7676
     7.1353   7.5572   7.8329   8.0246   8.3088   8.3269   8.3674   8.7834
     8.9362   9.0340   9.1872   9.2332

          k = 0.0000 0.0000-0.4044 ( 74668 PWs)   bands (ev):

   -23.9340 -23.9340 -23.8947 -23.8947 -22.5050 -22.5050 -22.4323 -22.4323
   -19.1215 -19.1215 -19.1065 -19.1065 -17.9893 -17.9893 -17.9301 -17.9301
   -17.7909 -17.7909 -17.6966 -17.6966 -17.4780 -17.4780 -17.4140 -17.4140
   -15.6576 -15.6576 -15.5932 -15.5932 -12.1914 -12.1914 -12.0955 -12.0955
   -11.3068 -11.3068 -11.2778 -11.2778  -9.7759  -9.7759  -9.7444  -9.7444
    -8.8345  -8.8345  -8.7472  -8.7472  -7.3528  -7.3528  -7.2347  -7.2347
    -6.9881  -6.9881  -6.8845  -6.8845  -6.5741  -6.5741  -6.3896  -6.3896
    -6.3004  -6.3004  -6.1892  -6.1892  -6.1105  -6.1105  -5.9045  -5.9045
    -5.5106  -5.5106  -5.4253  -5.4253  -5.3711  -5.3711  -4.9686  -4.9686
    -3.9038  -3.9038  -3.8805  -3.8805  -3.4500  -3.4500  -3.3528  -3.3528
    -2.7400  -2.7400  -2.5794  -2.5794  -2.4164  -2.4164  -2.0342  -2.0342
    -1.9424  -1.9424  -1.8864  -1.8864  -1.7339  -1.7339  -1.5502  -1.5502
    -1.4368  -1.4368  -1.3295  -1.3295  -0.8418  -0.8418  -0.7452  -0.7452
    -0.6054  -0.6054  -0.5473  -0.5473  -0.4607  -0.4607  -0.3996  -0.3996
    -0.1444  -0.1444  -0.0497  -0.0497   0.3965   0.3965   0.5167   0.5167
     0.5358   0.5358   0.7856   0.7856   4.1460   4.1460   4.2674   4.2674
     4.9609   4.9609   5.0335   5.0335   6.6857   6.6857   6.8301   6.8301
     7.2593   7.2593   7.9472   7.9472   8.3910   8.3910   8.6825   8.6825
     8.9638   8.9638   9.1957   9.1957

          k = 0.0000 0.4553 0.0000 ( 74725 PWs)   bands (ev):

   -23.9262 -23.9239 -23.8981 -23.8964 -22.4972 -22.4969 -22.4459 -22.4456
   -19.1256 -19.1205 -19.1118 -19.1015 -17.9775 -17.9759 -17.9495 -17.9347
   -17.8079 -17.7779 -17.7048 -17.6995 -17.4970 -17.4702 -17.4237 -17.4049
   -15.6539 -15.6398 -15.6114 -15.5933 -12.1941 -12.1404 -12.1336 -12.0995
   -11.2991 -11.2781 -11.2775 -11.2631  -9.7779  -9.7631  -9.7307  -9.7288
    -8.8773  -8.8242  -8.7838  -8.7442  -7.3884  -7.3122  -7.2178  -7.2113
    -7.0214  -6.9695  -6.9047  -6.8828  -6.7479  -6.7085  -6.6594  -6.6520
    -6.3821  -6.2048  -6.0640  -6.0022  -5.9608  -5.9029  -5.8254  -5.7603
    -5.5652  -5.4729  -5.4504  -5.4241  -5.3804  -5.1486  -5.1294  -4.9288
    -3.9364  -3.9155  -3.9106  -3.8698  -3.5214  -3.4619  -3.3787  -3.3178
    -2.7294  -2.7223  -2.6270  -2.6010  -2.3788  -2.2743  -2.0617  -2.0335
    -1.9415  -1.9155  -1.8556  -1.8368  -1.7696  -1.6768  -1.6612  -1.5820
    -1.3742  -1.3656  -1.3427  -1.2873  -0.8573  -0.8349  -0.8085  -0.7444
    -0.6280  -0.5727  -0.5555  -0.5452  -0.5347  -0.4236  -0.3877  -0.3758
    -0.1569  -0.1477  -0.0860  -0.0207   0.4189   0.4636   0.4698   0.5004
     0.5396   0.5919   0.7162   0.7335   4.0509   4.1028   4.1308   4.1804
     4.9169   4.9312   4.9647   4.9858   6.8042   6.8064   6.8412   6.8519
     7.4591   7.7745   8.0583   8.2372   8.3063   8.5648   8.5857   8.8250
     8.9632   9.0263   9.1460   9.1490

          k = 0.0000 0.4553-0.4044 ( 74710 PWs)   bands (ev):

   -23.9251 -23.9251 -23.8972 -23.8972 -22.4971 -22.4971 -22.4457 -22.4457
   -19.1216 -19.1216 -19.1081 -19.1081 -17.9803 -17.9803 -17.9379 -17.9379
   -17.7937 -17.7937 -17.7018 -17.7018 -17.4858 -17.4858 -17.4122 -17.4122
   -15.6481 -15.6481 -15.6011 -15.6011 -12.1802 -12.1802 -12.1030 -12.1030
   -11.2933 -11.2933 -11.2662 -11.2662  -9.7566  -9.7566  -9.7450  -9.7450
    -8.8328  -8.8328  -8.7809  -8.7809  -7.3692  -7.3692  -7.2058  -7.2058
    -6.9766  -6.9766  -6.9131  -6.9131  -6.7001  -6.7001  -6.6700  -6.6700
    -6.3029  -6.3029  -6.0088  -6.0088  -5.9314  -5.9314  -5.7708  -5.7708
    -5.6330  -5.6330  -5.3975  -5.3975  -5.2637  -5.2637  -4.9974  -4.9974
    -3.9182  -3.9182  -3.9021  -3.9021  -3.4553  -3.4553  -3.3801  -3.3801
    -2.7274  -2.7274  -2.6080  -2.6080  -2.3433  -2.3433  -1.9955  -1.9955
    -1.9675  -1.9675  -1.8594  -1.8594  -1.7390  -1.7390  -1.5804  -1.5804
    -1.3979  -1.3979  -1.3022  -1.3022  -0.8459  -0.8459  -0.7738  -0.7738
    -0.6037  -0.6037  -0.5479  -0.5479  -0.4571  -0.4571  -0.4090  -0.4090
    -0.1277  -0.1277  -0.0701  -0.0701   0.4248   0.4248   0.5071   0.5071
     0.5569   0.5569   0.7255   0.7255   4.0721   4.0721   4.1623   4.1623
     4.9209   4.9209   4.9796   4.9796   6.7599   6.7599   6.9003   6.9003
     7.5519   7.5519   8.1523   8.1523   8.4720   8.4720   8.7645   8.7645
     9.0636   9.0636   9.1745   9.1745

          k = 0.0000-0.9107 0.0000 ( 74688 PWs)   bands (ev):

   -23.9087 -23.9087 -23.9072 -23.9072 -22.4744 -22.4744 -22.4739 -22.4739
   -19.1242 -19.1242 -19.1071 -19.1071 -17.9706 -17.9706 -17.9447 -17.9447
   -17.7996 -17.7996 -17.7057 -17.7057 -17.4932 -17.4932 -17.4109 -17.4109
   -15.6319 -15.6319 -15.6156 -15.6156 -12.1603 -12.1603 -12.1200 -12.1200
   -11.2712 -11.2712 -11.2621 -11.2621  -9.7515  -9.7515  -9.7313  -9.7313
    -8.8280  -8.8280  -8.8182  -8.8182  -7.3468  -7.3468  -7.1856  -7.1856
    -6.9799  -6.9799  -6.9292  -6.9292  -6.8536  -6.8536  -6.7844  -6.7844
    -6.2844  -6.2844  -6.0566  -6.0566  -5.7345  -5.7345  -5.7040  -5.7040
    -5.5659  -5.5659  -5.4105  -5.4105  -5.2362  -5.2362  -5.0035  -5.0035
    -3.9567  -3.9567  -3.8945  -3.8945  -3.5073  -3.5073  -3.3646  -3.3646
    -2.7095  -2.7095  -2.6388  -2.6388  -2.1707  -2.1707  -2.0873  -2.0873
    -1.9439  -1.9439  -1.8393  -1.8393  -1.7088  -1.7088  -1.6377  -1.6377
    -1.3568  -1.3568  -1.3265  -1.3265  -0.8283  -0.8283  -0.7615  -0.7615
    -0.6030  -0.6030  -0.5824  -0.5824  -0.4835  -0.4835  -0.3894  -0.3894
    -0.1546  -0.1546  -0.0528  -0.0528   0.4455   0.4455   0.5154   0.5154
     0.5903   0.5903   0.6455   0.6455   4.0312   4.0312   4.0373   4.0373
     4.8906   4.8906   4.9114   4.9114   6.8463   6.8463   6.9177   6.9177
     8.2469   8.2469   8.2762   8.2762   8.5523   8.5523   8.8903   8.8904
     8.9593   8.9593   8.9952   8.9952

          k = 0.0000-0.9107-0.4044 ( 74728 PWs)   bands (ev):

   -23.9087 -23.9087 -23.9072 -23.9072 -22.4744 -22.4744 -22.4740 -22.4740
   -19.1216 -19.1216 -19.1098 -19.1098 -17.9663 -17.9663 -17.9494 -17.9494
   -17.7987 -17.7987 -17.7061 -17.7061 -17.4925 -17.4925 -17.4115 -17.4115
   -15.6325 -15.6325 -15.6150 -15.6150 -12.1496 -12.1496 -12.1308 -12.1308
   -11.2741 -11.2741 -11.2593 -11.2593  -9.7574  -9.7574  -9.7230  -9.7230
    -8.8711  -8.8711  -8.7773  -8.7773  -7.3578  -7.3578  -7.1683  -7.1683
    -6.9665  -6.9664  -6.9492  -6.9492  -6.8238  -6.8238  -6.8205  -6.8205
    -6.2173  -6.2173  -6.1349  -6.1349  -5.7367  -5.7367  -5.7069  -5.7069
    -5.4842  -5.4842  -5.4820  -5.4820  -5.2102  -5.2102  -5.0178  -5.0178
    -3.9364  -3.9364  -3.9173  -3.9173  -3.4652  -3.4652  -3.4039  -3.4039
    -2.7295  -2.7295  -2.6192  -2.6192  -2.1689  -2.1689  -2.0957  -2.0957
    -1.9439  -1.9439  -1.8753  -1.8753  -1.6745  -1.6745  -1.6211  -1.6211
    -1.3847  -1.3847  -1.2946  -1.2946  -0.8268  -0.8268  -0.7628  -0.7628
    -0.6064  -0.6064  -0.5865  -0.5865  -0.4614  -0.4614  -0.4201  -0.4201
    -0.1158  -0.1158  -0.0893  -0.0893   0.4572   0.4572   0.4988   0.4988
     0.6045   0.6045   0.6367   0.6367   4.0278   4.0278   4.0419   4.0419
     4.8869   4.8869   4.9159   4.9159   6.8185   6.8185   6.9511   6.9511
     8.2093   8.2093   8.2532   8.2532   8.6612   8.6612   8.8942   8.8942
     8.9482   8.9482   8.9884   8.9885

          k =-0.5000 0.0000-0.0693 ( 74768 PWs)   bands (ev):

   -23.9333 -23.9333 -23.8953 -23.8953 -22.5048 -22.5048 -22.4324 -22.4324
   -19.1217 -19.1217 -19.1064 -19.1064 -17.9817 -17.9817 -17.9396 -17.9396
   -17.7844 -17.7844 -17.7016 -17.7016 -17.4745 -17.4745 -17.4177 -17.4177
   -15.6420 -15.6420 -15.6079 -15.6079 -12.1964 -12.1964 -12.0896 -12.0896
   -11.3166 -11.3166 -11.2692 -11.2692  -9.7781  -9.7781  -9.7445  -9.7445
    -8.8288  -8.8288  -8.7524  -8.7524  -7.3620  -7.3620  -7.2191  -7.2191
    -6.9474  -6.9474  -6.9150  -6.9150  -6.5811  -6.5811  -6.3993  -6.3993
    -6.3077  -6.3077  -6.1911  -6.1911  -6.1111  -6.1111  -5.8164  -5.8164
    -5.6544  -5.6544  -5.4342  -5.4342  -5.2966  -5.2966  -4.9745  -4.9745
    -3.9071  -3.9071  -3.8788  -3.8788  -3.4560  -3.4560  -3.3372  -3.3372
    -2.7025  -2.7025  -2.5870  -2.5870  -2.3474  -2.3474  -2.0651  -2.0651
    -2.0151  -2.0151  -1.8715  -1.8715  -1.7570  -1.7570  -1.6002  -1.6002
    -1.4155  -1.4155  -1.3185  -1.3185  -0.8769  -0.8769  -0.7510  -0.7510
    -0.6153  -0.6153  -0.5515  -0.5515  -0.4385  -0.4385  -0.3384  -0.3384
    -0.1216  -0.1216  -0.0715  -0.0715   0.4109   0.4109   0.4981   0.4981
     0.5627   0.5627   0.7755   0.7755   4.1506   4.1506   4.2399   4.2399
     4.9653   4.9653   5.0286   5.0286   6.7499   6.7499   6.7704   6.7704
     7.3743   7.3743   7.9299   7.9299   8.1903   8.1903   8.7979   8.7979
     8.8931   8.8931   9.2146   9.2146

          k =-0.5000 0.0000-0.4736 ( 74694 PWs)   bands (ev):

   -23.9346 -23.9320 -23.8964 -23.8944 -22.5048 -22.5048 -22.4325 -22.4322
   -19.1252 -19.1173 -19.1149 -19.0986 -18.0093 -17.9507 -17.9491 -17.9290
   -17.8008 -17.7729 -17.7137 -17.6889 -17.4818 -17.4649 -17.4287 -17.4097
   -15.6490 -15.6325 -15.6142 -15.6040 -12.2189 -12.1483 -12.1284 -12.0777
   -11.3117 -11.3100 -11.2857 -11.2629  -9.7814  -9.7734  -9.7722  -9.7182
    -8.8670  -8.7796  -8.7654  -8.7503  -7.4034  -7.2899  -7.2538  -7.1616
    -6.9967  -6.9826  -6.9000  -6.8679  -6.7222  -6.4907  -6.4133  -6.3878
    -6.3223  -6.2793  -6.2138  -6.1548  -6.1070  -6.0971  -5.9151  -5.8394
    -5.5978  -5.5842  -5.4644  -5.3820  -5.3597  -5.2112  -5.1005  -4.9189
    -3.9377  -3.9037  -3.8716  -3.8541  -3.4768  -3.4197  -3.3976  -3.2898
    -2.8319  -2.6117  -2.5918  -2.5431  -2.3827  -2.2875  -2.0991  -2.0671
    -2.0616  -1.9344  -1.9334  -1.8293  -1.7815  -1.6986  -1.6921  -1.5224
    -1.4482  -1.4193  -1.3632  -1.2951  -0.9107  -0.7878  -0.7765  -0.7644
    -0.5987  -0.5503  -0.5460  -0.5234  -0.5028  -0.4718  -0.3905  -0.3208
    -0.1447  -0.0928  -0.0615  -0.0572   0.4243   0.4308   0.4615   0.4988
     0.5347   0.5859   0.7476   0.8053   4.1408   4.1970   4.1979   4.2510
     4.9620   4.9700   5.0067   5.0524   6.6867   6.6923   6.8171   6.8519
     7.1765   7.4628   7.8699   8.0007   8.2118   8.5173   8.6092   8.8308
     8.9028   8.9556   9.0047   9.2029

          k =-0.5000 0.4553-0.0693 ( 74682 PWs)   bands (ev):

   -23.9247 -23.9247 -23.8976 -23.8976 -22.4971 -22.4971 -22.4457 -22.4457
   -19.1218 -19.1218 -19.1080 -19.1080 -17.9741 -17.9741 -17.9442 -17.9442
   -17.7930 -17.7930 -17.7027 -17.7027 -17.4840 -17.4840 -17.4141 -17.4141
   -15.6383 -15.6383 -15.6105 -15.6105 -12.1781 -12.1781 -12.1054 -12.1054
   -11.2949 -11.2949 -11.2644 -11.2644  -9.7702  -9.7702  -9.7305  -9.7305
    -8.8535  -8.8535  -8.7614  -8.7614  -7.3467  -7.3467  -7.2063  -7.2063
    -6.9613  -6.9613  -6.9284  -6.9284  -6.7139  -6.7139  -6.6969  -6.6969
    -6.2754  -6.2754  -6.0959  -6.0959  -5.8414  -5.8414  -5.8214  -5.8214
    -5.5506  -5.5506  -5.4353  -5.4353  -5.2766  -5.2766  -4.9902  -4.9902
    -3.9320  -3.9320  -3.8869  -3.8869  -3.4567  -3.4567  -3.3728  -3.3728
    -2.7230  -2.7230  -2.6054  -2.6054  -2.2881  -2.2881  -2.0576  -2.0576
    -1.9987  -1.9987  -1.8290  -1.8290  -1.7291  -1.7291  -1.6156  -1.6156
    -1.3915  -1.3915  -1.3137  -1.3137  -0.8558  -0.8558  -0.7456  -0.7456
    -0.6230  -0.6230  -0.5806  -0.5806  -0.4387  -0.4387  -0.3700  -0.3700
    -0.1171  -0.1171  -0.0862  -0.0862   0.4363   0.4363   0.4916   0.4916
     0.5704   0.5704   0.7242   0.7242   4.0822   4.0822   4.1448   4.1448
     4.9252   4.9252   4.9769   4.9769   6.8070   6.8070   6.8417   6.8417
     7.7310   7.7310   8.1202   8.1202   8.3755   8.3755   8.7122   8.7122
     9.0248   9.0248   9.1160   9.1160

          k =-0.5000 0.4553-0.4736 ( 74712 PWs)   bands (ev):

   -23.9258 -23.9235 -23.8985 -23.8968 -22.4972 -22.4970 -22.4458 -22.4455
   -19.1251 -19.1209 -19.1121 -19.1013 -17.9947 -17.9541 -17.9517 -17.9350
   -17.8001 -17.7848 -17.7146 -17.6927 -17.4905 -17.4775 -17.4205 -17.4082
   -15.6442 -15.6275 -15.6196 -15.6064 -12.2049 -12.1365 -12.1363 -12.0883
   -11.3031 -11.2823 -11.2775 -11.2566  -9.7728  -9.7501  -9.7485  -9.7340
    -8.8320  -8.8145  -8.8132  -8.7673  -7.3857  -7.3316  -7.2022  -7.1778
    -6.9956  -6.9660  -6.9091  -6.8751  -6.7888  -6.7245  -6.6749  -6.6624
    -6.3640  -6.1601  -6.1439  -6.0630  -5.8429  -5.8357  -5.8128  -5.7869
    -5.6644  -5.6179  -5.4032  -5.3855  -5.3103  -5.1309  -5.1160  -4.9492
    -3.9375  -3.9236  -3.8863  -3.8846  -3.5080  -3.4544  -3.3861  -3.3071
    -2.7745  -2.6623  -2.6492  -2.5663  -2.3031  -2.2513  -2.1114  -2.0735
    -1.9558  -1.9365  -1.8877  -1.8462  -1.7458  -1.7153  -1.6393  -1.5687
    -1.4319  -1.4199  -1.2986  -1.2969  -0.8691  -0.8072  -0.7636  -0.7456
    -0.6194  -0.5864  -0.5739  -0.5592  -0.4817  -0.4183  -0.4144  -0.3862
    -0.1084  -0.0980  -0.0968  -0.0795   0.4324   0.4602   0.4608   0.4951
     0.5566   0.5852   0.6985   0.7517   4.0721   4.1080   4.1203   4.1580
     4.9209   4.9351   4.9515   5.0002   6.7532   6.7616   6.8952   6.9053
     7.5542   7.7739   8.0389   8.2607   8.3307   8.6264   8.6744   8.7445
     8.9465   9.0034   9.0267   9.2019

          k =-0.5000-0.9107-0.0693 ( 74688 PWs)   bands (ev):

   -23.9087 -23.9087 -23.9072 -23.9072 -22.4744 -22.4744 -22.4740 -22.4740
   -19.1217 -19.1217 -19.1098 -19.1098 -17.9657 -17.9657 -17.9495 -17.9495
   -17.7990 -17.7990 -17.7064 -17.7064 -17.4929 -17.4929 -17.4109 -17.4109
   -15.6319 -15.6319 -15.6160 -15.6160 -12.1597 -12.1597 -12.1206 -12.1206
   -11.2712 -11.2712 -11.2622 -11.2622  -9.7392  -9.7392  -9.7392  -9.7392
    -8.8294  -8.8294  -8.8183  -8.8183  -7.3609  -7.3609  -7.1971  -7.1971
    -7.0066  -7.0066  -6.9287  -6.9287  -6.8100  -6.8100  -6.7984  -6.7984
    -6.1959  -6.1959  -6.1184  -6.1184  -5.7213  -5.7213  -5.7000  -5.7000
    -5.5621  -5.5621  -5.4787  -5.4787  -5.1602  -5.1602  -5.0408  -5.0408
    -3.9575  -3.9575  -3.8946  -3.8946  -3.4556  -3.4556  -3.4068  -3.4068
    -2.7198  -2.7198  -2.6342  -2.6342  -2.1681  -2.1681  -2.1234  -2.1234
    -1.8965  -1.8965  -1.8619  -1.8619  -1.7073  -1.7073  -1.6224  -1.6224
    -1.3900  -1.3900  -1.3062  -1.3062  -0.8154  -0.8154  -0.7612  -0.7612
    -0.5983  -0.5983  -0.5891  -0.5891  -0.4716  -0.4716  -0.3970  -0.3970
    -0.1335  -0.1335  -0.0934  -0.0934   0.4532   0.4532   0.5045   0.5045
     0.6070   0.6070   0.6318   0.6318   4.0371   4.0371   4.0429   4.0429
     4.8876   4.8876   4.9180   4.9180   6.8420   6.8420   6.9119   6.9119
     8.2745   8.2745   8.4582   8.4582   8.4880   8.4880   8.8042   8.8042
     9.0149   9.0149   9.0231   9.0231

          k =-0.5000-0.9107-0.4736 ( 74728 PWs)   bands (ev):

   -23.9087 -23.9087 -23.9072 -23.9072 -22.4744 -22.4744 -22.4739 -22.4739
   -19.1242 -19.1242 -19.1072 -19.1072 -17.9675 -17.9675 -17.9484 -17.9484
   -17.7989 -17.7989 -17.7057 -17.7057 -17.4925 -17.4925 -17.4115 -17.4115
   -15.6328 -15.6328 -15.6151 -15.6151 -12.1516 -12.1516 -12.1288 -12.1288
   -11.2741 -11.2741 -11.2591 -11.2591  -9.7574  -9.7574  -9.7191  -9.7191
    -8.8729  -8.8729  -8.7769  -8.7769  -7.3622  -7.3622  -7.1997  -7.1997
    -6.9943  -6.9943  -6.9345  -6.9345  -6.8258  -6.8258  -6.7615  -6.7615
    -6.2622  -6.2622  -6.1018  -6.1018  -5.7332  -5.7332  -5.7022  -5.7022
    -5.4922  -5.4922  -5.4596  -5.4596  -5.2308  -5.2308  -5.0171  -5.0171
    -3.9378  -3.9378  -3.9127  -3.9127  -3.5059  -3.5059  -3.3582  -3.3582
    -2.7468  -2.7468  -2.6022  -2.6022  -2.1786  -2.1786  -2.0861  -2.0861
    -1.9874  -1.9874  -1.8071  -1.8071  -1.7173  -1.7173  -1.6028  -1.6028
    -1.4138  -1.4138  -1.2849  -1.2849  -0.8171  -0.8171  -0.7548  -0.7548
    -0.6005  -0.6005  -0.5780  -0.5780  -0.4822  -0.4822  -0.4102  -0.4102
    -0.1370  -0.1370  -0.0836  -0.0836   0.4631   0.4631   0.4846   0.4846
     0.6100   0.6100   0.6378   0.6378   4.0319   4.0319   4.0493   4.0493
     4.8875   4.8875   4.9201   4.9201   6.8130   6.8130   6.9468   6.9468
     8.2010   8.2010   8.4568   8.4568   8.5195   8.5195   8.7192   8.7192
     9.0915   9.0915   9.1549   9.1551

     highest occupied, lowest unoccupied level (ev):     0.8053    4.0278

!    total energy              =   -1352.25554410 Ry
     Harris-Foulkes estimate   =   -1352.25554410 Ry
     estimated scf accuracy    <          6.5E-09 Ry

     total all-electron energy =     -5071.702187 Ry

     The total energy is the sum of the following terms:

     one-electron contribution =    -769.53712748 Ry
     hartree contribution      =     483.90056232 Ry
     xc contribution           =    -268.87407874 Ry
     ewald contribution        =    -431.34491561 Ry
     Dispersion Correction     =      -0.30330478 Ry
     one-center paw contrib.   =    -366.09667980 Ry

     convergence has been achieved in  15 iterations

     Forces acting on atoms (cartesian axes, Ry/au):

     atom    1 type  4   force =    -0.00237204   -0.00158067   -0.00094957
     atom    2 type  4   force =     0.00237204   -0.00158067    0.00094957
     atom    3 type  4   force =     0.00237204    0.00158067    0.00094957
     atom    4 type  4   force =    -0.00237204    0.00158067   -0.00094957
     atom    5 type  4   force =     0.00623440    0.00066901    0.00325386
     atom    6 type  4   force =    -0.00623440    0.00066901   -0.00325386
     atom    7 type  4   force =    -0.00623440   -0.00066901   -0.00325386
     atom    8 type  4   force =     0.00623440   -0.00066901    0.00325386
     atom    9 type  2   force =     0.00311390   -0.00250764    0.00280382
     atom   10 type  2   force =    -0.00311390   -0.00250764   -0.00280382
     atom   11 type  2   force =    -0.00311390    0.00250764   -0.00280382
     atom   12 type  2   force =     0.00311390    0.00250764    0.00280382
     atom   13 type  2   force =     0.00115011    0.00014415   -0.00486571
     atom   14 type  2   force =    -0.00115011    0.00014415    0.00486571
     atom   15 type  2   force =    -0.00115011   -0.00014415    0.00486571
     atom   16 type  2   force =     0.00115011   -0.00014415   -0.00486571
     atom   17 type  2   force =     0.00074424    0.00288768   -0.00136462
     atom   18 type  2   force =    -0.00074424    0.00288768    0.00136462
     atom   19 type  2   force =    -0.00074424   -0.00288768    0.00136462
     atom   20 type  2   force =     0.00074424   -0.00288768   -0.00136462
     atom   21 type  2   force =    -0.00057854   -0.00148031    0.00446866
     atom   22 type  2   force =     0.00057854   -0.00148031   -0.00446866
     atom   23 type  2   force =     0.00057854    0.00148031   -0.00446866
     atom   24 type  2   force =    -0.00057854    0.00148031    0.00446866
     atom   25 type  2   force =    -0.00072605    0.00363081   -0.00295755
     atom   26 type  2   force =     0.00072605    0.00363081    0.00295755
     atom   27 type  2   force =     0.00072605   -0.00363081    0.00295755
     atom   28 type  2   force =    -0.00072605   -0.00363081   -0.00295755
     atom   29 type  2   force =    -0.00785107   -0.00026650   -0.00146045
     atom   30 type  2   force =     0.00785107   -0.00026650    0.00146045
     atom   31 type  2   force =     0.00785107    0.00026650    0.00146045
     atom   32 type  2   force =    -0.00785107    0.00026650   -0.00146045
     atom   33 type  1   force =    -0.00221398   -0.00315586   -0.00185111
     atom   34 type  1   force =     0.00221398   -0.00315586    0.00185111
     atom   35 type  1   force =     0.00221398    0.00315586    0.00185111
     atom   36 type  1   force =    -0.00221398    0.00315586   -0.00185111
     atom   37 type  1   force =     0.00059368   -0.00084643    0.00243235
     atom   38 type  1   force =    -0.00059368   -0.00084643   -0.00243235
     atom   39 type  1   force =    -0.00059368    0.00084643   -0.00243235
     atom   40 type  1   force =     0.00059368    0.00084643    0.00243235
     atom   41 type  4   force =     0.00130801    0.00014941    0.00029157
     atom   42 type  4   force =    -0.00130801    0.00014941   -0.00029157
     atom   43 type  4   force =    -0.00130801   -0.00014941   -0.00029157
     atom   44 type  4   force =     0.00130801   -0.00014941    0.00029157
     atom   45 type  3   force =     0.00101296    0.00239415   -0.00007094
     atom   46 type  3   force =    -0.00101296    0.00239415    0.00007094
     atom   47 type  3   force =    -0.00101296   -0.00239415    0.00007094
     atom   48 type  3   force =     0.00101296   -0.00239415   -0.00007094
     atom   49 type  3   force =    -0.00031100   -0.00073915    0.00007658
     atom   50 type  3   force =     0.00031100   -0.00073915   -0.00007658
     atom   51 type  3   force =     0.00031100    0.00073915   -0.00007658
     atom   52 type  3   force =    -0.00031100    0.00073915    0.00007658
     atom   53 type  3   force =     0.00112070    0.00079713   -0.00079044
     atom   54 type  3   force =    -0.00112070    0.00079713    0.00079044
     atom   55 type  3   force =    -0.00112070   -0.00079713    0.00079044
     atom   56 type  3   force =     0.00112070   -0.00079713   -0.00079044
     atom   57 type  3   force =     0.00032688    0.00042144   -0.00023955
     atom   58 type  3   force =    -0.00032688    0.00042144    0.00023955
     atom   59 type  3   force =    -0.00032688   -0.00042144    0.00023955
     atom   60 type  3   force =     0.00032688   -0.00042144   -0.00023955
     atom   61 type  3   force =     0.00004525   -0.00025387   -0.00021603
     atom   62 type  3   force =    -0.00004525   -0.00025387    0.00021603
     atom   63 type  3   force =    -0.00004525    0.00025387    0.00021603
     atom   64 type  3   force =     0.00004525    0.00025387   -0.00021603
     atom   65 type  3   force =    -0.00058240   -0.00049369    0.00103026
     atom   66 type  3   force =     0.00058240   -0.00049369   -0.00103026
     atom   67 type  3   force =     0.00058240    0.00049369   -0.00103026
     atom   68 type  3   force =    -0.00058240    0.00049369    0.00103026

     Total force =     0.032647     Total SCF correction =     0.000118


     Computing stress (Cartesian axis) and pressure

          total   stress  (Ry/bohr**3)                   (kbar)     P=   -2.22
   0.00000214   0.00000000  -0.00001448          0.32      0.00     -2.13
   0.00000000  -0.00000304   0.00000000          0.00     -0.45      0.00
  -0.00001448   0.00000000  -0.00004431         -2.13      0.00     -6.52


     Writing output data file scf.save
 
     init_run     :     31.68s CPU     32.71s WALL (       1 calls)
     electrons    :   1009.72s CPU   1044.23s WALL (       1 calls)
     forces       :     16.11s CPU     16.21s WALL (       1 calls)
     stress       :     63.73s CPU     63.93s WALL (       1 calls)

     Called by init_run:
     wfcinit      :     24.52s CPU     25.39s WALL (       1 calls)
     potinit      :      2.55s CPU      2.63s WALL (       1 calls)

     Called by electrons:
     c_bands      :    904.07s CPU    933.84s WALL (      15 calls)
     sum_band     :     96.81s CPU    100.88s WALL (      15 calls)
     v_of_rho     :      1.27s CPU      1.40s WALL (      16 calls)
     newd         :      2.80s CPU      3.26s WALL (      16 calls)
     PAW_pot      :      4.41s CPU      4.41s WALL (      16 calls)
     mix_rho      :      0.27s CPU      0.29s WALL (      15 calls)

     Called by c_bands:
     init_us_2    :      5.73s CPU      5.75s WALL (     396 calls)
     cegterg      :    881.66s CPU    911.39s WALL (     180 calls)

     Called by sum_band:
     sum_band:bec :      0.08s CPU      0.08s WALL (     180 calls)
     addusdens    :      2.78s CPU      3.20s WALL (      15 calls)

     Called by *egterg:
     h_psi        :    487.69s CPU    508.08s WALL (     976 calls)
     s_psi        :     97.94s CPU     97.94s WALL (     976 calls)
     g_psi        :      2.68s CPU      2.68s WALL (     784 calls)
     cdiaghg      :     66.53s CPU     66.54s WALL (     964 calls)

     Called by h_psi:
     h_psi:pot    :    484.00s CPU    504.31s WALL (     976 calls)
     h_psi:calbec :     97.73s CPU     97.99s WALL (     976 calls)
     vloc_psi     :    288.13s CPU    308.18s WALL (     976 calls)
     add_vuspsi   :     98.13s CPU     98.14s WALL (     976 calls)

     General routines
     calbec       :    150.49s CPU    150.87s WALL (    1216 calls)
     fft          :      1.35s CPU      1.57s WALL (     232 calls)
     fftw         :    310.41s CPU    332.65s WALL (  171888 calls)
 
     Parallel routines
     fft_scatter  :     74.84s CPU     89.60s WALL (  172120 calls)
 
     PWSCF        : 18m50.70s CPU    20m17.35s WALL

 
   This run was terminated on:   4:49:47   4Nov2017            

=------------------------------------------------------------------------------=
   JOB DONE.
=------------------------------------------------------------------------------=
