
     Program PWSCF v.6.1 (svn rev. 13369) starts on 21Dec2017 at 16:28:37 

     This program is part of the open-source Quantum ESPRESSO suite
     for quantum simulation of materials; please cite
         "P. Giannozzi et al., J. Phys.:Condens. Matter 21 395502 (2009);
          URL http://www.quantum-espresso.org", 
     in publications or presentations arising from this work. More details at
     http://www.quantum-espresso.org/quote

     Parallel version (MPI), running on     8 processors
     R & G space division:  proc/nbgrp/npool/nimage =       8
     Waiting for input...
     Reading input from standard input

     Current dimensions of program PWSCF are:
     Max number of different atomic species (ntypx) = 10
     Max number of k-points (npk) =  40000
     Max angular momentum in pseudopotentials (lmaxx) =  3
               file C.pbe-n-kjpaw_psl.0.1.UPF: wavefunction(s)  2P renormalized
               file N.pbe-n-kjpaw_psl.0.1.UPF: wavefunction(s)  2P renormalized
               file H.pbe-kjpaw_psl.0.1.UPF: wavefunction(s)  1S renormalized
               file O.pbe-n-kjpaw_psl.0.1.UPF: wavefunction(s)  2P renormalized

     -------------------------------------
     Parameters for Dispersion Correction:
     -------------------------------------
       atom      VdW radius       C_6     

        C          2.744         60.710
        N          2.640         42.670
        H          1.892          4.857
        O          2.536         24.284

     Subspace diagonalization in iterative solution of the eigenvalue problem:
     a serial algorithm will be used

 
     Parallelization info
     --------------------
     sticks:   dense  smooth     PW     G-vecs:    dense   smooth      PW
     Min        2066    2066    539               156462   156462   20821
     Max        2067    2067    540               156464   156464   20822
     Sum       16535   16535   4313              1251709  1251709  166569
 


     bravais-lattice index     =            0
     lattice parameter (alat)  =      12.7538  a.u.
     unit-cell volume          =    9265.8704 (a.u.)^3
     number of atoms/cell      =          148
     number of atomic types    =            4
     number of electrons       =       400.00
     number of Kohn-Sham states=          240
     kinetic-energy cutoff     =     100.0000  Ry
     charge density cutoff     =     400.0000  Ry
     convergence threshold     =      1.0E-08
     mixing beta               =       0.5000
     number of iterations used =            8  plain     mixing
     Exchange-correlation      =  SLA  PW   PBX  PBC ( 1  4  3  4 0 0)

     celldm(1)=  12.753762  celldm(2)=   0.000000  celldm(3)=   0.000000
     celldm(4)=   0.000000  celldm(5)=   0.000000  celldm(6)=   0.000000

     crystal axes: (cart. coord. in units of alat)
               a(1) = (   1.000000   0.000000   0.000000 )  
               a(2) = (   0.000000   3.196622   0.000000 )  
               a(3) = (  -0.394597   0.000000   1.397269 )  

     reciprocal axes: (cart. coord. in units 2 pi/alat)
               b(1) = (  1.000000  0.000000  0.282406 )  
               b(2) = (  0.000000  0.312830  0.000000 )  
               b(3) = (  0.000000  0.000000  0.715682 )  


     PseudoPot. # 1 for  C read from file:
     /scratch/ahofstet/pseudo/C.pbe-n-kjpaw_psl.0.1.UPF
     MD5 check sum: 430fe95172b1e11ef3f8ed03bac87931
     Pseudo is Projector augmented-wave + core cor, Zval =  4.0
     Generated using "atomic" code by A. Dal Corso  v.5.0.99 svn rev. 10869
     Shape of augmentation charge: BESSEL
     Using radial grid of 1073 points,  4 beta functions with: 
                l(1) =   0
                l(2) =   0
                l(3) =   1
                l(4) =   1
     Q(r) pseudized with 0 coefficients 


     PseudoPot. # 2 for  N read from file:
     /scratch/ahofstet/pseudo/N.pbe-n-kjpaw_psl.0.1.UPF
     MD5 check sum: f73187c8b701007e77325f868c9291d7
     Pseudo is Projector augmented-wave + core cor, Zval =  5.0
     Generated using "atomic" code by A. Dal Corso  v.5.0.99 svn rev. 10869
     Shape of augmentation charge: PSQ
     Using radial grid of 1085 points,  4 beta functions with: 
                l(1) =   0
                l(2) =   0
                l(3) =   1
                l(4) =   1
     Q(r) pseudized with 0 coefficients 


     PseudoPot. # 3 for  H read from file:
     /scratch/ahofstet/pseudo/H.pbe-kjpaw_psl.0.1.UPF
     MD5 check sum: 94e484f906d9e9773b2f6e52662335b2
     Pseudo is Projector augmented-wave, Zval =  1.0
     Generated using "atomic" code by A. Dal Corso  v.5.0.99 svn rev. 10869
     Shape of augmentation charge: PSQ
     Using radial grid of  929 points,  2 beta functions with: 
                l(1) =   0
                l(2) =   0
     Q(r) pseudized with 0 coefficients 


     PseudoPot. # 4 for  O read from file:
     /scratch/ahofstet/pseudo/O.pbe-n-kjpaw_psl.0.1.UPF
     MD5 check sum: 3f94a2996a3169367d6eb21d9b593f20
     Pseudo is Projector augmented-wave + core cor, Zval =  6.0
     Generated using "atomic" code by A. Dal Corso  v.5.0.99 svn rev. 10869
     Shape of augmentation charge: BESSEL
     Using radial grid of 1095 points,  4 beta functions with: 
                l(1) =   0
                l(2) =   0
                l(3) =   1
                l(4) =   1
     Q(r) pseudized with 0 coefficients 


     atomic species   valence    mass     pseudopotential
        C              4.00    12.01070      C( 1.00)
        N              5.00    14.00670      N( 1.00)
        H              1.00     1.00794      H( 1.00)
        O              6.00    15.99940      O( 1.00)

      2 Sym. Ops., with inversion, found
          (note:  2 additional sym.ops. were found but ignored
           their fractional translations are incommensurate with FFT grid)


   Cartesian axes

     site n.     atom                  positions (alat units)
         1           O   tau(   1) = (  -0.0788010   0.5362937   1.0298228  )
         2           O   tau(   2) = (  -0.0130949   2.1346046   1.0660810  )
         3           O   tau(   3) = (   0.6842037   2.6603280   0.3674464  )
         4           O   tau(   4) = (   0.6184976   1.0620171   0.3311882  )
         5           N   tau(   5) = (  -0.1309386   0.7297720   1.0940058  )
         6           N   tau(   6) = (   0.0390427   2.3280829   1.0018980  )
         7           N   tau(   7) = (   0.7363413   2.4668497   0.3032634  )
         8           N   tau(   8) = (   0.5663601   0.8685389   0.3953712  )
         9           C   tau(   9) = (   0.0418640   0.8147963   1.1382018  )
        10           C   tau(  10) = (  -0.1337599   2.4131072   0.9577020  )
        11           C   tau(  11) = (   0.5635387   2.3818254   0.2590674  )
        12           C   tau(  12) = (   0.7391627   0.7835145   0.4395672  )
        13           C   tau(  13) = (   0.2074392   0.6881717   1.1130195  )
        14           C   tau(  14) = (   0.7006649   2.2864825   0.9828843  )
        15           C   tau(  15) = (   0.3979635   2.5084500   0.2842497  )
        16           C   tau(  16) = (  -0.0952622   0.9101392   0.4143849  )
        17           C   tau(  17) = (   0.1217127   0.5131542   1.0428101  )
        18           C   tau(  18) = (  -0.2136085   2.1114651   1.0530937  )
        19           C   tau(  19) = (   0.4836901   2.6834675   0.3544591  )
        20           C   tau(  20) = (   0.8190113   1.0851566   0.3441755  )
        21           C   tau(  21) = (   0.4190180   0.7373005   1.1552220  )
        22           C   tau(  22) = (   0.4890861   2.3356114   0.9406818  )
        23           C   tau(  23) = (   0.1863847   2.4593212   0.2420472  )
        24           C   tau(  24) = (   0.1163166   0.8610103   0.4565874  )
        25           C   tau(  25) = (   0.0350395   1.0224341   1.2086069  )
        26           C   tau(  26) = (  -0.1269354   2.6207450   0.8872969  )
        27           C   tau(  27) = (   0.5703632   2.1741876   0.1886623  )
        28           C   tau(  28) = (   0.7323381   0.5758768   0.5099723  )
        29           C   tau(  29) = (  -0.1227453   1.0767644   1.3548173  )
        30           C   tau(  30) = (   0.0308494   2.6750752   0.7410865  )
        31           C   tau(  31) = (   0.7281481   2.1198574   0.0424519  )
        32           C   tau(  32) = (   0.5745533   0.5215465   0.6561827  )
        33           N   tau(  33) = (   0.1498197   1.1662863   1.1562556  )
        34           N   tau(  34) = (  -0.2417156   2.7645971   0.9396482  )
        35           N   tau(  35) = (   0.4555830   2.0303354   0.2410136  )
        36           N   tau(  36) = (   0.8471184   0.4320246   0.4576210  )
        37           O   tau(  37) = (   0.2816152   1.1073724   1.0004352  )
        38           O   tau(  38) = (   0.6264889   2.7056832   1.0954686  )
        39           O   tau(  39) = (   0.3237876   2.0892493   0.3968340  )
        40           O   tau(  40) = (  -0.0210862   0.4909385   0.3018006  )
        41           C   tau(  41) = (   0.4486111   1.2236583   0.9879995  )
        42           C   tau(  42) = (   0.4594930   2.8219691   1.1079043  )
        43           C   tau(  43) = (   0.1567916   1.9729634   0.4092697  )
        44           C   tau(  44) = (   0.1459098   0.3746526   0.2893649  )
        45           O   tau(  45) = (   0.4880020   1.3586639   1.0996843  )
        46           O   tau(  46) = (   0.4201021   2.9569748   0.9962195  )
        47           O   tau(  47) = (   0.1174007   1.8379578   0.2975849  )
        48           O   tau(  48) = (   0.1853006   0.2396469   0.4010497  )
        49           C   tau(  49) = (   0.5760861   1.1495982   0.8210418  )
        50           C   tau(  50) = (   0.3320180   2.7479091   1.2748620  )
        51           C   tau(  51) = (   0.0293166   2.0470235   0.5762274  )
        52           C   tau(  52) = (   0.2733848   0.4487126   0.1224072  )
        53           N   tau(  53) = (   0.1949240   0.3345573   0.9884868  )
        54           N   tau(  54) = (  -0.2868198   1.9328682   1.1074170  )
        55           N   tau(  55) = (   0.4104788   2.8620644   0.4087824  )
        56           N   tau(  56) = (   0.8922226   1.2637535   0.2898522  )
        57           C   tau(  57) = (   0.0659300   0.1878237   0.8922277  )
        58           C   tau(  58) = (  -0.1578259   1.7861346   1.2036761  )
        59           C   tau(  59) = (   0.5394727   3.0087980   0.5050415  )
        60           C   tau(  60) = (   0.7632286   1.4104871   0.1935931  )
        61           C   tau(  61) = (  -0.0487486   0.0555191   1.0359962  )
        62           C   tau(  62) = (  -0.0431472   1.6538299   1.0599076  )
        63           C   tau(  63) = (   0.6541514   3.1411026   0.3612730  )
        64           C   tau(  64) = (   0.6485500   1.5427918   0.3373616  )
        65           C   tau(  65) = (   0.3869846   0.2668717   1.0644379  )
        66           C   tau(  66) = (   0.5211196   1.8651826   1.0314659  )
        67           C   tau(  67) = (   0.2184182   2.9297500   0.3328313  )
        68           C   tau(  68) = (   0.0842832   1.3314391   0.3658033  )
        69           C   tau(  69) = (   0.3877997   0.2224397   1.2864913  )
        70           C   tau(  70) = (   0.5203044   1.8207506   0.8094125  )
        71           C   tau(  71) = (   0.2176030   2.9741820   0.1107779  )
        72           C   tau(  72) = (   0.0850983   1.3758711   0.5878567  )
        73           H   tau(  73) = (   0.4267205   0.8650540   1.2555294  )
        74           H   tau(  74) = (   0.4813836   2.4633648   0.8403744  )
        75           H   tau(  75) = (   0.1786822   2.3315678   0.1417398  )
        76           H   tau(  76) = (   0.1240192   0.7332569   0.5568948  )
        77           H   tau(  77) = (   0.5046248   0.7757121   1.0219145  )
        78           H   tau(  78) = (   0.4034793   2.3740229   1.0739893  )
        79           H   tau(  79) = (   0.1007779   2.4209097   0.3753547  )
        80           H   tau(  80) = (   0.2019234   0.8225988   0.3232799  )
        81           H   tau(  81) = (   0.4999359   0.6154449   1.2272028  )
        82           H   tau(  82) = (   0.4081682   2.2137558   0.8687010  )
        83           H   tau(  83) = (   0.1054669   2.5811768   0.1700664  )
        84           H   tau(  84) = (   0.1972345   0.9828659   0.5285682  )
        85           H   tau(  85) = (  -0.2676926   1.0261330   1.3006822  )
        86           H   tau(  86) = (   0.1757968   2.6244438   0.7952216  )
        87           H   tau(  87) = (   0.8730954   2.1704887   0.0965870  )
        88           H   tau(  88) = (   0.4296060   0.5721779   0.6020476  )
        89           H   tau(  89) = (  -0.1267395   1.2372265   1.3786006  )
        90           H   tau(  90) = (   0.0348436   2.8355374   0.7173032  )
        91           H   tau(  91) = (   0.7321422   1.9593952   0.0186686  )
        92           H   tau(  92) = (   0.5705592   0.3610844   0.6799660  )
        93           H   tau(  93) = (   0.3006171   1.0012120   0.0988558  )
        94           H   tau(  94) = (   0.0020843   2.5995228   0.5997788  )
        95           H   tau(  95) = (   0.3047857   2.1954097   1.2984134  )
        96           H   tau(  96) = (   0.6033184   0.5970989   0.7974904  )
        97           H   tau(  97) = (   0.6623198   1.2734110   0.7608315  )
        98           H   tau(  98) = (   0.2457843   2.8717218   1.3350723  )
        99           H   tau(  99) = (  -0.0569170   1.9232108   0.6364377  )
       100           H   tau( 100) = (   0.3596184   0.3248999   0.0621969  )
       101           H   tau( 101) = (   0.4895907   1.0769068   0.7043092  )
       102           H   tau( 102) = (   0.8131107   2.6752176  -0.0056746  )
       103           H   tau( 103) = (   0.1158121   2.1197149   0.6929600  )
       104           H   tau( 104) = (  -0.2077080   0.5214041   1.4029438  )
       105           H   tau( 105) = (   0.6799939   1.0391178   0.8815097  )
       106           H   tau( 106) = (   0.2281102   2.6374287   1.2143941  )
       107           H   tau( 107) = (  -0.0745912   2.1575039   0.5157595  )
       108           H   tau( 108) = (   0.3772925   0.5591931   0.1828751  )
       109           H   tau( 109) = (   0.1629504   0.0967362   0.7983734  )
       110           H   tau( 110) = (  -0.2548463   1.6950471   1.2975304  )
       111           H   tau( 111) = (   0.4424523   3.0998855   0.5988958  )
       112           H   tau( 112) = (   0.8602490   1.5015746   0.0997388  )
       113           H   tau( 113) = (  -0.0346557   0.2668194   0.7917735  )
       114           H   tau( 114) = (  -0.0572401   1.8651303   1.3041303  )
       115           H   tau( 115) = (   0.6400585   2.9298023   0.6054957  )
       116           H   tau( 116) = (   0.6626429   1.3314915   0.0931389  )
       117           H   tau( 117) = (   0.0536529   3.1620513   1.1248509  )
       118           H   tau( 118) = (  -0.1455488   1.5637405   0.9710529  )
       119           H   tau( 119) = (   0.5517499   0.0345704   0.2724183  )
       120           H   tau( 120) = (   0.7509515   1.6328813   0.4262163  )
       121           H   tau( 121) = (  -0.1450613  -0.0475777   0.9542398  )
       122           H   tau( 122) = (   0.0531654   1.5507332   1.1416640  )
       123           H   tau( 123) = (   0.7504641   3.2441994   0.4430294  )
       124           H   tau( 124) = (   0.5522373   1.6458886   0.2556052  )
       125           H   tau( 125) = (  -0.1420417   0.1449900   1.1352236  )
       126           H   tau( 126) = (   0.0501458   1.7433009   0.9606802  )
       127           H   tau( 127) = (   0.7474445   3.0516317   0.2620456  )
       128           H   tau( 128) = (   0.5552569   1.4533209   0.4365890  )
       129           H   tau( 129) = (   0.5008761   0.3776567   1.0299207  )
       130           H   tau( 130) = (   0.4072281   1.9759676   1.0659831  )
       131           H   tau( 131) = (   0.1045267   2.8189650   0.3673485  )
       132           H   tau( 132) = (   0.1981747   1.2206541   0.3312861  )
       133           H   tau( 133) = (   0.4237580   0.1317880   0.9815341  )
       134           H   tau( 134) = (   0.4843461   1.7300989   1.1143697  )
       135           H   tau( 135) = (   0.1816447   3.0648337   0.4157351  )
       136           H   tau( 136) = (   0.1210567   1.4665228   0.2828995  )
       137           H   tau( 137) = (   0.7498405   0.3558491  -0.0231676  )
       138           H   tau( 138) = (   0.5528609   1.9541599   0.7218022  )
       139           H   tau( 139) = (  -0.1444378   2.8407727   1.4204368  )
       140           H   tau( 140) = (   0.0525419   1.2424618   0.6754670  )
       141           H   tau( 141) = (   0.5351298   0.1682026   1.3306752  )
       142           H   tau( 142) = (   0.3729743   1.7665135   0.7652286  )
       143           H   tau( 143) = (   0.0702730   3.0284191   0.0665940  )
       144           H   tau( 144) = (   0.2324284   1.4301082   0.6320406  )
       145           H   tau( 145) = (   0.2785140   0.1079527   1.3239639  )
       146           H   tau( 146) = (   0.6295901   1.7062636   0.7719399  )
       147           H   tau( 147) = (   0.3268887   3.0886690   0.0733053  )
       148           H   tau( 148) = (  -0.0241873   1.4903582   0.6253293  )

     number of k points=     4
                       cart. coord. in units 2pi/alat
        k(    1) = (   0.0000000   0.0000000   0.0000000), wk =   0.3333333
        k(    2) = (   0.0000000   0.0000000  -0.3578409), wk =   0.3333333
        k(    3) = (   0.3333333   0.0000000   0.0941353), wk =   0.6666667
        k(    4) = (   0.3333333   0.0000000  -0.2637055), wk =   0.6666667

     Dense  grid:  1251709 G-vectors     FFT dimensions: (  81, 270, 120)

     Estimated max dynamical RAM per process >    1271.51MB

     Estimated total allocated dynamical RAM >   10172.10MB

     Check: negative/imaginary core charge=   -0.000002    0.000000

     Initial potential from superposition of free atoms

     starting charge  399.99717, renormalised to  400.00000
     Starting wfc are  364 randomized atomic wfcs
     Checking if some PAW data can be deallocated... 

     total cpu time spent up to now is       57.9 secs

     per-process dynamical memory:   745.4 Mb

     Self-consistent Calculation

     iteration #  1     ecut=   100.00 Ry     beta=0.50
     Davidson diagonalization with overlap
     ethr =  1.00E-02,  avg # of iterations =  4.5

     total cpu time spent up to now is      200.3 secs

     total energy              =   -1810.59759056 Ry
     Harris-Foulkes estimate   =   -1818.68432619 Ry
     estimated scf accuracy    <      15.44438548 Ry

     iteration #  2     ecut=   100.00 Ry     beta=0.50
     Davidson diagonalization with overlap
     ethr =  3.86E-03,  avg # of iterations =  2.0

     total cpu time spent up to now is      271.3 secs

     total energy              =   -1811.15967858 Ry
     Harris-Foulkes estimate   =   -1812.21239276 Ry
     estimated scf accuracy    <       2.06979352 Ry

     iteration #  3     ecut=   100.00 Ry     beta=0.50
     Davidson diagonalization with overlap
     ethr =  5.17E-04,  avg # of iterations =  5.0

     total cpu time spent up to now is      423.6 secs

     total energy              =   -1813.17779305 Ry
     Harris-Foulkes estimate   =   -1814.20254132 Ry
     estimated scf accuracy    <       2.98733047 Ry

     iteration #  4     ecut=   100.00 Ry     beta=0.50
     Davidson diagonalization with overlap
     ethr =  5.17E-04,  avg # of iterations =  2.5

     total cpu time spent up to now is      493.8 secs

     total energy              =   -1812.64321029 Ry
     Harris-Foulkes estimate   =   -1813.32306131 Ry
     estimated scf accuracy    <       1.06942878 Ry

     iteration #  5     ecut=   100.00 Ry     beta=0.50
     Davidson diagonalization with overlap
     ethr =  2.67E-04,  avg # of iterations =  6.2

     total cpu time spent up to now is      633.3 secs

     total energy              =   -1813.34881854 Ry
     Harris-Foulkes estimate   =   -1813.57973017 Ry
     estimated scf accuracy    <       0.93187468 Ry

     iteration #  6     ecut=   100.00 Ry     beta=0.50
     Davidson diagonalization with overlap
     ethr =  2.33E-04,  avg # of iterations =  1.0

     total cpu time spent up to now is      700.5 secs

     total energy              =   -1813.12852647 Ry
     Harris-Foulkes estimate   =   -1813.36847306 Ry
     estimated scf accuracy    <       0.50449103 Ry

     iteration #  7     ecut=   100.00 Ry     beta=0.50
     Davidson diagonalization with overlap
     ethr =  1.26E-04,  avg # of iterations =  3.0

     total cpu time spent up to now is      798.7 secs

     total energy              =   -1813.28317408 Ry
     Harris-Foulkes estimate   =   -1813.28437832 Ry
     estimated scf accuracy    <       0.00926260 Ry

     iteration #  8     ecut=   100.00 Ry     beta=0.50
     Davidson diagonalization with overlap
     ethr =  2.32E-06,  avg # of iterations =  9.5

     total cpu time spent up to now is      962.4 secs

     total energy              =   -1813.28410527 Ry
     Harris-Foulkes estimate   =   -1813.28735163 Ry
     estimated scf accuracy    <       0.00891792 Ry

     iteration #  9     ecut=   100.00 Ry     beta=0.50
     Davidson diagonalization with overlap
     ethr =  2.23E-06,  avg # of iterations =  1.0

     total cpu time spent up to now is     1029.7 secs

     total energy              =   -1813.28286989 Ry
     Harris-Foulkes estimate   =   -1813.28447925 Ry
     estimated scf accuracy    <       0.00298586 Ry

     iteration # 10     ecut=   100.00 Ry     beta=0.50
     Davidson diagonalization with overlap
     ethr =  7.46E-07,  avg # of iterations =  4.5

     total cpu time spent up to now is     1152.5 secs

     total energy              =   -1813.28457526 Ry
     Harris-Foulkes estimate   =   -1813.28497415 Ry
     estimated scf accuracy    <       0.00113335 Ry

     iteration # 11     ecut=   100.00 Ry     beta=0.50
     Davidson diagonalization with overlap
     ethr =  2.83E-07,  avg # of iterations =  1.0

     total cpu time spent up to now is     1220.1 secs

     total energy              =   -1813.28439212 Ry
     Harris-Foulkes estimate   =   -1813.28461065 Ry
     estimated scf accuracy    <       0.00043123 Ry

     iteration # 12     ecut=   100.00 Ry     beta=0.50
     Davidson diagonalization with overlap
     ethr =  1.08E-07,  avg # of iterations =  3.5

     total cpu time spent up to now is     1338.0 secs

     total energy              =   -1813.28464289 Ry
     Harris-Foulkes estimate   =   -1813.28466703 Ry
     estimated scf accuracy    <       0.00010872 Ry

     iteration # 13     ecut=   100.00 Ry     beta=0.50
     Davidson diagonalization with overlap
     ethr =  2.72E-08,  avg # of iterations =  1.0

     total cpu time spent up to now is     1405.4 secs

     total energy              =   -1813.28461253 Ry
     Harris-Foulkes estimate   =   -1813.28464559 Ry
     estimated scf accuracy    <       0.00006747 Ry

     iteration # 14     ecut=   100.00 Ry     beta=0.50
     Davidson diagonalization with overlap
     ethr =  1.69E-08,  avg # of iterations =  3.5

     total cpu time spent up to now is     1508.1 secs

     total energy              =   -1813.28463449 Ry
     Harris-Foulkes estimate   =   -1813.28463511 Ry
     estimated scf accuracy    <       0.00000202 Ry

     iteration # 15     ecut=   100.00 Ry     beta=0.50
     Davidson diagonalization with overlap
     ethr =  5.05E-10,  avg # of iterations =  3.0

     total cpu time spent up to now is     1597.2 secs

     total energy              =   -1813.28463476 Ry
     Harris-Foulkes estimate   =   -1813.28463493 Ry
     estimated scf accuracy    <       0.00000072 Ry

     iteration # 16     ecut=   100.00 Ry     beta=0.50
     Davidson diagonalization with overlap
     ethr =  1.81E-10,  avg # of iterations =  3.5

     total cpu time spent up to now is     1676.3 secs

     total energy              =   -1813.28463470 Ry
     Harris-Foulkes estimate   =   -1813.28463484 Ry
     estimated scf accuracy    <       0.00000029 Ry

     iteration # 17     ecut=   100.00 Ry     beta=0.50
     Davidson diagonalization with overlap
     ethr =  7.30E-11,  avg # of iterations =  3.8

     total cpu time spent up to now is     1787.9 secs

     total energy              =   -1813.28463481 Ry
     Harris-Foulkes estimate   =   -1813.28463482 Ry
     estimated scf accuracy    <       0.00000003 Ry

     iteration # 18     ecut=   100.00 Ry     beta=0.50
     Davidson diagonalization with overlap
     ethr =  8.10E-12,  avg # of iterations =  2.2

     total cpu time spent up to now is     1858.4 secs

     End of self-consistent calculation

          k = 0.0000 0.0000 0.0000 (156445 PWs)   bands (ev):

   -22.5890 -22.5890 -22.5872 -22.5872 -22.3492 -22.3492 -22.3483 -22.3482
   -20.0466 -20.0465 -20.0465 -20.0464 -18.1138 -18.1119 -18.1116 -18.1110
   -16.8334 -16.8315 -16.8298 -16.8278 -15.5610 -15.5589 -15.5480 -15.5454
   -13.9846 -13.9789 -13.9785 -13.9750 -13.2337 -13.2249 -13.1606 -13.1563
   -13.0620 -13.0568 -12.9970 -12.9945 -12.4248 -12.4118 -12.3761 -12.3739
   -12.0660 -12.0493 -12.0191 -12.0180 -11.4092 -11.3856 -11.3674 -11.3430
   -10.1337 -10.1249 -10.1218 -10.0778  -9.9892  -9.9811  -9.9217  -9.9123
    -9.5421  -9.5287  -9.5177  -9.4295  -9.1008  -9.0978  -9.0864  -9.0751
    -8.1160  -8.1139  -8.1044  -8.0786  -7.3797  -7.3256  -7.2151  -7.1579
    -6.6217  -6.6003  -6.5986  -6.5739  -6.4432  -6.4374  -6.3108  -6.2943
    -6.2318  -6.2246  -6.1759  -6.1737  -6.0180  -5.9975  -5.9735  -5.9572
    -5.8920  -5.7793  -5.7133  -5.6261  -5.4749  -5.4621  -5.4548  -5.4395
    -5.2357  -5.1758  -5.0860  -5.0843  -5.0763  -5.0364  -5.0262  -4.8735
    -4.7798  -4.7287  -4.7084  -4.7053  -4.6820  -4.6588  -4.6204  -4.5964
    -4.5661  -4.5128  -4.4963  -4.4799  -4.4058  -4.3891  -4.3824  -4.3647
    -4.3324  -4.2941  -4.1742  -4.1526  -4.1405  -4.1342  -4.1223  -4.0666
    -3.9529  -3.9472  -3.9459  -3.9040  -3.9030  -3.8876  -3.8695  -3.8242
    -3.7031  -3.6286  -3.5829  -3.5602  -3.5584  -3.5184  -3.4813  -3.4771
    -3.4752  -3.4599  -3.4374  -3.4199  -3.2706  -3.2495  -3.2047  -3.1915
    -3.0912  -3.0910  -3.0881  -3.0532  -2.9008  -2.8524  -2.8328  -2.8167
    -2.7440  -2.6561  -2.6393  -2.5903  -2.5126  -2.5064  -2.4414  -2.3902
    -2.1561  -2.1288  -2.0385  -2.0378  -1.8700  -1.8515  -1.7994  -1.7800
    -1.6293  -1.5855  -1.5808  -1.5419  -1.1764  -1.1654  -1.1473  -1.0770
    -0.9795  -0.9741  -0.9443  -0.9354  -0.6864  -0.6653  -0.6526  -0.6480
    -0.5919  -0.5912  -0.5642  -0.5431   0.9945   1.0316   1.0505   1.0777
     3.6271   3.6429   3.6462   3.6706   4.6689   4.6885   4.8274   4.8355
     5.1935   5.2186   5.2423   5.3205   5.5473   5.7073   5.8329   6.0054
     6.1715   6.2177   6.3097   6.3188   6.4850   6.5831   6.5993   6.6703
     6.6978   6.8088   6.8251   6.9647   6.9839   7.0310   7.0411   7.0948
     7.1764   7.2141   7.2260   7.2310   7.3405   7.3736   7.4900   7.4949

          k = 0.0000 0.0000-0.3578 (156496 PWs)   bands (ev):

   -22.5881 -22.5881 -22.5881 -22.5881 -22.3488 -22.3488 -22.3487 -22.3487
   -20.0465 -20.0465 -20.0464 -20.0464 -18.1125 -18.1125 -18.1117 -18.1116
   -16.8316 -16.8316 -16.8296 -16.8296 -15.5545 -15.5545 -15.5522 -15.5522
   -13.9798 -13.9798 -13.9786 -13.9786 -13.1967 -13.1967 -13.1889 -13.1889
   -13.0346 -13.0346 -13.0261 -13.0261 -12.4146 -12.4146 -12.3930 -12.3929
   -12.0293 -12.0293 -12.0234 -12.0234 -11.3906 -11.3906 -11.3647 -11.3647
   -10.1394 -10.1394 -10.0961 -10.0961  -9.9734  -9.9734  -9.9291  -9.9290
    -9.5363  -9.5363  -9.4725  -9.4725  -9.0937  -9.0937  -9.0893  -9.0893
    -8.1096  -8.1096  -8.0936  -8.0936  -7.2827  -7.2827  -7.2680  -7.2680
    -6.5801  -6.5801  -6.5411  -6.5411  -6.4135  -6.4135  -6.3835  -6.3835
    -6.2132  -6.2131  -6.2025  -6.2025  -5.9883  -5.9883  -5.9796  -5.9796
    -5.8178  -5.8178  -5.7427  -5.7427  -5.4369  -5.4368  -5.4167  -5.4167
    -5.1563  -5.1563  -5.1208  -5.1208  -5.0365  -5.0365  -4.9925  -4.9925
    -4.7172  -4.7172  -4.6797  -4.6797  -4.6421  -4.6421  -4.6381  -4.6381
    -4.5620  -4.5620  -4.5439  -4.5439  -4.4088  -4.4088  -4.3755  -4.3755
    -4.2638  -4.2638  -4.2301  -4.2301  -4.1586  -4.1586  -4.1229  -4.1229
    -3.9708  -3.9708  -3.9297  -3.9297  -3.8641  -3.8641  -3.8353  -3.8353
    -3.6226  -3.6225  -3.5775  -3.5775  -3.5416  -3.5416  -3.4712  -3.4711
    -3.4441  -3.4441  -3.4001  -3.4001  -3.2456  -3.2455  -3.1973  -3.1973
    -3.0976  -3.0976  -3.0472  -3.0472  -2.8820  -2.8819  -2.8630  -2.8630
    -2.7244  -2.7243  -2.6141  -2.6141  -2.5036  -2.5036  -2.4106  -2.4106
    -2.0696  -2.0696  -2.0605  -2.0604  -1.8388  -1.8388  -1.8313  -1.8313
    -1.5959  -1.5959  -1.5708  -1.5708  -1.1618  -1.1618  -1.1120  -1.1120
    -0.9915  -0.9915  -0.9396  -0.9396  -0.6829  -0.6829  -0.6629  -0.6629
    -0.5790  -0.5790  -0.5699  -0.5699   1.0291   1.0292   1.0494   1.0494
     3.6390   3.6390   3.6576   3.6576   4.7439   4.7439   4.7632   4.7632
     5.2492   5.2492   5.2942   5.2942   5.6513   5.6514   5.9945   5.9945
     6.0435   6.0435   6.3386   6.3386   6.5672   6.5672   6.6475   6.6475
     6.6814   6.6815   6.8609   6.8609   6.9654   6.9654   7.1098   7.1098
     7.1303   7.1303   7.2628   7.2628   7.3007   7.3007   7.4235   7.4235

          k = 0.3333 0.0000 0.0941 (156525 PWs)   bands (ev):

   -22.5881 -22.5881 -22.5872 -22.5872 -22.3486 -22.3485 -22.3481 -22.3481
   -20.0479 -20.0479 -20.0477 -20.0477 -18.1141 -18.1131 -18.1127 -18.1123
   -16.8327 -16.8313 -16.8309 -16.8294 -15.5501 -15.5487 -15.5437 -15.5419
   -14.0178 -14.0145 -14.0141 -14.0119 -13.2285 -13.2087 -13.1986 -13.1784
   -13.0354 -13.0279 -13.0085 -13.0025 -12.4169 -12.4117 -12.3847 -12.3846
   -12.0622 -12.0490 -12.0385 -12.0328 -11.2932 -11.2738 -11.2670 -11.2490
   -10.1659 -10.1574 -10.1337 -10.1167  -9.9447  -9.9360  -9.8881  -9.8867
    -9.5461  -9.5424  -9.4977  -9.4505  -9.0930  -9.0869  -9.0858  -9.0753
    -8.1893  -8.1841  -8.1726  -8.1630  -7.3264  -7.2785  -7.2387  -7.1908
    -6.5851  -6.5829  -6.5613  -6.5601  -6.4074  -6.3881  -6.3114  -6.3033
    -6.2498  -6.2391  -6.1964  -6.1905  -6.0797  -6.0285  -6.0245  -6.0086
    -5.8248  -5.7364  -5.7226  -5.6484  -5.5480  -5.5472  -5.4578  -5.4215
    -5.2551  -5.2159  -5.1980  -5.1853  -5.0665  -5.0530  -5.0267  -4.9327
    -4.7782  -4.7470  -4.7232  -4.6924  -4.6788  -4.6631  -4.6255  -4.5639
    -4.5025  -4.4963  -4.4864  -4.4789  -4.4256  -4.4124  -4.3926  -4.3500
    -4.3286  -4.2718  -4.2651  -4.2154  -4.1633  -4.1530  -4.1028  -4.0883
    -4.0373  -4.0309  -3.9555  -3.9516  -3.8914  -3.8818  -3.8616  -3.8098
    -3.6612  -3.6504  -3.5680  -3.5560  -3.5414  -3.4933  -3.4910  -3.4423
    -3.4284  -3.4095  -3.3702  -3.3594  -3.3040  -3.2786  -3.2191  -3.1774
    -3.1603  -3.1217  -3.1161  -3.0726  -2.8560  -2.8425  -2.8141  -2.8071
    -2.7483  -2.7316  -2.7022  -2.6955  -2.5362  -2.5280  -2.4554  -2.4518
    -2.1286  -2.1135  -2.0615  -2.0553  -1.7982  -1.7692  -1.7637  -1.7429
    -1.4089  -1.4057  -1.4020  -1.3844  -1.1399  -1.1084  -1.0921  -1.0712
    -0.9775  -0.9678  -0.9245  -0.9141  -0.6807  -0.6715  -0.6663  -0.6592
    -0.5651  -0.5536  -0.5497  -0.5385   1.1066   1.1346   1.1425   1.1656
     3.6082   3.6146   3.6321   3.6398   4.7836   4.7869   4.8304   4.8416
     5.2119   5.2500   5.2770   5.3273   5.7576   5.8992   5.9749   5.9962
     6.2333   6.3279   6.3298   6.3370   6.3737   6.4343   6.4922   6.5406
     6.6075   6.6081   6.6333   6.7235   6.7359   6.8292   6.8932   6.9204
     7.0277   7.0287   7.1245   7.1500   7.2189   7.2340   7.3777   7.3864

          k = 0.3333 0.0000-0.2637 (156398 PWs)   bands (ev):

   -22.5881 -22.5881 -22.5873 -22.5872 -22.3484 -22.3484 -22.3483 -22.3483
   -20.0479 -20.0478 -20.0478 -20.0477 -18.1136 -18.1133 -18.1131 -18.1121
   -16.8346 -16.8331 -16.8290 -16.8276 -15.5490 -15.5474 -15.5450 -15.5432
   -14.0196 -14.0180 -14.0106 -14.0095 -13.2141 -13.2036 -13.1938 -13.1908
   -13.0296 -13.0225 -13.0210 -13.0160 -12.4163 -12.4125 -12.3964 -12.3810
   -12.0545 -12.0419 -12.0400 -12.0376 -11.2925 -11.2678 -11.2677 -11.2520
   -10.2021 -10.1386 -10.1226 -10.1043  -9.9291  -9.9256  -9.9010  -9.8979
    -9.5923  -9.5025  -9.4954  -9.4474  -9.1008  -9.0978  -9.0731  -9.0596
    -8.1983  -8.1909  -8.1773  -8.1671  -7.2816  -7.2780  -7.2606  -7.2485
    -6.5957  -6.5818  -6.5446  -6.5075  -6.4453  -6.4245  -6.3193  -6.3020
    -6.2586  -6.2376  -6.1828  -6.1577  -6.0801  -6.0241  -6.0193  -6.0000
    -5.8294  -5.7171  -5.7117  -5.6899  -5.5222  -5.4772  -5.4745  -5.3631
    -5.2088  -5.1989  -5.1989  -5.1713  -5.1279  -5.0522  -4.9756  -4.9151
    -4.7992  -4.7663  -4.7319  -4.7234  -4.6964  -4.6869  -4.6588  -4.6182
    -4.5949  -4.5503  -4.5295  -4.4799  -4.4481  -4.4148  -4.3879  -4.3817
    -4.3352  -4.3143  -4.2126  -4.1953  -4.1928  -4.1524  -4.1105  -4.0816
    -4.0146  -3.9839  -3.9424  -3.9227  -3.8148  -3.8112  -3.7873  -3.7765
    -3.6588  -3.6009  -3.5914  -3.5815  -3.5776  -3.5336  -3.5322  -3.4537
    -3.4430  -3.4005  -3.3660  -3.3296  -3.2856  -3.2648  -3.2527  -3.2045
    -3.2023  -3.1225  -3.0964  -3.0321  -2.8440  -2.8133  -2.7990  -2.7981
    -2.7477  -2.7384  -2.7037  -2.6912  -2.5657  -2.5347  -2.4553  -2.4268
    -2.1439  -2.1330  -2.0682  -2.0654  -1.7846  -1.7672  -1.7572  -1.7434
    -1.4451  -1.4078  -1.3778  -1.3702  -1.1323  -1.0912  -1.0767  -1.0476
    -0.9871  -0.9818  -0.9457  -0.9292  -0.6981  -0.6831  -0.6575  -0.6540
    -0.5857  -0.5724  -0.5428  -0.5329   1.1126   1.1311   1.1528   1.1651
     3.5955   3.6204   3.6234   3.6470   4.7803   4.7867   4.8238   4.8319
     5.2662   5.2698   5.2776   5.3175   5.6942   5.8046   5.9279   6.1065
     6.2226   6.2637   6.3415   6.3612   6.3904   6.4907   6.5164   6.5294
     6.5805   6.6237   6.7149   6.7694   6.7846   6.9007   6.9117   6.9456
     7.0025   7.0577   7.0827   7.1699   7.2176   7.2241   7.3057   7.4028

     highest occupied, lowest unoccupied level (ev):     1.1656    3.5955

!    total energy              =   -1813.28463481 Ry
     Harris-Foulkes estimate   =   -1813.28463481 Ry
     estimated scf accuracy    <          7.8E-09 Ry

     total all-electron energy =     -6867.709496 Ry

     The total energy is the sum of the following terms:

     one-electron contribution =   -1136.67501852 Ry
     hartree contribution      =     710.27350780 Ry
     xc contribution           =    -406.61704961 Ry
     ewald contribution        =    -446.73486126 Ry
     Dispersion Correction     =      -0.61813483 Ry
     one-center paw contrib.   =    -532.91307839 Ry

     convergence has been achieved in  18 iterations

     Forces acting on atoms (cartesian axes, Ry/au):

     atom    1 type  4   force =    -0.00108426    0.00569086    0.00212870
     atom    2 type  4   force =     0.00107680    0.00568504   -0.00212727
     atom    3 type  4   force =     0.00108426   -0.00569086   -0.00212870
     atom    4 type  4   force =    -0.00107680   -0.00568504    0.00212727
     atom    5 type  2   force =     0.00799789    0.00111850   -0.00987470
     atom    6 type  2   force =    -0.00799648    0.00111522    0.00987541
     atom    7 type  2   force =    -0.00799789   -0.00111850    0.00987470
     atom    8 type  2   force =     0.00799648   -0.00111522   -0.00987541
     atom    9 type  1   force =    -0.00238039   -0.00228497   -0.00133750
     atom   10 type  1   force =     0.00237892   -0.00228764    0.00133909
     atom   11 type  1   force =     0.00238039    0.00228497    0.00133750
     atom   12 type  1   force =    -0.00237892    0.00228764   -0.00133909
     atom   13 type  1   force =     0.00096592   -0.00336063    0.00186557
     atom   14 type  1   force =    -0.00095117   -0.00336408   -0.00185963
     atom   15 type  1   force =    -0.00096592    0.00336063   -0.00186557
     atom   16 type  1   force =     0.00095117    0.00336408    0.00185963
     atom   17 type  1   force =     0.00312353    0.00313943    0.00487966
     atom   18 type  1   force =    -0.00314493    0.00313321   -0.00488307
     atom   19 type  1   force =    -0.00312353   -0.00313943   -0.00487966
     atom   20 type  1   force =     0.00314493   -0.00313321    0.00488307
     atom   21 type  1   force =     0.00100016   -0.00440262    0.00169567
     atom   22 type  1   force =    -0.00098830   -0.00440659   -0.00169213
     atom   23 type  1   force =    -0.00100016    0.00440262   -0.00169567
     atom   24 type  1   force =     0.00098830    0.00440659    0.00169213
     atom   25 type  1   force =    -0.00061007   -0.00017032   -0.00137796
     atom   26 type  1   force =     0.00060776   -0.00017151    0.00137883
     atom   27 type  1   force =     0.00061007    0.00017032    0.00137796
     atom   28 type  1   force =    -0.00060776    0.00017151   -0.00137883
     atom   29 type  1   force =    -0.00018897   -0.00018182    0.00064965
     atom   30 type  1   force =     0.00019394   -0.00018483   -0.00064789
     atom   31 type  1   force =     0.00018897    0.00018182   -0.00064965
     atom   32 type  1   force =    -0.00019394    0.00018483    0.00064789
     atom   33 type  2   force =     0.00004825   -0.00074914   -0.00131153
     atom   34 type  2   force =    -0.00004858   -0.00074881    0.00131139
     atom   35 type  2   force =    -0.00004825    0.00074914    0.00131153
     atom   36 type  2   force =     0.00004858    0.00074881   -0.00131139
     atom   37 type  4   force =    -0.00033479   -0.00060957    0.00065947
     atom   38 type  4   force =     0.00033358   -0.00061222   -0.00065681
     atom   39 type  4   force =     0.00033479    0.00060957   -0.00065947
     atom   40 type  4   force =    -0.00033358    0.00061222    0.00065681
     atom   41 type  1   force =     0.00063044    0.00133391    0.00119276
     atom   42 type  1   force =    -0.00063445    0.00133052   -0.00119356
     atom   43 type  1   force =    -0.00063044   -0.00133391   -0.00119276
     atom   44 type  1   force =     0.00063445   -0.00133052    0.00119356
     atom   45 type  4   force =    -0.00012994   -0.00019891   -0.00129526
     atom   46 type  4   force =     0.00013196   -0.00020115    0.00129564
     atom   47 type  4   force =     0.00012994    0.00019891    0.00129526
     atom   48 type  4   force =    -0.00013196    0.00020115   -0.00129564
     atom   49 type  1   force =    -0.00018675    0.00096739   -0.00039402
     atom   50 type  1   force =     0.00018933    0.00096488    0.00039471
     atom   51 type  1   force =     0.00018675   -0.00096739    0.00039402
     atom   52 type  1   force =    -0.00018933   -0.00096488   -0.00039471
     atom   53 type  2   force =     0.00101785   -0.00195899   -0.00141387
     atom   54 type  2   force =    -0.00101609   -0.00195756    0.00141297
     atom   55 type  2   force =    -0.00101785    0.00195899    0.00141387
     atom   56 type  2   force =     0.00101609    0.00195756   -0.00141297
     atom   57 type  1   force =    -0.00063814   -0.00092671    0.00027274
     atom   58 type  1   force =     0.00062807   -0.00092515   -0.00027709
     atom   59 type  1   force =     0.00063814    0.00092671   -0.00027274
     atom   60 type  1   force =    -0.00062807    0.00092515    0.00027709
     atom   61 type  1   force =    -0.00034757    0.00055882   -0.00084595
     atom   62 type  1   force =     0.00033720    0.00055982    0.00084489
     atom   63 type  1   force =     0.00034757   -0.00055882    0.00084595
     atom   64 type  1   force =    -0.00033720   -0.00055982   -0.00084489
     atom   65 type  1   force =    -0.00166049   -0.00060564   -0.00007493
     atom   66 type  1   force =     0.00165851   -0.00060707    0.00007410
     atom   67 type  1   force =     0.00166049    0.00060564    0.00007493
     atom   68 type  1   force =    -0.00165851    0.00060707   -0.00007410
     atom   69 type  1   force =     0.00079391    0.00056271    0.00024948
     atom   70 type  1   force =    -0.00080235    0.00056139   -0.00025084
     atom   71 type  1   force =    -0.00079391   -0.00056271   -0.00024948
     atom   72 type  1   force =     0.00080235   -0.00056139    0.00025084
     atom   73 type  3   force =     0.00064470    0.00039442    0.00092866
     atom   74 type  3   force =    -0.00064458    0.00039321   -0.00092851
     atom   75 type  3   force =    -0.00064470   -0.00039442   -0.00092866
     atom   76 type  3   force =     0.00064458   -0.00039321    0.00092851
     atom   77 type  3   force =    -0.00524137    0.00003525    0.00398142
     atom   78 type  3   force =     0.00524176    0.00003415   -0.00398122
     atom   79 type  3   force =     0.00524137   -0.00003525   -0.00398142
     atom   80 type  3   force =    -0.00524176   -0.00003415    0.00398122
     atom   81 type  3   force =    -0.00485486    0.00259680   -0.00058235
     atom   82 type  3   force =     0.00485501    0.00259558    0.00058245
     atom   83 type  3   force =     0.00485486   -0.00259680    0.00058235
     atom   84 type  3   force =    -0.00485501   -0.00259558   -0.00058245
     atom   85 type  3   force =    -0.00000665   -0.00067188   -0.00024966
     atom   86 type  3   force =     0.00000666   -0.00067258    0.00024940
     atom   87 type  3   force =     0.00000665    0.00067188    0.00024966
     atom   88 type  3   force =    -0.00000666    0.00067258   -0.00024940
     atom   89 type  3   force =     0.00000681    0.00001283   -0.00007440
     atom   90 type  3   force =    -0.00000709    0.00001250    0.00007414
     atom   91 type  3   force =    -0.00000681   -0.00001283    0.00007440
     atom   92 type  3   force =     0.00000709   -0.00001250   -0.00007414
     atom   93 type  3   force =     0.00030676   -0.00051124   -0.00012004
     atom   94 type  3   force =    -0.00030701   -0.00051237    0.00011985
     atom   95 type  3   force =    -0.00030676    0.00051124    0.00012004
     atom   96 type  3   force =     0.00030701    0.00051237   -0.00011985
     atom   97 type  3   force =     0.00018544   -0.00092319   -0.00025684
     atom   98 type  3   force =    -0.00018522   -0.00092376    0.00025694
     atom   99 type  3   force =    -0.00018544    0.00092319    0.00025684
     atom  100 type  3   force =     0.00018522    0.00092376   -0.00025694
     atom  101 type  3   force =     0.00074563    0.00044715   -0.00018008
     atom  102 type  3   force =    -0.00074547    0.00044589    0.00018021
     atom  103 type  3   force =    -0.00074563   -0.00044715    0.00018008
     atom  104 type  3   force =     0.00074547   -0.00044589   -0.00018021
     atom  105 type  3   force =     0.00117012   -0.00023475    0.00039742
     atom  106 type  3   force =    -0.00116953   -0.00023558   -0.00039709
     atom  107 type  3   force =    -0.00117012    0.00023475   -0.00039742
     atom  108 type  3   force =     0.00116953    0.00023558    0.00039709
     atom  109 type  3   force =    -0.00042467    0.00050279   -0.00035819
     atom  110 type  3   force =     0.00042420    0.00050311    0.00035795
     atom  111 type  3   force =     0.00042467   -0.00050279    0.00035819
     atom  112 type  3   force =    -0.00042420   -0.00050311   -0.00035795
     atom  113 type  3   force =    -0.00027990   -0.00007096   -0.00004368
     atom  114 type  3   force =     0.00027931   -0.00007106    0.00004328
     atom  115 type  3   force =     0.00027990    0.00007096    0.00004368
     atom  116 type  3   force =    -0.00027931    0.00007106   -0.00004328
     atom  117 type  3   force =    -0.00052179    0.00042688    0.00061091
     atom  118 type  3   force =     0.00052162    0.00042714   -0.00061070
     atom  119 type  3   force =     0.00052179   -0.00042688   -0.00061091
     atom  120 type  3   force =    -0.00052162   -0.00042714    0.00061070
     atom  121 type  3   force =     0.00037703    0.00045516    0.00067374
     atom  122 type  3   force =    -0.00037741    0.00045559   -0.00067370
     atom  123 type  3   force =    -0.00037703   -0.00045516   -0.00067374
     atom  124 type  3   force =     0.00037741   -0.00045559    0.00067370
     atom  125 type  3   force =     0.00071557   -0.00042517    0.00023051
     atom  126 type  3   force =    -0.00071592   -0.00042534   -0.00023002
     atom  127 type  3   force =    -0.00071557    0.00042517   -0.00023051
     atom  128 type  3   force =     0.00071592    0.00042534    0.00023002
     atom  129 type  3   force =     0.00104222    0.00013960   -0.00062338
     atom  130 type  3   force =    -0.00104141    0.00013856    0.00062352
     atom  131 type  3   force =    -0.00104222   -0.00013960    0.00062338
     atom  132 type  3   force =     0.00104141   -0.00013856   -0.00062352
     atom  133 type  3   force =     0.00049923    0.00053414    0.00046114
     atom  134 type  3   force =    -0.00049817    0.00053432   -0.00046096
     atom  135 type  3   force =    -0.00049923   -0.00053414   -0.00046114
     atom  136 type  3   force =     0.00049817   -0.00053432    0.00046096
     atom  137 type  3   force =    -0.00049301   -0.00020973   -0.00052984
     atom  138 type  3   force =     0.00049303   -0.00021064    0.00053032
     atom  139 type  3   force =     0.00049301    0.00020973    0.00052984
     atom  140 type  3   force =    -0.00049303    0.00021064   -0.00053032
     atom  141 type  3   force =    -0.00062097    0.00004505    0.00016001
     atom  142 type  3   force =     0.00062090    0.00004453   -0.00015972
     atom  143 type  3   force =     0.00062097   -0.00004505   -0.00016001
     atom  144 type  3   force =    -0.00062090   -0.00004453    0.00015972
     atom  145 type  3   force =     0.00031583   -0.00015047   -0.00016414
     atom  146 type  3   force =    -0.00031586   -0.00015037    0.00016468
     atom  147 type  3   force =    -0.00031583    0.00015047    0.00016414
     atom  148 type  3   force =     0.00031586    0.00015037   -0.00016468

     Total force =     0.040390     Total SCF correction =     0.000156


     Computing stress (Cartesian axis) and pressure

          total   stress  (Ry/bohr**3)                   (kbar)     P=   -5.03
  -0.00001746  -0.00000000  -0.00000782         -2.57     -0.00     -1.15
  -0.00000000  -0.00005825  -0.00000000         -0.00     -8.57     -0.00
  -0.00000782  -0.00000000  -0.00002682         -1.15     -0.00     -3.94


     Writing output data file scf.save
 
     init_run     :     54.92s CPU     57.24s WALL (       1 calls)
     electrons    :   1712.40s CPU   1800.67s WALL (       1 calls)
     forces       :     30.44s CPU     30.83s WALL (       1 calls)
     stress       :    187.60s CPU    188.17s WALL (       1 calls)

     Called by init_run:
     wfcinit      :     37.16s CPU     39.24s WALL (       1 calls)
     potinit      :      6.18s CPU      6.22s WALL (       1 calls)

     Called by electrons:
     c_bands      :   1516.64s CPU   1590.01s WALL (      18 calls)
     sum_band     :    170.08s CPU    182.03s WALL (      18 calls)
     v_of_rho     :      3.86s CPU      4.20s WALL (      19 calls)
     newd         :     10.13s CPU     12.80s WALL (      19 calls)
     PAW_pot      :     10.45s CPU     10.46s WALL (      19 calls)
     mix_rho      :      1.11s CPU      1.17s WALL (      18 calls)

     Called by c_bands:
     init_us_2    :     11.51s CPU     11.58s WALL (     156 calls)
     cegterg      :   1477.62s CPU   1550.91s WALL (      72 calls)

     Called by sum_band:
     sum_band:bec :      0.08s CPU      0.08s WALL (      72 calls)
     addusdens    :     10.86s CPU     13.38s WALL (      18 calls)

     Called by *egterg:
     h_psi        :    843.62s CPU    902.29s WALL (     319 calls)
     s_psi        :    149.86s CPU    149.93s WALL (     319 calls)
     g_psi        :      4.39s CPU      4.40s WALL (     243 calls)
     cdiaghg      :     64.44s CPU     64.47s WALL (     315 calls)

     Called by h_psi:
     h_psi:pot    :    836.95s CPU    895.45s WALL (     319 calls)
     h_psi:calbec :    160.90s CPU    161.30s WALL (     319 calls)
     vloc_psi     :    526.37s CPU    584.40s WALL (     319 calls)
     add_vuspsi   :    149.68s CPU    149.76s WALL (     319 calls)

     General routines
     calbec       :    240.73s CPU    241.26s WALL (     411 calls)
     fft          :      8.32s CPU      8.92s WALL (     271 calls)
     fftw         :    556.84s CPU    623.70s WALL (  117414 calls)
 
     Parallel routines
     fft_scatter  :    147.20s CPU    213.96s WALL (  117685 calls)
 
     PWSCF        : 33m14.45s CPU    35m12.10s WALL

 
   This run was terminated on:  17: 3:49  21Dec2017            

=------------------------------------------------------------------------------=
   JOB DONE.
=------------------------------------------------------------------------------=
