
     Program PWSCF v.6.1 (svn rev. 13369) starts on  7Dec2017 at 22:56: 6 

     This program is part of the open-source Quantum ESPRESSO suite
     for quantum simulation of materials; please cite
         "P. Giannozzi et al., J. Phys.:Condens. Matter 21 395502 (2009);
          URL http://www.quantum-espresso.org", 
     in publications or presentations arising from this work. More details at
     http://www.quantum-espresso.org/quote

     Parallel version (MPI), running on     8 processors
     R & G space division:  proc/nbgrp/npool/nimage =       8
     Waiting for input...
     Reading input from standard input

     Current dimensions of program PWSCF are:
     Max number of different atomic species (ntypx) = 10
     Max number of k-points (npk) =  40000
     Max angular momentum in pseudopotentials (lmaxx) =  3
               file C.pbe-n-kjpaw_psl.0.1.UPF: wavefunction(s)  2P renormalized
               file N.pbe-n-kjpaw_psl.0.1.UPF: wavefunction(s)  2P renormalized
               file H.pbe-kjpaw_psl.0.1.UPF: wavefunction(s)  1S renormalized
               file O.pbe-n-kjpaw_psl.0.1.UPF: wavefunction(s)  2P renormalized

     -------------------------------------
     Parameters for Dispersion Correction:
     -------------------------------------
       atom      VdW radius       C_6     

        C          2.744         60.710
        N          2.640         42.670
        H          1.892          4.857
        O          2.536         24.284

     Subspace diagonalization in iterative solution of the eigenvalue problem:
     a serial algorithm will be used

 
     Parallelization info
     --------------------
     sticks:   dense  smooth     PW     G-vecs:    dense   smooth      PW
     Min         855     855    223               102937   102937   13776
     Max         856     856    224               102942   102942   13782
     Sum        6845    6845   1789               823509   823509  110217
 


     bravais-lattice index     =            0
     lattice parameter (alat)  =      14.6257  a.u.
     unit-cell volume          =    6096.8259 (a.u.)^3
     number of atoms/cell      =           92
     number of atomic types    =            4
     number of electrons       =       296.00
     number of Kohn-Sham states=          177
     kinetic-energy cutoff     =     100.0000  Ry
     charge density cutoff     =     400.0000  Ry
     convergence threshold     =      1.0E-08
     mixing beta               =       0.5000
     number of iterations used =            8  plain     mixing
     Exchange-correlation      =  SLA  PW   PBX  PBC ( 1  4  3  4 0 0)

     celldm(1)=  14.625724  celldm(2)=   0.000000  celldm(3)=   0.000000
     celldm(4)=   0.000000  celldm(5)=   0.000000  celldm(6)=   0.000000

     crystal axes: (cart. coord. in units of alat)
               a(1) = (   1.000000   0.000000   0.000000 )  
               a(2) = (   0.000000   1.005982   0.000000 )  
               a(3) = (   0.000000   0.000000   1.937141 )  

     reciprocal axes: (cart. coord. in units 2 pi/alat)
               b(1) = (  1.000000  0.000000  0.000000 )  
               b(2) = (  0.000000  0.994053  0.000000 )  
               b(3) = (  0.000000  0.000000  0.516225 )  


     PseudoPot. # 1 for  C read from file:
     /scratch/ahofstet/pseudo/C.pbe-n-kjpaw_psl.0.1.UPF
     MD5 check sum: 430fe95172b1e11ef3f8ed03bac87931
     Pseudo is Projector augmented-wave + core cor, Zval =  4.0
     Generated using "atomic" code by A. Dal Corso  v.5.0.99 svn rev. 10869
     Shape of augmentation charge: BESSEL
     Using radial grid of 1073 points,  4 beta functions with: 
                l(1) =   0
                l(2) =   0
                l(3) =   1
                l(4) =   1
     Q(r) pseudized with 0 coefficients 


     PseudoPot. # 2 for  N read from file:
     /scratch/ahofstet/pseudo/N.pbe-n-kjpaw_psl.0.1.UPF
     MD5 check sum: f73187c8b701007e77325f868c9291d7
     Pseudo is Projector augmented-wave + core cor, Zval =  5.0
     Generated using "atomic" code by A. Dal Corso  v.5.0.99 svn rev. 10869
     Shape of augmentation charge: PSQ
     Using radial grid of 1085 points,  4 beta functions with: 
                l(1) =   0
                l(2) =   0
                l(3) =   1
                l(4) =   1
     Q(r) pseudized with 0 coefficients 


     PseudoPot. # 3 for  H read from file:
     /scratch/ahofstet/pseudo/H.pbe-kjpaw_psl.0.1.UPF
     MD5 check sum: 94e484f906d9e9773b2f6e52662335b2
     Pseudo is Projector augmented-wave, Zval =  1.0
     Generated using "atomic" code by A. Dal Corso  v.5.0.99 svn rev. 10869
     Shape of augmentation charge: PSQ
     Using radial grid of  929 points,  2 beta functions with: 
                l(1) =   0
                l(2) =   0
     Q(r) pseudized with 0 coefficients 


     PseudoPot. # 4 for  O read from file:
     /scratch/ahofstet/pseudo/O.pbe-n-kjpaw_psl.0.1.UPF
     MD5 check sum: 3f94a2996a3169367d6eb21d9b593f20
     Pseudo is Projector augmented-wave + core cor, Zval =  6.0
     Generated using "atomic" code by A. Dal Corso  v.5.0.99 svn rev. 10869
     Shape of augmentation charge: BESSEL
     Using radial grid of 1095 points,  4 beta functions with: 
                l(1) =   0
                l(2) =   0
                l(3) =   1
                l(4) =   1
     Q(r) pseudized with 0 coefficients 


     atomic species   valence    mass     pseudopotential
        C              4.00    12.01070      C( 1.00)
        N              5.00    14.00670      N( 1.00)
        H              1.00     1.00794      H( 1.00)
        O              6.00    15.99940      O( 1.00)

     No symmetry found



   Cartesian axes

     site n.     atom                  positions (alat units)
         1           C   tau(   1) = (   0.4161477   0.6829706   1.1507035  )
         2           C   tau(   2) = (   0.0839444   0.3230032   0.1821750  )
         3           C   tau(   3) = (   0.5838826   0.1800223   1.7550124  )
         4           C   tau(   4) = (   0.9160358   0.8259492   0.7864280  )
         5           C   tau(   5) = (   0.4293013   0.4978224   1.0849796  )
         6           C   tau(   6) = (   0.0709864   0.5081673   0.1164866  )
         7           C   tau(   7) = (   0.5706880   1.0008466   1.8207271  )
         8           C   tau(   8) = (   0.9290188   0.0051387   0.8520807  )
         9           H   tau(   9) = (   0.5585223   0.4797807   1.0281841  )
        10           H   tau(  10) = (   0.9417860   0.5263350   0.0596799  )
        11           H   tau(  11) = (   0.4414516   0.9828228   1.8774946  )
        12           H   tau(  12) = (   0.0582294   0.0232881   0.9088664  )
        13           H   tau(  13) = (   0.3343792   0.4767202   0.9814882  )
        14           H   tau(  14) = (   0.1659447   0.5292021   0.0130210  )
        15           H   tau(  15) = (   0.6655821   0.9797270   1.9242393  )
        16           H   tau(  16) = (   0.8340861   0.0261841   0.9555695  )
        17           C   tau(  17) = (   0.4078692   0.3673054   1.2309174  )
        18           C   tau(  18) = (   0.0924906   0.6386810   0.2624170  )
        19           C   tau(  19) = (   0.5921320   0.8703305   1.6747900  )
        20           C   tau(  20) = (   0.9075085   0.1356495   0.7061497  )
        21           H   tau(  21) = (   0.5009818   0.3949833   1.3340822  )
        22           H   tau(  22) = (  -0.0006039   0.6110521   0.3656068  )
        23           H   tau(  23) = (   0.4990196   0.8980070   1.5716248  )
        24           H   tau(  24) = (   1.0006041   0.1080165   0.6029602  )
        25           C   tau(  25) = (   0.4458621   0.1813625   1.1647107  )
        26           C   tau(  26) = (   0.0545369   0.8246266   0.1961673  )
        27           C   tau(  27) = (   0.5541387   0.6843887   1.7410086  )
        28           C   tau(  28) = (   0.9454383   0.3215998   0.7724035  )
        29           C   tau(  29) = (   0.0913617   0.3640199   1.2109286  )
        30           C   tau(  30) = (   0.4089631   0.6419504   0.2423199  )
        31           C   tau(  31) = (   0.9086395   0.8670792   1.6947872  )
        32           C   tau(  32) = (   0.5910366   0.1388784   0.7262601  )
        33           H   tau(  33) = (   0.1126085   0.3460320   1.0730458  )
        34           H   tau(  34) = (   0.3876113   0.6599359   0.1044460  )
        35           H   tau(  35) = (   0.8873939   0.8491507   1.8326803  )
        36           H   tau(  36) = (   0.6123881   0.1568160   0.8641417  )
        37           C   tau(  37) = (   0.9284375   0.3698092   1.2844478  )
        38           C   tau(  38) = (   0.5719023   0.6361872   0.3157492  )
        39           C   tau(  39) = (   0.0715602   0.8727919   1.6212599  )
        40           C   tau(  40) = (   0.4280997   0.1331794   0.6528246  )
        41           H   tau(  41) = (   0.8153684   0.3504080   1.2027353  )
        42           H   tau(  42) = (   0.6849486   0.6556057   0.2339666  )
        43           H   tau(  43) = (   0.1846298   0.8533998   1.7029766  )
        44           H   tau(  44) = (   0.3150540   0.1525855   0.7346128  )
        45           C   tau(  45) = (   0.9120542   0.3934800   1.4626002  )
        46           C   tau(  46) = (   0.5883943   0.6125247   0.4938690  )
        47           C   tau(  47) = (   0.0879432   0.8963619   1.4430940  )
        48           C   tau(  48) = (   0.4116038   0.1096032   0.4746951  )
        49           H   tau(  49) = (   0.7849788   0.3957072   1.5230474  )
        50           H   tau(  50) = (   0.7155097   0.6103294   0.5542637  )
        51           H   tau(  51) = (   0.2150194   0.8984872   1.3826412  )
        52           H   tau(  52) = (   0.2844896   0.1074945   0.4142947  )
        53           C   tau(  53) = (   0.0606425   0.4138628   1.5621209  )
        54           C   tau(  54) = (   0.4398682   0.5921253   0.5934804  )
        55           C   tau(  55) = (   0.9393581   0.9167479   1.3435706  )
        56           C   tau(  56) = (   0.5601271   0.0892051   0.3750764  )
        57           H   tau(  57) = (   0.0539004   0.4334494   1.7010540  )
        58           H   tau(  58) = (   0.4467186   0.5725420   0.7324129  )
        59           H   tau(  59) = (   0.9460993   0.9362700   1.2046264  )
        60           H   tau(  60) = (   0.5532783   0.0696757   0.2361399  )
        61           C   tau(  61) = (   0.2215085   0.4081640   1.4837547  )
        62           C   tau(  62) = (   0.2789448   0.5978046   0.5152162  )
        63           C   tau(  63) = (   0.7784949   0.9111285   1.4219456  )
        64           C   tau(  64) = (   0.7210522   0.0948172   0.4533493  )
        65           H   tau(  65) = (   0.3418690   0.4227539   1.5546128  )
        66           H   tau(  66) = (   0.1586231   0.5832030   0.5861406  )
        67           H   tau(  67) = (   0.6581351   0.9257170   1.3510845  )
        68           H   tau(  68) = (   0.8413695   0.0802191   0.3824210  )
        69           N   tau(  69) = (   0.2343416   0.3823132   1.3112120  )
        70           N   tau(  70) = (   0.2660272   0.6236422   0.3426667  )
        71           N   tau(  71) = (   0.7656594   0.8853435   1.5944983  )
        72           N   tau(  72) = (   0.7339708   0.1206004   0.6259058  )
        73           O   tau(  73) = (   0.4459603   0.7202152   1.3028096  )
        74           O   tau(  74) = (   0.0537987   0.2857103   0.3342238  )
        75           O   tau(  75) = (   0.5540824   0.2172854   1.6029168  )
        76           O   tau(  76) = (   0.9461659   0.7886357   0.6343420  )
        77           O   tau(  77) = (   0.3697917   0.7926877   1.0299061  )
        78           O   tau(  78) = (   0.1305092   0.2133171   0.0614344  )
        79           O   tau(  79) = (   0.6302441   0.2897257   1.8758281  )
        80           O   tau(  80) = (   0.8694689   0.7162707   0.9071524  )
        81           H   tau(  81) = (   0.3566327   0.9213938   1.0818258  )
        82           H   tau(  82) = (   0.1436614   0.0846125   0.1133196  )
        83           H   tau(  83) = (   0.6434013   0.4184305   1.8239169  )
        84           H   tau(  84) = (   0.8563126   0.5875611   0.8552727  )
        85           O   tau(  85) = (   0.6004664   0.1502627   1.1311555  )
        86           O   tau(  86) = (   0.8999487   0.8557323   0.1625860  )
        87           O   tau(  87) = (   0.3995495   0.6532814   1.7745549  )
        88           O   tau(  88) = (   0.1000497   0.3527114   0.8059818  )
        89           O   tau(  89) = (   0.3168231   0.0809140   1.1474227  )
        90           O   tau(  90) = (   0.1835846   0.9250706   0.1788789  )
        91           O   tau(  91) = (   0.6831968   0.5839502   1.7583214  )
        92           O   tau(  92) = (   0.8164029   0.4220284   0.7897067  )

     number of k points=    10
                       cart. coord. in units 2pi/alat
        k(    1) = (   0.0000000   0.0000000   0.0000000), wk =   0.1111111
        k(    2) = (   0.0000000   0.0000000  -0.2581123), wk =   0.1111111
        k(    3) = (   0.0000000   0.3313511   0.0000000), wk =   0.2222222
        k(    4) = (   0.0000000   0.3313511  -0.2581123), wk =   0.2222222
        k(    5) = (   0.3333333   0.0000000   0.0000000), wk =   0.2222222
        k(    6) = (   0.3333333   0.0000000  -0.2581123), wk =   0.2222222
        k(    7) = (   0.3333333   0.3313511   0.0000000), wk =   0.2222222
        k(    8) = (   0.3333333   0.3313511  -0.2581123), wk =   0.2222222
        k(    9) = (  -0.3333333   0.3313511   0.0000000), wk =   0.2222222
        k(   10) = (  -0.3333333   0.3313511   0.2581123), wk =   0.2222222

     Dense  grid:   823509 G-vectors     FFT dimensions: (  96,  96, 192)

     Estimated max dynamical RAM per process >     840.32MB

     Estimated total allocated dynamical RAM >    6722.56MB

     Check: negative/imaginary core charge=   -0.000002    0.000000

     Initial potential from superposition of free atoms

     starting charge  295.99811, renormalised to  296.00000
     Starting wfc are  260 randomized atomic wfcs
     Checking if some PAW data can be deallocated... 

     total cpu time spent up to now is       52.2 secs

     per-process dynamical memory:   592.9 Mb

     Self-consistent Calculation

     iteration #  1     ecut=   100.00 Ry     beta=0.50
     Davidson diagonalization with overlap
     ethr =  1.00E-02,  avg # of iterations =  3.9

     total cpu time spent up to now is      218.3 secs

     total energy              =   -1484.55324058 Ry
     Harris-Foulkes estimate   =   -1489.46595535 Ry
     estimated scf accuracy    <       9.25662747 Ry

     iteration #  2     ecut=   100.00 Ry     beta=0.50
     Davidson diagonalization with overlap
     ethr =  3.13E-03,  avg # of iterations =  2.3

     total cpu time spent up to now is      307.2 secs

     total energy              =   -1485.42586646 Ry
     Harris-Foulkes estimate   =   -1486.15100826 Ry
     estimated scf accuracy    <       1.52769772 Ry

     iteration #  3     ecut=   100.00 Ry     beta=0.50
     Davidson diagonalization with overlap
     ethr =  5.16E-04,  avg # of iterations =  6.6

     total cpu time spent up to now is      483.8 secs

     total energy              =   -1486.17971496 Ry
     Harris-Foulkes estimate   =   -1486.45109051 Ry
     estimated scf accuracy    <       0.64671211 Ry

     iteration #  4     ecut=   100.00 Ry     beta=0.50
     Davidson diagonalization with overlap
     ethr =  2.18E-04,  avg # of iterations =  2.0

     total cpu time spent up to now is      566.4 secs

     total energy              =   -1486.15221070 Ry
     Harris-Foulkes estimate   =   -1486.23426051 Ry
     estimated scf accuracy    <       0.14791980 Ry

     iteration #  5     ecut=   100.00 Ry     beta=0.50
     Davidson diagonalization with overlap
     ethr =  5.00E-05,  avg # of iterations =  6.9

     total cpu time spent up to now is      761.9 secs

     total energy              =   -1486.26606678 Ry
     Harris-Foulkes estimate   =   -1486.32090065 Ry
     estimated scf accuracy    <       0.18351194 Ry

     iteration #  6     ecut=   100.00 Ry     beta=0.50
     Davidson diagonalization with overlap
     ethr =  5.00E-05,  avg # of iterations =  1.2

     total cpu time spent up to now is      840.6 secs

     total energy              =   -1486.22543125 Ry
     Harris-Foulkes estimate   =   -1486.27378019 Ry
     estimated scf accuracy    <       0.08009347 Ry

     iteration #  7     ecut=   100.00 Ry     beta=0.50
     Davidson diagonalization with overlap
     ethr =  2.71E-05,  avg # of iterations =  6.6

     total cpu time spent up to now is     1005.1 secs

     total energy              =   -1486.26315786 Ry
     Harris-Foulkes estimate   =   -1486.27025854 Ry
     estimated scf accuracy    <       0.01930119 Ry

     iteration #  8     ecut=   100.00 Ry     beta=0.50
     Davidson diagonalization with overlap
     ethr =  6.52E-06,  avg # of iterations =  1.1

     total cpu time spent up to now is     1084.1 secs

     total energy              =   -1486.26001409 Ry
     Harris-Foulkes estimate   =   -1486.26379052 Ry
     estimated scf accuracy    <       0.00718791 Ry

     iteration #  9     ecut=   100.00 Ry     beta=0.50
     Davidson diagonalization with overlap
     ethr =  2.43E-06,  avg # of iterations =  7.4

     total cpu time spent up to now is     1252.9 secs

     total energy              =   -1486.26434294 Ry
     Harris-Foulkes estimate   =   -1486.26471465 Ry
     estimated scf accuracy    <       0.00156115 Ry

     iteration # 10     ecut=   100.00 Ry     beta=0.50
     Davidson diagonalization with overlap
     ethr =  5.27E-07,  avg # of iterations =  1.0

     total cpu time spent up to now is     1331.0 secs

     total energy              =   -1486.26380653 Ry
     Harris-Foulkes estimate   =   -1486.26436656 Ry
     estimated scf accuracy    <       0.00092353 Ry

     iteration # 11     ecut=   100.00 Ry     beta=0.50
     Davidson diagonalization with overlap
     ethr =  3.12E-07,  avg # of iterations =  3.8

     total cpu time spent up to now is     1464.0 secs

     total energy              =   -1486.26421492 Ry
     Harris-Foulkes estimate   =   -1486.26427876 Ry
     estimated scf accuracy    <       0.00019535 Ry

     iteration # 12     ecut=   100.00 Ry     beta=0.50
     Davidson diagonalization with overlap
     ethr =  6.60E-08,  avg # of iterations =  1.0

     total cpu time spent up to now is     1542.0 secs

     total energy              =   -1486.26418260 Ry
     Harris-Foulkes estimate   =   -1486.26422039 Ry
     estimated scf accuracy    <       0.00008781 Ry

     iteration # 13     ecut=   100.00 Ry     beta=0.50
     Davidson diagonalization with overlap
     ethr =  2.97E-08,  avg # of iterations =  3.1

     total cpu time spent up to now is     1670.5 secs

     total energy              =   -1486.26421805 Ry
     Harris-Foulkes estimate   =   -1486.26421760 Ry
     estimated scf accuracy    <       0.00000164 Ry

     iteration # 14     ecut=   100.00 Ry     beta=0.50
     Davidson diagonalization with overlap
     ethr =  5.53E-10,  avg # of iterations =  4.0

     total cpu time spent up to now is     1781.5 secs

     total energy              =   -1486.26421710 Ry
     Harris-Foulkes estimate   =   -1486.26421854 Ry
     estimated scf accuracy    <       0.00000327 Ry

     iteration # 15     ecut=   100.00 Ry     beta=0.50
     Davidson diagonalization with overlap
     ethr =  5.53E-10,  avg # of iterations =  2.8

     total cpu time spent up to now is     1865.1 secs

     total energy              =   -1486.26421689 Ry
     Harris-Foulkes estimate   =   -1486.26421726 Ry
     estimated scf accuracy    <       0.00000083 Ry

     iteration # 16     ecut=   100.00 Ry     beta=0.50
     Davidson diagonalization with overlap
     ethr =  2.82E-10,  avg # of iterations =  4.0

     total cpu time spent up to now is     2007.9 secs

     total energy              =   -1486.26421744 Ry
     Harris-Foulkes estimate   =   -1486.26421745 Ry
     estimated scf accuracy    <       0.00000012 Ry

     iteration # 17     ecut=   100.00 Ry     beta=0.50
     Davidson diagonalization with overlap
     ethr =  4.06E-11,  avg # of iterations =  1.0

     total cpu time spent up to now is     2085.9 secs

     total energy              =   -1486.26421739 Ry
     Harris-Foulkes estimate   =   -1486.26421744 Ry
     estimated scf accuracy    <       0.00000009 Ry

     iteration # 18     ecut=   100.00 Ry     beta=0.50
     Davidson diagonalization with overlap
     ethr =  3.05E-11,  avg # of iterations =  4.0

     total cpu time spent up to now is     2195.6 secs

     End of self-consistent calculation

          k = 0.0000 0.0000 0.0000 (102867 PWs)   bands (ev):

   -20.6090 -20.6003 -20.5983 -20.5901 -20.0121 -20.0075 -19.9951 -19.9908
   -19.1940 -19.1922 -19.1793 -19.1776 -18.3081 -18.3061 -18.3057 -18.3031
   -17.7228 -17.7199 -17.7148 -17.7124 -14.7432 -14.7296 -14.6682 -14.6623
   -13.4192 -13.4103 -13.3995 -13.3867 -13.2061 -13.1581 -13.1434 -13.1227
   -10.8956 -10.8617 -10.8431 -10.8299 -10.2100 -10.1976 -10.1686 -10.1448
    -9.4726  -9.4597  -9.4498  -9.4185  -8.3723  -8.3664  -8.3134  -8.2911
    -7.8696  -7.8599  -7.8215  -7.7491  -6.5787  -6.5607  -6.5520  -6.5513
    -6.3075  -6.2928  -6.2745  -6.2452  -5.9091  -5.8754  -5.6994  -5.6981
    -5.6311  -5.6018  -5.5116  -5.4777  -5.3789  -5.3380  -5.2817  -5.2603
    -5.1317  -5.0489  -5.0321  -4.9984  -4.9424  -4.9359  -4.7603  -4.7586
    -4.7477  -4.6767  -4.6298  -4.5501  -4.4937  -4.4753  -4.4216  -4.4157
    -4.3771  -4.2521  -3.9988  -3.9679  -3.8399  -3.7692  -3.7528  -3.7458
    -3.7298  -3.7218  -3.6279  -3.6258  -3.1536  -3.1516  -3.1187  -2.8933
    -2.8439  -2.8290  -2.8022  -2.7404  -2.7259  -2.6800  -2.6491  -2.6184
    -2.4328  -2.3908  -2.3309  -2.2509  -1.9618  -1.9268  -1.9138  -1.8306
    -1.5952  -1.5609  -1.3981  -1.3863  -1.0828  -1.0412  -0.7538  -0.6731
    -0.6362  -0.6174  -0.6171  -0.6026  -0.2929  -0.2731  -0.2477  -0.2176
    -0.1057  -0.0773  -0.0680  -0.0227   0.2925   0.2950   0.3009   0.3037
     0.4968   0.5254   0.5506   0.5537   3.5959   3.6138   3.7480   3.7660
     4.5307   4.5350   4.6169   4.6183   5.5728   5.5784   5.6767   5.6803
     6.0229   6.0308   6.0846   6.1765   6.4071   7.0260   7.0893   7.5794
     7.6551   7.6792   7.8143   7.8342   7.8710   8.0423   8.2019   8.2097
     8.2694

          k = 0.0000 0.0000-0.2581 (102986 PWs)   bands (ev):

   -20.6065 -20.6057 -20.5930 -20.5923 -20.0103 -20.0099 -19.9929 -19.9925
   -19.1932 -19.1930 -19.1786 -19.1784 -18.3080 -18.3062 -18.3056 -18.3031
   -17.7218 -17.7213 -17.7136 -17.7132 -14.7366 -14.7363 -14.6653 -14.6651
   -13.4148 -13.4147 -13.3943 -13.3940 -13.1821 -13.1813 -13.1329 -13.1319
   -10.8811 -10.8808 -10.8347 -10.8343 -10.2041 -10.2034 -10.1566 -10.1560
    -9.4681  -9.4678  -9.4325  -9.4323  -8.3703  -8.3692  -8.3024  -8.3013
    -7.8675  -7.8667  -7.7841  -7.7831  -6.5815  -6.5812  -6.5400  -6.5396
    -6.2998  -6.2990  -6.2558  -6.2556  -5.8741  -5.8733  -5.7107  -5.7096
    -5.5952  -5.5944  -5.5552  -5.5546  -5.3665  -5.3661  -5.2638  -5.2628
    -5.1035  -5.1028  -4.9911  -4.9908  -4.9257  -4.9253  -4.7486  -4.7474
    -4.7137  -4.7131  -4.6058  -4.6051  -4.4638  -4.4634  -4.4138  -4.4127
    -4.3233  -4.3229  -3.9850  -3.9847  -3.7830  -3.7824  -3.7671  -3.7661
    -3.7258  -3.7254  -3.6590  -3.6585  -3.1423  -3.1412  -3.0223  -3.0219
    -2.8149  -2.8142  -2.7975  -2.7974  -2.7215  -2.7201  -2.5661  -2.5657
    -2.4022  -2.4012  -2.3254  -2.3245  -1.9526  -1.9519  -1.8642  -1.8633
    -1.5800  -1.5783  -1.3912  -1.3903  -1.0629  -1.0621  -0.7090  -0.7082
    -0.6469  -0.6469  -0.5929  -0.5929  -0.2893  -0.2888  -0.2278  -0.2274
    -0.0983  -0.0978  -0.0377  -0.0372   0.2918   0.2934   0.3025   0.3037
     0.5079   0.5086   0.5543   0.5550   3.6049   3.6057   3.7563   3.7569
     4.5316   4.5340   4.6174   4.6180   5.5767   5.5775   5.6786   5.6794
     6.0153   6.0165   6.1352   6.1362   6.5948   6.5957   7.5171   7.5185
     7.6631   7.6640   7.7386   7.7392   7.9122   7.9138   8.1838   8.1844
     8.4167

          k = 0.0000 0.3314 0.0000 (103019 PWs)   bands (ev):

   -20.5879 -20.5832 -20.5790 -20.5746 -20.0504 -20.0477 -20.0299 -20.0274
   -19.1769 -19.1760 -19.1611 -19.1602 -18.3014 -18.3003 -18.2990 -18.2970
   -17.7273 -17.7258 -17.7166 -17.7153 -14.7165 -14.7052 -14.6790 -14.6711
   -13.4072 -13.3976 -13.3959 -13.3854 -13.1647 -13.1326 -13.1234 -13.1059
   -11.0261 -11.0040 -10.9726 -10.9491 -10.2143 -10.2061 -10.1944 -10.1786
    -9.5889  -9.5836  -9.5504  -9.5390  -8.2439  -8.1944  -8.1491  -8.1273
    -7.5533  -7.5165  -7.4299  -7.4059  -6.5763  -6.5456  -6.5206  -6.5073
    -6.3121  -6.3099  -6.2813  -6.2552  -5.9170  -5.9134  -5.7998  -5.7710
    -5.7493  -5.6940  -5.6040  -5.5416  -5.5279  -5.4483  -5.4380  -5.4008
    -5.1806  -5.1457  -5.1038  -5.0901  -5.0214  -4.9338  -4.9007  -4.8767
    -4.7487  -4.7212  -4.5763  -4.5550  -4.3774  -4.3587  -4.3510  -4.3275
    -4.1279  -4.1247  -4.0009  -3.9872  -3.8665  -3.7798  -3.7765  -3.7473
    -3.7383  -3.6880  -3.6863  -3.5674  -3.1515  -3.1097  -3.0515  -2.9555
    -2.9367  -2.9326  -2.8558  -2.8379  -2.6439  -2.6129  -2.5785  -2.5109
    -2.4150  -2.3918  -2.3859  -2.3229  -2.1955  -2.1663  -2.0890  -2.0191
    -1.6030  -1.5819  -1.4908  -1.4735  -1.0044  -0.9267  -0.8229  -0.7246
    -0.6417  -0.6412  -0.6047  -0.5863  -0.2894  -0.2830  -0.2425  -0.2330
     0.1067   0.1108   0.1196   0.1275   0.3312   0.3451   0.3510   0.3630
     0.5352   0.5453   0.5920   0.5928   3.6276   3.6527   3.7055   3.7236
     4.5385   4.5573   4.5812   4.5972   5.5818   5.5911   5.6641   5.6663
     6.0263   6.0563   6.0759   6.1493   6.6811   7.0926   7.2743   7.4140
     7.5587   7.7003   7.8798   7.9594   8.0001   8.0828   8.1367   8.1740
     8.3177

          k = 0.0000 0.3314-0.2581 (102942 PWs)   bands (ev):

   -20.5863 -20.5858 -20.5765 -20.5759 -20.0492 -20.0490 -20.0287 -20.0285
   -19.1765 -19.1764 -19.1608 -19.1606 -18.3013 -18.3004 -18.2989 -18.2970
   -17.7267 -17.7265 -17.7160 -17.7158 -14.7111 -14.7109 -14.6751 -14.6749
   -13.4033 -13.4031 -13.3908 -13.3905 -13.1450 -13.1442 -13.1184 -13.1175
   -11.0174 -11.0169 -10.9592 -10.9586 -10.2106 -10.2099 -10.1866 -10.1859
    -9.5863  -9.5861  -9.5450  -9.5447  -8.2148  -8.2142  -8.1447  -8.1442
    -7.5359  -7.5353  -7.4163  -7.4157  -6.5653  -6.5649  -6.5093  -6.5089
    -6.3094  -6.3089  -6.2656  -6.2654  -5.9007  -5.8998  -5.8010  -5.8002
    -5.7165  -5.7161  -5.5830  -5.5828  -5.5221  -5.5218  -5.3977  -5.3973
    -5.1755  -5.1754  -5.1162  -5.1158  -4.9545  -4.9541  -4.8796  -4.8791
    -4.6983  -4.6981  -4.5661  -4.5659  -4.3964  -4.3962  -4.3261  -4.3254
    -4.1298  -4.1297  -4.0018  -4.0014  -3.8302  -3.8298  -3.7652  -3.7650
    -3.7260  -3.7257  -3.6108  -3.6103  -3.1496  -3.1490  -3.0078  -3.0076
    -2.9204  -2.9196  -2.8089  -2.8087  -2.6214  -2.6208  -2.5585  -2.5581
    -2.4207  -2.4202  -2.3825  -2.3824  -2.1328  -2.1323  -2.0764  -2.0754
    -1.5938  -1.5925  -1.4807  -1.4807  -0.9702  -0.9696  -0.7745  -0.7738
    -0.6294  -0.6294  -0.6009  -0.6008  -0.2865  -0.2862  -0.2395  -0.2392
     0.1086   0.1089   0.1242   0.1245   0.3383   0.3392   0.3562   0.3569
     0.5395   0.5396   0.5928   0.5930   3.6399   3.6405   3.7142   3.7147
     4.5466   4.5484   4.5896   4.5899   5.5880   5.5888   5.6637   5.6646
     6.0302   6.0311   6.1212   6.1221   6.8330   6.8338   7.3344   7.3353
     7.7434   7.7439   7.8846   7.8850   8.0415   8.0424   8.1630   8.1634
     8.3013

          k = 0.3333 0.0000 0.0000 (103032 PWs)   bands (ev):

   -20.6060 -20.6005 -20.5979 -20.5927 -20.0078 -20.0025 -19.9992 -19.9940
   -19.1938 -19.1870 -19.1863 -19.1798 -18.3087 -18.3064 -18.3060 -18.3032
   -17.7198 -17.7181 -17.7155 -17.7143 -14.7477 -14.7412 -14.6747 -14.6719
   -13.4243 -13.4229 -13.3755 -13.3722 -13.1824 -13.1531 -13.1399 -13.1249
   -10.8708 -10.8503 -10.8344 -10.8298 -10.1884 -10.1797 -10.1586 -10.1440
    -9.4898  -9.4753  -9.4699  -9.4509  -8.3579  -8.3448  -8.3283  -8.3068
    -7.8564  -7.8491  -7.8308  -7.7869  -6.7148  -6.7049  -6.6195  -6.6011
    -6.3030  -6.2907  -6.2694  -6.2446  -5.8102  -5.8020  -5.7165  -5.6863
    -5.5666  -5.5523  -5.4608  -5.4445  -5.4040  -5.3839  -5.3220  -5.2769
    -5.2179  -5.1696  -5.0311  -5.0274  -4.8851  -4.8621  -4.7634  -4.7615
    -4.6780  -4.6239  -4.5821  -4.5708  -4.5431  -4.4260  -4.3298  -4.3014
    -4.2978  -4.2342  -4.1846  -4.0658  -3.8523  -3.8181  -3.7869  -3.7839
    -3.6797  -3.6662  -3.6222  -3.5893  -3.1539  -3.0479  -2.9986  -2.9879
    -2.9094  -2.8835  -2.8312  -2.7751  -2.6862  -2.6177  -2.5644  -2.5603
    -2.4198  -2.3937  -2.2847  -2.2516  -1.9800  -1.9423  -1.8768  -1.8710
    -1.5656  -1.5520  -1.3403  -1.3334  -1.0788  -1.0555  -0.7899  -0.7864
    -0.7289  -0.6908  -0.5532  -0.5324  -0.2913  -0.2673  -0.2463  -0.2261
    -0.0862  -0.0537  -0.0376  -0.0344   0.2984   0.3025   0.3160   0.3217
     0.4910   0.5050   0.5113   0.5219   3.5746   3.5831   3.7431   3.7519
     4.5265   4.5305   4.5585   4.5643   5.5687   5.6114   5.6209   5.6784
     6.0351   6.0375   6.1260   6.1621   6.7752   7.2687   7.2729   7.4914
     7.6543   7.7509   7.7949   7.8682   7.9057   7.9205   8.0530   8.1123
     8.1610

          k = 0.3333 0.0000-0.2581 (102964 PWs)   bands (ev):

   -20.6045 -20.6035 -20.5950 -20.5941 -20.0062 -20.0055 -19.9962 -19.9955
   -19.1920 -19.1913 -19.1821 -19.1814 -18.3087 -18.3063 -18.3061 -18.3032
   -17.7193 -17.7188 -17.7150 -17.7146 -14.7444 -14.7442 -14.6737 -14.6734
   -13.4234 -13.4232 -13.3751 -13.3748 -13.1626 -13.1617 -13.1376 -13.1367
   -10.8606 -10.8603 -10.8326 -10.8322 -10.1824 -10.1816 -10.1533 -10.1527
    -9.4831  -9.4827  -9.4603  -9.4598  -8.3540  -8.3529  -8.3159  -8.3148
    -7.8537  -7.8528  -7.8095  -7.8085  -6.7119  -6.7117  -6.6077  -6.6073
    -6.2938  -6.2932  -6.2597  -6.2592  -5.7955  -5.7944  -5.7013  -5.7000
    -5.5826  -5.5821  -5.4412  -5.4403  -5.4255  -5.4251  -5.2654  -5.2644
    -5.1969  -5.1960  -5.0173  -5.0172  -4.8768  -4.8762  -4.7765  -4.7750
    -4.6546  -4.6541  -4.5981  -4.5979  -4.4782  -4.4778  -4.3407  -4.3402
    -4.2659  -4.2658  -4.0540  -4.0529  -3.8344  -3.8338  -3.8099  -3.8094
    -3.6635  -3.6633  -3.6101  -3.6097  -3.1008  -3.1000  -3.0243  -3.0240
    -2.9100  -2.9093  -2.7832  -2.7819  -2.6450  -2.6443  -2.5770  -2.5766
    -2.3464  -2.3454  -2.3045  -2.3034  -1.9601  -1.9592  -1.8811  -1.8802
    -1.5588  -1.5572  -1.3375  -1.3366  -1.0684  -1.0678  -0.7908  -0.7899
    -0.7060  -0.7049  -0.5433  -0.5428  -0.2705  -0.2698  -0.2471  -0.2465
    -0.0717  -0.0714  -0.0336  -0.0333   0.2992   0.3009   0.3187   0.3202
     0.4957   0.4965   0.5179   0.5188   3.5789   3.5798   3.7465   3.7470
     4.5277   4.5295   4.5617   4.5620   5.5794   5.5807   5.6579   5.6589
     6.0404   6.0417   6.1403   6.1417   6.9089   6.9099   7.5345   7.5362
     7.7008   7.7013   7.8105   7.8115   7.8891   7.8898   8.0581   8.0597
     8.1877

          k = 0.3333 0.3314 0.0000 (102889 PWs)   bands (ev):

   -20.5855 -20.5812 -20.5809 -20.5767 -20.0448 -20.0418 -20.0345 -20.0316
   -19.1754 -19.1720 -19.1673 -19.1641 -18.3015 -18.3002 -18.2992 -18.2969
   -17.7239 -17.7231 -17.7184 -17.7177 -14.7222 -14.7168 -14.6849 -14.6812
   -13.4063 -13.4036 -13.3806 -13.3777 -13.1468 -13.1312 -13.1101 -13.1023
   -11.0008 -10.9880 -10.9725 -10.9593 -10.1971 -10.1923 -10.1798 -10.1713
    -9.5963  -9.5931  -9.5724  -9.5674  -8.2250  -8.1963  -8.1517  -8.1351
    -7.5398  -7.5044  -7.4587  -7.4527  -6.6820  -6.6578  -6.6309  -6.5912
    -6.3112  -6.2917  -6.2716  -6.2523  -5.9028  -5.8712  -5.8082  -5.7940
    -5.6724  -5.6362  -5.5940  -5.5823  -5.4659  -5.3916  -5.3590  -5.2953
    -5.2868  -5.2320  -5.1851  -5.1550  -4.9447  -4.9161  -4.8748  -4.8622
    -4.6804  -4.6572  -4.5536  -4.5264  -4.4396  -4.3855  -4.3151  -4.3031
    -4.1248  -4.0779  -4.0458  -3.9623  -3.8874  -3.8579  -3.8071  -3.7786
    -3.7081  -3.6917  -3.6366  -3.6318  -3.1355  -3.0659  -3.0315  -2.9859
    -2.8905  -2.8592  -2.8352  -2.8241  -2.6422  -2.5937  -2.5601  -2.5176
    -2.4113  -2.3883  -2.3520  -2.3055  -2.1725  -2.1364  -2.1066  -2.0804
    -1.5791  -1.5714  -1.4538  -1.4440  -0.9709  -0.9207  -0.8253  -0.7835
    -0.7110  -0.6744  -0.6112  -0.5801  -0.3000  -0.2900  -0.2492  -0.2372
     0.1134   0.1218   0.1306   0.1381   0.3597   0.3660   0.3723   0.3773
     0.5269   0.5322   0.5517   0.5556   3.6085   3.6204   3.6924   3.7010
     4.5216   4.5327   4.5399   4.5472   5.6025   5.6122   5.6268   5.6690
     6.0562   6.0692   6.1082   6.1406   7.0010   7.3132   7.4489   7.5142
     7.7420   7.7594   7.8511   7.8761   7.9342   8.0024   8.0675   8.0954
     8.2555

          k = 0.3333 0.3314-0.2581 (102932 PWs)   bands (ev):

   -20.5846 -20.5838 -20.5784 -20.5776 -20.0437 -20.0433 -20.0331 -20.0327
   -19.1742 -19.1738 -19.1656 -19.1652 -18.3015 -18.3002 -18.2992 -18.2969
   -17.7236 -17.7235 -17.7182 -17.7179 -14.7192 -14.7190 -14.6835 -14.6833
   -13.4046 -13.4043 -13.3804 -13.3801 -13.1293 -13.1285 -13.1161 -13.1152
   -10.9956 -10.9951 -10.9652 -10.9647 -10.1933 -10.1925 -10.1776 -10.1770
    -9.5934  -9.5931  -9.5714  -9.5711  -8.1966  -8.1959  -8.1599  -8.1595
    -7.5215  -7.5212  -7.4552  -7.4545  -6.6775  -6.6770  -6.6030  -6.6025
    -6.2968  -6.2964  -6.2652  -6.2648  -5.8876  -5.8865  -5.8087  -5.8075
    -5.6443  -5.6436  -5.5740  -5.5736  -5.4507  -5.4502  -5.3632  -5.3625
    -5.2150  -5.2144  -5.1815  -5.1810  -4.9314  -4.9308  -4.8741  -4.8736
    -4.6418  -4.6413  -4.5659  -4.5655  -4.4136  -4.4128  -4.3130  -4.3121
    -4.1025  -4.1018  -3.9887  -3.9877  -3.8660  -3.8656  -3.7997  -3.7988
    -3.6845  -3.6840  -3.6466  -3.6457  -3.1138  -3.1134  -2.9978  -2.9976
    -2.8821  -2.8816  -2.8392  -2.8382  -2.6131  -2.6126  -2.5486  -2.5480
    -2.3759  -2.3754  -2.3389  -2.3385  -2.1396  -2.1388  -2.1073  -2.1066
    -1.5768  -1.5755  -1.4501  -1.4500  -0.9480  -0.9476  -0.8065  -0.8058
    -0.6875  -0.6868  -0.5953  -0.5950  -0.2828  -0.2824  -0.2575  -0.2574
     0.1219   0.1223   0.1302   0.1307   0.3635   0.3641   0.3736   0.3742
     0.5295   0.5298   0.5535   0.5538   3.6150   3.6157   3.6953   3.6958
     4.5265   4.5279   4.5438   4.5443   5.6054   5.6068   5.6468   5.6475
     6.0661   6.0674   6.1211   6.1224   7.1160   7.1169   7.4973   7.4982
     7.7889   7.7895   7.9121   7.9124   7.9791   7.9800   8.0409   8.0417
     8.2397

          k =-0.3333 0.3314 0.0000 (102889 PWs)   bands (ev):

   -20.5855 -20.5812 -20.5809 -20.5767 -20.0448 -20.0418 -20.0345 -20.0316
   -19.1754 -19.1720 -19.1673 -19.1641 -18.3015 -18.3001 -18.2991 -18.2971
   -17.7239 -17.7231 -17.7184 -17.7177 -14.7221 -14.7168 -14.6849 -14.6812
   -13.4063 -13.4036 -13.3806 -13.3777 -13.1468 -13.1312 -13.1101 -13.1023
   -11.0008 -10.9879 -10.9725 -10.9593 -10.1971 -10.1923 -10.1797 -10.1713
    -9.5963  -9.5930  -9.5725  -9.5674  -8.2251  -8.1963  -8.1519  -8.1349
    -7.5397  -7.5043  -7.4587  -7.4528  -6.6821  -6.6578  -6.6308  -6.5911
    -6.3112  -6.2917  -6.2715  -6.2523  -5.9028  -5.8712  -5.8083  -5.7940
    -5.6724  -5.6363  -5.5939  -5.5824  -5.4660  -5.3918  -5.3589  -5.2952
    -5.2869  -5.2321  -5.1850  -5.1549  -4.9447  -4.9161  -4.8748  -4.8622
    -4.6804  -4.6573  -4.5535  -4.5265  -4.4396  -4.3855  -4.3151  -4.3030
    -4.1248  -4.0779  -4.0458  -3.9624  -3.8874  -3.8579  -3.8070  -3.7788
    -3.7082  -3.6916  -3.6365  -3.6317  -3.1355  -3.0658  -3.0315  -2.9860
    -2.8905  -2.8593  -2.8353  -2.8241  -2.6421  -2.5937  -2.5601  -2.5176
    -2.4114  -2.3883  -2.3520  -2.3055  -2.1725  -2.1364  -2.1066  -2.0804
    -1.5790  -1.5714  -1.4538  -1.4440  -0.9709  -0.9207  -0.8252  -0.7834
    -0.7112  -0.6745  -0.6112  -0.5801  -0.3000  -0.2900  -0.2492  -0.2372
     0.1133   0.1219   0.1306   0.1381   0.3597   0.3660   0.3723   0.3774
     0.5270   0.5322   0.5518   0.5556   3.6086   3.6203   3.6925   3.7010
     4.5220   4.5329   4.5396   4.5468   5.6025   5.6124   5.6267   5.6689
     6.0562   6.0693   6.1081   6.1407   7.0010   7.3131   7.4488   7.5143
     7.7420   7.7593   7.8511   7.8760   7.9341   8.0026   8.0675   8.0953
     8.2555

          k =-0.3333 0.3314 0.2581 (102932 PWs)   bands (ev):

   -20.5846 -20.5838 -20.5784 -20.5776 -20.0437 -20.0433 -20.0331 -20.0327
   -19.1742 -19.1738 -19.1656 -19.1652 -18.3015 -18.3002 -18.2991 -18.2971
   -17.7237 -17.7234 -17.7181 -17.7180 -14.7192 -14.7190 -14.6835 -14.6833
   -13.4046 -13.4043 -13.3804 -13.3801 -13.1294 -13.1285 -13.1160 -13.1152
   -10.9956 -10.9951 -10.9652 -10.9647 -10.1932 -10.1925 -10.1777 -10.1770
    -9.5934  -9.5931  -9.5714  -9.5711  -8.1966  -8.1962  -8.1600  -8.1593
    -7.5216  -7.5209  -7.4551  -7.4548  -6.6774  -6.6772  -6.6030  -6.6024
    -6.2968  -6.2964  -6.2652  -6.2648  -5.8877  -5.8864  -5.8087  -5.8076
    -5.6443  -5.6437  -5.5741  -5.5733  -5.4508  -5.4503  -5.3630  -5.3625
    -5.2150  -5.2146  -5.1814  -5.1808  -4.9313  -4.9309  -4.8742  -4.8736
    -4.6417  -4.6414  -4.5659  -4.5656  -4.4137  -4.4128  -4.3129  -4.3121
    -4.1025  -4.1018  -3.9887  -3.9877  -3.8660  -3.8655  -3.7997  -3.7988
    -3.6845  -3.6840  -3.6465  -3.6457  -3.1138  -3.1134  -2.9978  -2.9975
    -2.8821  -2.8815  -2.8392  -2.8383  -2.6131  -2.6125  -2.5485  -2.5481
    -2.3759  -2.3754  -2.3388  -2.3385  -2.1396  -2.1390  -2.1073  -2.1063
    -1.5767  -1.5755  -1.4501  -1.4500  -0.9481  -0.9477  -0.8064  -0.8057
    -0.6876  -0.6869  -0.5953  -0.5949  -0.2826  -0.2826  -0.2576  -0.2573
     0.1217   0.1224   0.1304   0.1307   0.3634   0.3641   0.3737   0.3742
     0.5295   0.5298   0.5536   0.5538   3.6150   3.6157   3.6953   3.6958
     4.5268   4.5283   4.5434   4.5439   5.6057   5.6066   5.6464   5.6477
     6.0660   6.0674   6.1211   6.1225   7.1161   7.1170   7.4972   7.4980
     7.7887   7.7894   7.9123   7.9126   7.9791   7.9799   8.0409   8.0418
     8.2403

     highest occupied, lowest unoccupied level (ev):     0.5930    3.5746

!    total energy              =   -1486.26421742 Ry
     Harris-Foulkes estimate   =   -1486.26421742 Ry
     estimated scf accuracy    <          5.2E-10 Ry

     total all-electron energy =     -5632.517195 Ry

     The total energy is the sum of the following terms:

     one-electron contribution =    -801.94479529 Ry
     hartree contribution      =     516.24875220 Ry
     xc contribution           =    -314.86731985 Ry
     ewald contribution        =    -460.42773571 Ry
     Dispersion Correction     =      -0.41131234 Ry
     one-center paw contrib.   =    -424.86180642 Ry

     convergence has been achieved in  18 iterations

     Forces acting on atoms (cartesian axes, Ry/au):

     atom    1 type  1   force =     0.00031737   -0.00331939   -0.00063247
     atom    2 type  1   force =    -0.00042298    0.00324379   -0.00018329
     atom    3 type  1   force =    -0.00031338   -0.00335778    0.00079963
     atom    4 type  1   force =     0.00054587    0.00313963   -0.00064321
     atom    5 type  1   force =    -0.00008622    0.00389840   -0.00040464
     atom    6 type  1   force =     0.00001823   -0.00386750   -0.00042307
     atom    7 type  1   force =     0.00009477    0.00394991    0.00039670
     atom    8 type  1   force =    -0.00000924   -0.00391340    0.00048689
     atom    9 type  3   force =     0.00072124   -0.00091881   -0.00051202
     atom   10 type  3   force =    -0.00071611    0.00090490   -0.00051320
     atom   11 type  3   force =    -0.00071680   -0.00091363    0.00050865
     atom   12 type  3   force =     0.00072957    0.00092282    0.00051843
     atom   13 type  3   force =     0.00032048   -0.00037320   -0.00039375
     atom   14 type  3   force =    -0.00032893    0.00037176   -0.00041533
     atom   15 type  3   force =    -0.00031364   -0.00037255    0.00039677
     atom   16 type  3   force =     0.00032988    0.00038545    0.00040276
     atom   17 type  1   force =     0.00180672   -0.00424051    0.00540616
     atom   18 type  1   force =    -0.00181392    0.00424490    0.00540921
     atom   19 type  1   force =    -0.00182065   -0.00419568   -0.00539752
     atom   20 type  1   force =     0.00179474    0.00419684   -0.00540597
     atom   21 type  3   force =    -0.00152931    0.00059823   -0.00132968
     atom   22 type  3   force =     0.00149316   -0.00060496   -0.00131453
     atom   23 type  3   force =     0.00152984    0.00059414    0.00132379
     atom   24 type  3   force =    -0.00150184   -0.00058734    0.00132478
     atom   25 type  1   force =    -0.00089405    0.00412066    0.00240432
     atom   26 type  1   force =     0.00098047   -0.00411132    0.00241253
     atom   27 type  1   force =     0.00124716    0.00406824   -0.00243019
     atom   28 type  1   force =    -0.00042627   -0.00417994   -0.00235065
     atom   29 type  1   force =     0.00079491    0.00104557    0.00424925
     atom   30 type  1   force =    -0.00109036   -0.00103725    0.00407353
     atom   31 type  1   force =    -0.00082647    0.00101988   -0.00421970
     atom   32 type  1   force =     0.00110572   -0.00100811   -0.00406933
     atom   33 type  3   force =     0.00020905    0.00024383    0.00011097
     atom   34 type  3   force =    -0.00017172   -0.00025402    0.00021677
     atom   35 type  3   force =    -0.00020689    0.00024421   -0.00013377
     atom   36 type  3   force =     0.00016878   -0.00025481   -0.00021692
     atom   37 type  1   force =     0.00096885   -0.00092383   -0.00029471
     atom   38 type  1   force =    -0.00048781    0.00098440   -0.00061697
     atom   39 type  1   force =    -0.00093455   -0.00091486    0.00029329
     atom   40 type  1   force =     0.00045627    0.00097077    0.00063783
     atom   41 type  3   force =     0.00086069   -0.00092173   -0.00002072
     atom   42 type  3   force =    -0.00105412    0.00088462    0.00012065
     atom   43 type  3   force =    -0.00087379   -0.00091712    0.00001224
     atom   44 type  3   force =     0.00106093    0.00088704   -0.00012709
     atom   45 type  1   force =    -0.00108449    0.00054342   -0.00232378
     atom   46 type  1   force =     0.00119260   -0.00057612   -0.00199019
     atom   47 type  1   force =     0.00110667    0.00052231    0.00231997
     atom   48 type  1   force =    -0.00117238   -0.00055346    0.00195317
     atom   49 type  3   force =    -0.00000724    0.00051169   -0.00001560
     atom   50 type  3   force =    -0.00012722   -0.00050782   -0.00010341
     atom   51 type  3   force =    -0.00000412    0.00053351    0.00002418
     atom   52 type  3   force =     0.00012572   -0.00053316    0.00010662
     atom   53 type  1   force =     0.00206269    0.00022752    0.00131896
     atom   54 type  1   force =    -0.00214004   -0.00024187    0.00136502
     atom   55 type  1   force =    -0.00205419    0.00024634   -0.00134044
     atom   56 type  1   force =     0.00216415   -0.00025471   -0.00129350
     atom   57 type  3   force =     0.00032822   -0.00013601   -0.00050233
     atom   58 type  3   force =    -0.00033388    0.00014399   -0.00054439
     atom   59 type  3   force =    -0.00032972   -0.00014189    0.00052085
     atom   60 type  3   force =     0.00032734    0.00014508    0.00050579
     atom   61 type  1   force =    -0.00137076   -0.00062358    0.00044914
     atom   62 type  1   force =     0.00144258    0.00063669    0.00034352
     atom   63 type  1   force =     0.00134623   -0.00063346   -0.00044519
     atom   64 type  1   force =    -0.00150226    0.00065382   -0.00036469
     atom   65 type  3   force =    -0.00023441    0.00021304   -0.00006735
     atom   66 type  3   force =     0.00019225   -0.00021309   -0.00005857
     atom   67 type  3   force =     0.00024160    0.00020813    0.00007092
     atom   68 type  3   force =    -0.00017596   -0.00021220    0.00005226
     atom   69 type  2   force =    -0.00235818   -0.00029163   -0.00242439
     atom   70 type  2   force =     0.00240956    0.00027779   -0.00234101
     atom   71 type  2   force =     0.00236496   -0.00030879    0.00242112
     atom   72 type  2   force =    -0.00240552    0.00027833    0.00233096
     atom   73 type  4   force =     0.00012182    0.00032873    0.00038968
     atom   74 type  4   force =    -0.00003155   -0.00023143    0.00000647
     atom   75 type  4   force =    -0.00014132    0.00034475   -0.00051600
     atom   76 type  4   force =    -0.00008291   -0.00004791    0.00065629
     atom   77 type  4   force =    -0.00063640    0.00221376   -0.00257083
     atom   78 type  4   force =     0.00067029   -0.00221090   -0.00261873
     atom   79 type  4   force =     0.00062627    0.00216781    0.00253928
     atom   80 type  4   force =    -0.00069741   -0.00228834    0.00273057
     atom   81 type  3   force =     0.00171159   -0.00473603    0.00033297
     atom   82 type  3   force =    -0.00170890    0.00468275    0.00036514
     atom   83 type  3   force =    -0.00170979   -0.00471789   -0.00033159
     atom   84 type  3   force =     0.00172234    0.00470042   -0.00037860
     atom   85 type  4   force =     0.00060479    0.00137738   -0.00032032
     atom   86 type  4   force =    -0.00076955   -0.00133572   -0.00036452
     atom   87 type  4   force =    -0.00083012    0.00133621    0.00035684
     atom   88 type  4   force =     0.00041210   -0.00140308    0.00029044
     atom   89 type  4   force =    -0.00245886    0.00108931   -0.00317208
     atom   90 type  4   force =     0.00240882   -0.00111654   -0.00316749
     atom   91 type  4   force =     0.00234798    0.00118101    0.00315146
     atom   92 type  4   force =    -0.00257905   -0.00098044    0.00319696

     Total force =     0.029294     Total SCF correction =     0.000044


     Computing stress (Cartesian axis) and pressure

          total   stress  (Ry/bohr**3)                   (kbar)     P=   -2.07
  -0.00002884  -0.00000001   0.00000017         -4.24     -0.00      0.03
  -0.00000001   0.00000203  -0.00000008         -0.00      0.30     -0.01
   0.00000017  -0.00000008  -0.00001546          0.03     -0.01     -2.27


     Writing output data file scf.save
 
     init_run     :     49.62s CPU     51.49s WALL (       1 calls)
     electrons    :   2061.37s CPU   2143.61s WALL (       1 calls)
     forces       :     23.24s CPU     23.44s WALL (       1 calls)
     stress       :    108.48s CPU    108.86s WALL (       1 calls)

     Called by init_run:
     wfcinit      :     44.06s CPU     45.84s WALL (       1 calls)
     potinit      :      2.03s CPU      2.06s WALL (       1 calls)

     Called by electrons:
     c_bands      :   1866.76s CPU   1936.88s WALL (      18 calls)
     sum_band     :    181.23s CPU    191.93s WALL (      18 calls)
     v_of_rho     :      2.17s CPU      2.40s WALL (      19 calls)
     newd         :      4.55s CPU      5.69s WALL (      19 calls)
     PAW_pot      :      5.97s CPU      5.98s WALL (      19 calls)
     mix_rho      :      0.53s CPU      0.57s WALL (      18 calls)

     Called by c_bands:
     init_us_2    :     10.35s CPU     10.39s WALL (     390 calls)
     cegterg      :   1824.74s CPU   1894.75s WALL (     180 calls)

     Called by sum_band:
     sum_band:bec :      0.11s CPU      0.12s WALL (     180 calls)
     addusdens    :      4.76s CPU      5.84s WALL (      18 calls)

     Called by *egterg:
     h_psi        :    958.04s CPU   1013.22s WALL (     817 calls)
     s_psi        :    222.80s CPU    222.85s WALL (     817 calls)
     g_psi        :      4.84s CPU      4.84s WALL (     627 calls)
     cdiaghg      :    108.19s CPU    108.22s WALL (     807 calls)

     Called by h_psi:
     h_psi:pot    :    951.19s CPU   1006.27s WALL (     817 calls)
     h_psi:calbec :    220.18s CPU    220.57s WALL (     817 calls)
     vloc_psi     :    507.05s CPU    561.68s WALL (     817 calls)
     add_vuspsi   :    223.96s CPU    224.02s WALL (     817 calls)

     General routines
     calbec       :    322.00s CPU    322.57s WALL (    1047 calls)
     fft          :      2.09s CPU      2.46s WALL (     271 calls)
     fftw         :    540.82s CPU    602.11s WALL (  214772 calls)
 
     Parallel routines
     fft_scatter  :    124.11s CPU    176.48s WALL (  215043 calls)
 
     PWSCF        : 37m35.31s CPU    39m58.14s WALL

 
   This run was terminated on:  23:36: 4   7Dec2017            

=------------------------------------------------------------------------------=
   JOB DONE.
=------------------------------------------------------------------------------=
