
     Program PWSCF v.6.1 (svn rev. 13369) starts on 22Dec2017 at  8:26:55 

     This program is part of the open-source Quantum ESPRESSO suite
     for quantum simulation of materials; please cite
         "P. Giannozzi et al., J. Phys.:Condens. Matter 21 395502 (2009);
          URL http://www.quantum-espresso.org", 
     in publications or presentations arising from this work. More details at
     http://www.quantum-espresso.org/quote

     Parallel version (MPI), running on     8 processors
     R & G space division:  proc/nbgrp/npool/nimage =       8
     Waiting for input...
     Reading input from standard input

     Current dimensions of program PWSCF are:
     Max number of different atomic species (ntypx) = 10
     Max number of k-points (npk) =  40000
     Max angular momentum in pseudopotentials (lmaxx) =  3
               file C.pbe-n-kjpaw_psl.0.1.UPF: wavefunction(s)  2P renormalized
               file N.pbe-n-kjpaw_psl.0.1.UPF: wavefunction(s)  2P renormalized
               file H.pbe-kjpaw_psl.0.1.UPF: wavefunction(s)  1S renormalized
               file O.pbe-n-kjpaw_psl.0.1.UPF: wavefunction(s)  2P renormalized

     -------------------------------------
     Parameters for Dispersion Correction:
     -------------------------------------
       atom      VdW radius       C_6     

        C          2.744         60.710
        N          2.640         42.670
        H          1.892          4.857
        O          2.536         24.284

     Subspace diagonalization in iterative solution of the eigenvalue problem:
     a serial algorithm will be used

 
     Parallelization info
     --------------------
     sticks:   dense  smooth     PW     G-vecs:    dense   smooth      PW
     Min        1315    1315    346                67255    67255    9118
     Max        1316    1316    347                67256    67256    9120
     Sum       10523   10523   2769               538045   538045   72951
 


     bravais-lattice index     =            0
     lattice parameter (alat)  =      19.5341  a.u.
     unit-cell volume          =    3982.5636 (a.u.)^3
     number of atoms/cell      =           90
     number of atomic types    =            4
     number of electrons       =       272.00
     number of Kohn-Sham states=          163
     kinetic-energy cutoff     =     100.0000  Ry
     charge density cutoff     =     400.0000  Ry
     convergence threshold     =      1.0E-08
     mixing beta               =       0.5000
     number of iterations used =            8  plain     mixing
     Exchange-correlation      =  SLA  PW   PBX  PBC ( 1  4  3  4 0 0)

     celldm(1)=  19.534099  celldm(2)=   0.000000  celldm(3)=   0.000000
     celldm(4)=   0.000000  celldm(5)=   0.000000  celldm(6)=   0.000000

     crystal axes: (cart. coord. in units of alat)
               a(1) = (   1.000000   0.000000   0.000000 )  
               a(2) = (   0.000000   0.865628   0.000000 )  
               a(3) = (  -0.194614   0.000000   0.617236 )  

     reciprocal axes: (cart. coord. in units 2 pi/alat)
               b(1) = (  1.000000  0.000000  0.315299 )  
               b(2) = (  0.000000  1.155230  0.000000 )  
               b(3) = (  0.000000  0.000000  1.620126 )  


     PseudoPot. # 1 for  C read from file:
     /scratch/ahofstet/pseudo/C.pbe-n-kjpaw_psl.0.1.UPF
     MD5 check sum: 430fe95172b1e11ef3f8ed03bac87931
     Pseudo is Projector augmented-wave + core cor, Zval =  4.0
     Generated using "atomic" code by A. Dal Corso  v.5.0.99 svn rev. 10869
     Shape of augmentation charge: BESSEL
     Using radial grid of 1073 points,  4 beta functions with: 
                l(1) =   0
                l(2) =   0
                l(3) =   1
                l(4) =   1
     Q(r) pseudized with 0 coefficients 


     PseudoPot. # 2 for  N read from file:
     /scratch/ahofstet/pseudo/N.pbe-n-kjpaw_psl.0.1.UPF
     MD5 check sum: f73187c8b701007e77325f868c9291d7
     Pseudo is Projector augmented-wave + core cor, Zval =  5.0
     Generated using "atomic" code by A. Dal Corso  v.5.0.99 svn rev. 10869
     Shape of augmentation charge: PSQ
     Using radial grid of 1085 points,  4 beta functions with: 
                l(1) =   0
                l(2) =   0
                l(3) =   1
                l(4) =   1
     Q(r) pseudized with 0 coefficients 


     PseudoPot. # 3 for  H read from file:
     /scratch/ahofstet/pseudo/H.pbe-kjpaw_psl.0.1.UPF
     MD5 check sum: 94e484f906d9e9773b2f6e52662335b2
     Pseudo is Projector augmented-wave, Zval =  1.0
     Generated using "atomic" code by A. Dal Corso  v.5.0.99 svn rev. 10869
     Shape of augmentation charge: PSQ
     Using radial grid of  929 points,  2 beta functions with: 
                l(1) =   0
                l(2) =   0
     Q(r) pseudized with 0 coefficients 


     PseudoPot. # 4 for  O read from file:
     /scratch/ahofstet/pseudo/O.pbe-n-kjpaw_psl.0.1.UPF
     MD5 check sum: 3f94a2996a3169367d6eb21d9b593f20
     Pseudo is Projector augmented-wave + core cor, Zval =  6.0
     Generated using "atomic" code by A. Dal Corso  v.5.0.99 svn rev. 10869
     Shape of augmentation charge: BESSEL
     Using radial grid of 1095 points,  4 beta functions with: 
                l(1) =   0
                l(2) =   0
                l(3) =   1
                l(4) =   1
     Q(r) pseudized with 0 coefficients 


     atomic species   valence    mass     pseudopotential
        C              4.00    12.01070      C( 1.00)
        N              5.00    14.00670      N( 1.00)
        H              1.00     1.00794      H( 1.00)
        O              6.00    15.99940      O( 1.00)

      2 Sym. Ops. (no inversion) found ( 1 have fractional translation)



   Cartesian axes

     site n.     atom                  positions (alat units)
         1           O   tau(   1) = (   0.1139141   0.3047511   0.2753702  )
         2           O   tau(   2) = (   0.6914722   0.7375652   0.3418656  )
         3           C   tau(   3) = (   0.2194807   0.3317752   0.3573691  )
         4           C   tau(   4) = (   0.5859056   0.7645893   0.2598666  )
         5           H   tau(   5) = (   0.2344697   0.2557220   0.4300460  )
         6           H   tau(   6) = (   0.5709166   0.6885361   0.1871898  )
         7           C   tau(   7) = (   0.1939732   0.4619012   0.4195229  )
         8           C   tau(   8) = (   0.6114131   0.0290870   0.1977129  )
         9           H   tau(   9) = (   0.2823455   0.4923458   0.4704296  )
        10           H   tau(  10) = (   0.5230408   0.0595317   0.1468062  )
        11           O   tau(  11) = (   0.0908869   0.4450494   0.5077689  )
        12           O   tau(  12) = (   0.7144994   0.0122353   0.1094669  )
        13           H   tau(  13) = (   0.0816725   0.5219306   0.5642688  )
        14           H   tau(  14) = (   0.7237138   0.0891165   0.0529670  )
        15           C   tau(  15) = (   0.1621765   0.5599886   0.3133628  )
        16           C   tau(  16) = (   0.6432099   0.1271744   0.3038730  )
        17           H   tau(  17) = (   0.0720713   0.5308351   0.2653620  )
        18           H   tau(  18) = (   0.7333150   0.0980209   0.3518738  )
        19           O   tau(  19) = (   0.1379652   0.6840876   0.3677004  )
        20           O   tau(  20) = (   0.6674211   0.2512735   0.2495354  )
        21           H   tau(  21) = (   0.2037822   0.7041173   0.4361001  )
        22           H   tau(  22) = (   0.6016041   0.2713031   0.1811357  )
        23           C   tau(  23) = (   0.2710015   0.5616243   0.2118938  )
        24           C   tau(  24) = (   0.5343848   0.1288102   0.4053420  )
        25           H   tau(  25) = (   0.3485289   0.6235174   0.2498878  )
        26           H   tau(  26) = (   0.4568574   0.1907032   0.3673480  )
        27           O   tau(  27) = (   0.2299366   0.6172839   0.0921709  )
        28           O   tau(  28) = (   0.5754497   0.1844697   0.5250649  )
        29           H   tau(  29) = (   0.1439582   0.5772923   0.0738790  )
        30           H   tau(  30) = (   0.6614281   0.1444782   0.5433568  )
        31           C   tau(  31) = (   0.3249901   0.4273067   0.1772195  )
        32           C   tau(  32) = (   0.4803962   0.8601209   0.4400163  )
        33           H   tau(  33) = (   0.2589481   0.3837172   0.1062912  )
        34           H   tau(  34) = (   0.5464382   0.8165314   0.5109446  )
        35           O   tau(  35) = (   0.3360590   0.3379971   0.2848921  )
        36           O   tau(  36) = (   0.4693273   0.7708113   0.3323437  )
        37           C   tau(  37) = (   0.4586199   0.4431370   0.1199819  )
        38           C   tau(  38) = (   0.3467664   0.0103229   0.4972539  )
        39           H   tau(  39) = (   0.5257139   0.4724271   0.1969529  )
        40           H   tau(  40) = (   0.2796724   0.0396129   0.4202829  )
        41           H   tau(  41) = (   0.4545948   0.5209675   0.0476609  )
        42           H   tau(  42) = (   0.3507915   0.0881534   0.5695748  )
        43           O   tau(  43) = (   0.5099479   0.3276290   0.0624688  )
        44           O   tau(  44) = (   0.2954384   0.7604432   0.5547670  )
        45           H   tau(  45) = (   0.4396140   0.2643892   0.0481209  )
        46           H   tau(  46) = (   0.3657723   0.6972033   0.5691148  )
        47           O   tau(  47) = (  -0.0981362   0.2659397   0.4432473  )
        48           O   tau(  48) = (   0.9035225   0.6987539   0.1739885  )
        49           H   tau(  49) = (  -0.0462895   0.3402310   0.4725097  )
        50           H   tau(  50) = (   0.8516758   0.7730451   0.1447261  )
        51           C   tau(  51) = (  -0.0091932   0.1649959   0.4190361  )
        52           C   tau(  52) = (   0.8145795   0.5978101   0.1981997  )
        53           H   tau(  53) = (  -0.0622866   0.0733625   0.4159838  )
        54           H   tau(  54) = (   0.8676729   0.5061766   0.2012520  )
        55           H   tau(  55) = (   0.0639250   0.1583406   0.4962399  )
        56           H   tau(  56) = (   0.7414613   0.5911548   0.1209959  )
        57           C   tau(  57) = (   0.0554548   0.1809660   0.2884054  )
        58           C   tau(  58) = (   0.7499315   0.6137802   0.3288304  )
        59           C   tau(  59) = (  -0.0383374   0.1670881   0.1753621  )
        60           C   tau(  60) = (   0.8437237   0.5999023   0.4418737  )
        61           H   tau(  61) = (   0.8902078   0.0938583   0.2032278  )
        62           H   tau(  62) = (  -0.0848215   0.5266725   0.4140080  )
        63           O   tau(  63) = (   0.8970946   0.2810998   0.1369380  )
        64           O   tau(  64) = (  -0.0917083   0.7139140   0.4802978  )
        65           H   tau(  65) = (   0.8120816   0.2814613   0.1834393  )
        66           H   tau(  66) = (  -0.0066953   0.7142754   0.4337965  )
        67           C   tau(  67) = (   0.0471288   0.1110145   0.0695618  )
        68           C   tau(  68) = (   0.7582575   0.5438286   0.5476740  )
        69           H   tau(  69) = (  -0.0973125   0.1916120   0.6388407  )
        70           H   tau(  70) = (   0.9026988   0.6244262  -0.0216049  )
        71           O   tau(  71) = (   0.7752688   0.0418561   0.5960078  )
        72           O   tau(  72) = (   0.0301176   0.4746703   0.0212279  )
        73           H   tau(  73) = (   0.8261592  -0.0259220   0.5501402  )
        74           H   tau(  74) = (  -0.0207729   0.4068921   0.0670956  )
        75           C   tau(  75) = (   0.1403578   0.0254476   0.1443991  )
        76           C   tau(  76) = (   0.6650285   0.4582618   0.4728367  )
        77           H   tau(  77) = (   0.1019235   0.7929256   0.1523325  )
        78           H   tau(  78) = (   0.7034628   0.3601114   0.4649033  )
        79           O   tau(  79) = (   0.1465745   0.0810229   0.2739079  )
        80           O   tau(  80) = (   0.6588118   0.5138370   0.3433279  )
        81           C   tau(  81) = (   0.2763821   0.0219341   0.0921652  )
        82           C   tau(  82) = (   0.5290042   0.4547482   0.5250706  )
        83           H   tau(  83) = (   0.3363029   0.8232201   0.1510680  )
        84           H   tau(  84) = (   0.4690834   0.3904059   0.4661678  )
        85           H   tau(  85) = (   0.2771395   0.8505097  -0.0066165  )
        86           H   tau(  86) = (   0.5282468   0.4176955   0.6238523  )
        87           O   tau(  87) = (   0.3303420   0.1497609   0.0909889  )
        88           O   tau(  88) = (   0.4750443   0.5825751   0.5262469  )
        89           H   tau(  89) = (   0.3164249   0.1876140   0.1772051  )
        90           H   tau(  90) = (   0.4889614   0.6204282   0.4400307  )

     number of k points=     8
                       cart. coord. in units 2pi/alat
        k(    1) = (   0.0000000   0.0000000   0.0000000), wk =   0.1666667
        k(    2) = (   0.0000000   0.0000000   0.5400421), wk =   0.3333333
        k(    3) = (   0.0000000  -0.5776151   0.0000000), wk =   0.1666667
        k(    4) = (   0.0000000  -0.5776151   0.5400421), wk =   0.3333333
        k(    5) = (  -0.5000000   0.0000000  -0.1576494), wk =   0.1666667
        k(    6) = (  -0.5000000   0.0000000   0.3823927), wk =   0.3333333
        k(    7) = (  -0.5000000  -0.5776151  -0.1576494), wk =   0.1666667
        k(    8) = (  -0.5000000  -0.5776151   0.3823927), wk =   0.3333333

     Dense  grid:   538045 G-vectors     FFT dimensions: ( 125, 108,  81)

     Estimated max dynamical RAM per process >     468.23MB

     Estimated total allocated dynamical RAM >    3745.87MB

     Check: negative/imaginary core charge=   -0.000003    0.000000

     Initial potential from superposition of free atoms

     starting charge  271.99855, renormalised to  272.00000
     Starting wfc are  228 randomized atomic wfcs
     Checking if some PAW data can be deallocated... 

     total cpu time spent up to now is       29.2 secs

     per-process dynamical memory:   331.7 Mb

     Self-consistent Calculation

     iteration #  1     ecut=   100.00 Ry     beta=0.50
     Davidson diagonalization with overlap
     ethr =  1.00E-02,  avg # of iterations =  3.6

     total cpu time spent up to now is      113.4 secs

     total energy              =   -1410.24812879 Ry
     Harris-Foulkes estimate   =   -1413.60191570 Ry
     estimated scf accuracy    <       6.87535117 Ry

     iteration #  2     ecut=   100.00 Ry     beta=0.50
     Davidson diagonalization with overlap
     ethr =  2.53E-03,  avg # of iterations =  2.0

     total cpu time spent up to now is      161.5 secs

     total energy              =   -1411.14505847 Ry
     Harris-Foulkes estimate   =   -1411.42123081 Ry
     estimated scf accuracy    <       0.75291432 Ry

     iteration #  3     ecut=   100.00 Ry     beta=0.50
     Davidson diagonalization with overlap
     ethr =  2.77E-04,  avg # of iterations =  7.0

     total cpu time spent up to now is      240.2 secs

     total energy              =   -1411.29682986 Ry
     Harris-Foulkes estimate   =   -1411.35483421 Ry
     estimated scf accuracy    <       0.17371260 Ry

     iteration #  4     ecut=   100.00 Ry     beta=0.50
     Davidson diagonalization with overlap
     ethr =  6.39E-05,  avg # of iterations =  2.4

     total cpu time spent up to now is      282.6 secs

     total energy              =   -1411.30609688 Ry
     Harris-Foulkes estimate   =   -1411.31064609 Ry
     estimated scf accuracy    <       0.02182309 Ry

     iteration #  5     ecut=   100.00 Ry     beta=0.50
     Davidson diagonalization with overlap
     ethr =  8.02E-06,  avg # of iterations =  7.0

     total cpu time spent up to now is      376.5 secs

     total energy              =   -1411.31621429 Ry
     Harris-Foulkes estimate   =   -1411.32341251 Ry
     estimated scf accuracy    <       0.01963383 Ry

     iteration #  6     ecut=   100.00 Ry     beta=0.50
     Davidson diagonalization with overlap
     ethr =  7.22E-06,  avg # of iterations =  4.5

     total cpu time spent up to now is      418.7 secs

     total energy              =   -1411.31302469 Ry
     Harris-Foulkes estimate   =   -1411.31706816 Ry
     estimated scf accuracy    <       0.00609647 Ry

     iteration #  7     ecut=   100.00 Ry     beta=0.50
     Davidson diagonalization with overlap
     ethr =  2.24E-06,  avg # of iterations =  6.5

     total cpu time spent up to now is      511.7 secs

     total energy              =   -1411.31702287 Ry
     Harris-Foulkes estimate   =   -1411.31910354 Ry
     estimated scf accuracy    <       0.00570017 Ry

     iteration #  8     ecut=   100.00 Ry     beta=0.50
     Davidson diagonalization with overlap
     ethr =  2.10E-06,  avg # of iterations =  1.0

     total cpu time spent up to now is      551.2 secs

     total energy              =   -1411.31613119 Ry
     Harris-Foulkes estimate   =   -1411.31723790 Ry
     estimated scf accuracy    <       0.00185398 Ry

     iteration #  9     ecut=   100.00 Ry     beta=0.50
     Davidson diagonalization with overlap
     ethr =  6.82E-07,  avg # of iterations =  4.5

     total cpu time spent up to now is      627.9 secs

     total energy              =   -1411.31732895 Ry
     Harris-Foulkes estimate   =   -1411.31760930 Ry
     estimated scf accuracy    <       0.00089020 Ry

     iteration # 10     ecut=   100.00 Ry     beta=0.50
     Davidson diagonalization with overlap
     ethr =  3.27E-07,  avg # of iterations =  1.0

     total cpu time spent up to now is      666.5 secs

     total energy              =   -1411.31711918 Ry
     Harris-Foulkes estimate   =   -1411.31735169 Ry
     estimated scf accuracy    <       0.00038073 Ry

     iteration # 11     ecut=   100.00 Ry     beta=0.50
     Davidson diagonalization with overlap
     ethr =  1.40E-07,  avg # of iterations =  4.0

     total cpu time spent up to now is      736.8 secs

     total energy              =   -1411.31731898 Ry
     Harris-Foulkes estimate   =   -1411.31737829 Ry
     estimated scf accuracy    <       0.00015243 Ry

     iteration # 12     ecut=   100.00 Ry     beta=0.50
     Davidson diagonalization with overlap
     ethr =  5.60E-08,  avg # of iterations =  1.0

     total cpu time spent up to now is      774.9 secs

     total energy              =   -1411.31729642 Ry
     Harris-Foulkes estimate   =   -1411.31732467 Ry
     estimated scf accuracy    <       0.00004930 Ry

     iteration # 13     ecut=   100.00 Ry     beta=0.50
     Davidson diagonalization with overlap
     ethr =  1.81E-08,  avg # of iterations =  4.0

     total cpu time spent up to now is      846.0 secs

     total energy              =   -1411.31733101 Ry
     Harris-Foulkes estimate   =   -1411.31733673 Ry
     estimated scf accuracy    <       0.00002143 Ry

     iteration # 14     ecut=   100.00 Ry     beta=0.50
     Davidson diagonalization with overlap
     ethr =  7.88E-09,  avg # of iterations =  1.0

     total cpu time spent up to now is      884.2 secs

     total energy              =   -1411.31732658 Ry
     Harris-Foulkes estimate   =   -1411.31733137 Ry
     estimated scf accuracy    <       0.00001127 Ry

     iteration # 15     ecut=   100.00 Ry     beta=0.50
     Davidson diagonalization with overlap
     ethr =  4.14E-09,  avg # of iterations =  3.6

     total cpu time spent up to now is      941.9 secs

     total energy              =   -1411.31732989 Ry
     Harris-Foulkes estimate   =   -1411.31732993 Ry
     estimated scf accuracy    <       0.00000011 Ry

     iteration # 16     ecut=   100.00 Ry     beta=0.50
     Davidson diagonalization with overlap
     ethr =  4.20E-11,  avg # of iterations =  3.8

     total cpu time spent up to now is     1009.7 secs

     total energy              =   -1411.31732995 Ry
     Harris-Foulkes estimate   =   -1411.31732996 Ry
     estimated scf accuracy    <       0.00000004 Ry

     iteration # 17     ecut=   100.00 Ry     beta=0.50
     Davidson diagonalization with overlap
     ethr =  1.52E-11,  avg # of iterations =  1.0

     total cpu time spent up to now is     1047.7 secs

     total energy              =   -1411.31732993 Ry
     Harris-Foulkes estimate   =   -1411.31732995 Ry
     estimated scf accuracy    <       0.00000003 Ry

     iteration # 18     ecut=   100.00 Ry     beta=0.50
     Davidson diagonalization with overlap
     ethr =  1.26E-11,  avg # of iterations =  4.0

     total cpu time spent up to now is     1098.0 secs

     End of self-consistent calculation

          k = 0.0000 0.0000 0.0000 ( 67231 PWs)   bands (ev):

   -19.2572 -19.2243 -18.2124 -18.1997 -17.7352 -17.7192 -17.5962 -17.5150
   -17.3189 -17.2821 -17.1160 -17.0908 -17.0052 -16.9965 -16.9380 -16.8602
   -16.7420 -16.7236 -16.6577 -16.6359 -16.5702 -16.4914 -11.2714 -11.2102
   -11.0412 -10.9619 -10.7065 -10.6835 -10.3932 -10.3466  -9.0448  -8.9554
    -8.6791  -8.6089  -7.7366  -7.5995  -7.4056  -7.2839  -7.0769  -7.0009
    -6.6469  -6.5725  -6.4560  -6.3224  -5.7466  -5.7122  -5.5694  -5.4870
    -5.3462  -5.2160  -5.1387  -4.6776  -4.6615  -4.4921  -4.4582  -4.3629
    -4.2789  -4.1878  -4.1206  -3.8154  -3.7215  -3.6684  -3.6103  -3.4540
    -3.4224  -3.3325  -3.2698  -3.1891  -3.1456  -2.8981  -2.8881  -2.7614
    -2.6700  -2.5901  -2.4685  -2.4498  -2.3302  -2.3120  -2.1173  -2.0669
    -1.9308  -1.7911  -1.7008  -1.6940  -1.6465  -1.5908  -1.4693  -1.4286
    -1.3821  -1.3320  -1.1203  -1.0581  -0.9372  -0.7389  -0.6069  -0.5643
    -0.5418  -0.4062  -0.2722  -0.2005  -0.1893  -0.1557   0.0320   0.1124
     0.2043   0.2284   0.4254   0.5406   0.5799   0.6068   0.7057   0.8276
     0.9683   1.0358   1.1421   1.2585   1.3164   1.3713   1.5120   1.6517
     1.6928   1.7105   1.7874   1.9107   1.9518   1.9794   2.0140   2.1748
     2.3157   2.3853   2.4092   2.4675   2.6055   2.6721   2.8203   2.8575
     8.7484   8.8478   9.0383   9.2095   9.4299   9.5069   9.6438   9.7808
    10.0736  10.1777  10.2628  10.3017  10.3977  10.6220  10.6518  10.6633
    10.8055  11.1184  11.1670  11.2867  11.3684  11.4010  11.4468  11.6159
    11.6934  11.8362  11.9048

          k = 0.0000 0.0000 0.5400 ( 67196 PWs)   bands (ev):

   -19.2437 -19.2205 -18.1960 -18.1850 -17.7962 -17.6555 -17.5915 -17.4820
   -17.3670 -17.2910 -17.2468 -17.1334 -17.0129 -17.0078 -16.9644 -16.8307
   -16.7439 -16.6513 -16.6330 -16.5854 -16.5665 -16.4998 -11.2293 -11.1535
   -11.0353 -10.9665 -10.7090 -10.6936 -10.3709 -10.3467  -8.9405  -8.8691
    -8.7455  -8.7145  -7.7441  -7.6732  -7.5166  -7.3713  -7.1669  -7.0663
    -6.6101  -6.5073  -6.4638  -6.3074  -5.8048  -5.6602  -5.4018  -5.3091
    -5.1761  -5.0922  -4.9392  -4.7244  -4.6719  -4.5347  -4.4174  -4.3551
    -4.2896  -4.2378  -4.1926  -3.8271  -3.7616  -3.6660  -3.6335  -3.5832
    -3.4884  -3.4865  -3.4221  -3.3372  -3.1949  -2.9849  -2.9545  -2.8700
    -2.8075  -2.7023  -2.5389  -2.4041  -2.2533  -2.2137  -2.0857  -1.9753
    -1.9188  -1.8912  -1.7708  -1.6823  -1.6020  -1.4342  -1.3648  -1.3189
    -1.2780  -1.2251  -1.0292  -1.0127  -0.9001  -0.7939  -0.6621  -0.5917
    -0.5496  -0.4015  -0.3081  -0.1736  -0.1418  -0.1244   0.0050   0.1032
     0.1634   0.2694   0.4317   0.5014   0.5603   0.5971   0.7799   0.8104
     0.9789   1.0908   1.2493   1.2850   1.3466   1.4038   1.4898   1.5805
     1.6272   1.6917   1.7536   1.8297   1.9147   1.9609   2.0749   2.2884
     2.3681   2.4026   2.4852   2.5188   2.5587   2.6724   2.7390   2.8213
     8.7756   8.9501   9.0044   9.0961   9.4334   9.5479   9.7414   9.8555
    10.0302  10.1584  10.3360  10.3635  10.4643  10.5687  10.6435  10.8342
    10.8672  10.9981  11.0886  11.1885  11.3008  11.3821  11.4376  11.5659
    11.6652  11.7063  11.7607

          k = 0.0000-0.5776 0.0000 ( 67218 PWs)   bands (ev):

   -19.2380 -19.2380 -18.2231 -18.2231 -17.7270 -17.7270 -17.5378 -17.5378
   -17.2695 -17.2695 -17.1664 -17.1664 -16.9937 -16.9937 -16.8526 -16.8526
   -16.7500 -16.7500 -16.6528 -16.6528 -16.5322 -16.5322 -11.2460 -11.2460
   -11.0211 -11.0211 -10.6820 -10.6820 -10.3600 -10.3600  -8.9897  -8.9897
    -8.6495  -8.6495  -7.6574  -7.6574  -7.3057  -7.3057  -7.0734  -7.0734
    -6.6366  -6.6366  -6.4533  -6.4533  -5.7013  -5.7013  -5.4704  -5.4704
    -5.3348  -5.3348  -4.8977  -4.8977  -4.5936  -4.5936  -4.3695  -4.3695
    -4.2340  -4.2340  -3.9044  -3.9044  -3.7801  -3.7801  -3.5040  -3.5040
    -3.2809  -3.2809  -3.2440  -3.2440  -3.0216  -3.0216  -2.8983  -2.8983
    -2.6391  -2.6391  -2.5256  -2.5256  -2.3343  -2.3343  -2.0039  -2.0039
    -1.9067  -1.9067  -1.7894  -1.7894  -1.6418  -1.6418  -1.3531  -1.3531
    -1.2711  -1.2711  -1.0294  -1.0294  -0.8627  -0.8627  -0.7604  -0.7604
    -0.4756  -0.4756  -0.2184  -0.2184  -0.0311  -0.0311   0.1471   0.1471
     0.2018   0.2018   0.4762   0.4762   0.5626   0.5626   0.7594   0.7594
     0.9472   0.9472   1.1597   1.1597   1.3867   1.3867   1.6113   1.6113
     1.7005   1.7005   1.7527   1.7527   2.0000   2.0000   2.1979   2.1979
     2.2828   2.2828   2.4713   2.4713   2.5502   2.5502   2.8522   2.8522
     8.7799   8.7799   9.2765   9.2765   9.3569   9.3569   9.6758   9.6758
    10.2079  10.2079  10.3034  10.3034  10.5207  10.5207  10.7770  10.7770
    10.9488  10.9488  11.2004  11.2004  11.3511  11.3511  11.6222  11.6222
    11.7958  11.7958  11.9641

          k = 0.0000-0.5776 0.5400 ( 67300 PWs)   bands (ev):

   -19.2297 -19.2297 -18.2025 -18.2025 -17.7424 -17.7424 -17.5153 -17.5153
   -17.3345 -17.3345 -17.1833 -17.1833 -17.0319 -17.0319 -16.8572 -16.8572
   -16.7076 -16.7076 -16.6117 -16.6117 -16.5352 -16.5352 -11.1978 -11.1978
   -11.0227 -11.0227 -10.6903 -10.6903 -10.3421 -10.3421  -8.8974  -8.8974
    -8.7290  -8.7290  -7.6911  -7.6911  -7.4316  -7.4316  -7.1514  -7.1514
    -6.6248  -6.6248  -6.3798  -6.3798  -5.7347  -5.7347  -5.3500  -5.3500
    -5.0416  -5.0416  -4.8130  -4.8130  -4.6258  -4.6258  -4.3910  -4.3910
    -4.2682  -4.2682  -4.0450  -4.0450  -3.7345  -3.7345  -3.6151  -3.6151
    -3.4516  -3.4516  -3.2948  -3.2948  -3.2074  -3.2074  -2.8473  -2.8473
    -2.7280  -2.7280  -2.6093  -2.6093  -2.1982  -2.1982  -2.0931  -2.0931
    -1.7885  -1.7885  -1.6893  -1.6893  -1.5702  -1.5702  -1.3370  -1.3370
    -1.2014  -1.2014  -1.0513  -1.0513  -0.8634  -0.8634  -0.7099  -0.7099
    -0.5246  -0.5246  -0.2491  -0.2491  -0.0387  -0.0387   0.1165   0.1165
     0.2479   0.2479   0.4716   0.4716   0.6445   0.6445   0.8318   0.8318
     0.9165   0.9165   1.2248   1.2248   1.4029   1.4029   1.5188   1.5188
     1.6109   1.6109   1.8354   1.8354   1.9560   1.9560   2.2429   2.2429
     2.3245   2.3245   2.4872   2.4872   2.5652   2.5652   2.7924   2.7924
     8.8666   8.8666   9.2086   9.2086   9.4033   9.4033   9.7232   9.7232
    10.1736  10.1736  10.2679  10.2679  10.5893  10.5893  10.7562  10.7562
    11.0159  11.0159  11.1523  11.1523  11.3193  11.3193  11.5135  11.5135
    11.6839  11.6839  11.9367

          k =-0.5000 0.0000-0.1576 ( 67250 PWs)   bands (ev):

   -19.2404 -19.2401 -18.2208 -18.2062 -17.7464 -17.6850 -17.5923 -17.5344
   -17.3061 -17.1989 -17.1655 -17.1005 -17.0654 -16.9802 -16.9238 -16.8477
   -16.7537 -16.7198 -16.6985 -16.6438 -16.5560 -16.4619 -11.2587 -11.2278
   -11.0446 -10.9666 -10.6900 -10.6791 -10.4052 -10.3425  -9.0155  -8.9921
    -8.6519  -8.6351  -7.7089  -7.6124  -7.4478  -7.2160  -7.0576  -7.0363
    -6.7003  -6.5437  -6.4477  -6.3316  -5.8381  -5.6258  -5.5350  -5.4801
    -5.3176  -5.2531  -5.0575  -4.8159  -4.5528  -4.5056  -4.4597  -4.4203
    -4.3302  -4.2474  -4.0263  -3.7940  -3.7598  -3.6709  -3.5413  -3.5015
    -3.3930  -3.3478  -3.2064  -3.1444  -3.1325  -2.9479  -2.9073  -2.8036
    -2.7372  -2.6010  -2.4063  -2.3804  -2.3020  -2.2698  -2.2563  -2.1086
    -2.0678  -1.8819  -1.8555  -1.6625  -1.6250  -1.5056  -1.4493  -1.4479
    -1.2646  -1.1834  -1.0344  -0.9973  -0.8623  -0.8501  -0.6422  -0.6312
    -0.5237  -0.3963  -0.2693  -0.1772  -0.1256  -0.0392   0.0705   0.1088
     0.1654   0.2375   0.3764   0.4494   0.5842   0.5981   0.6994   0.7955
     0.9116   1.0636   1.1494   1.2698   1.3103   1.4099   1.5073   1.5295
     1.6391   1.7392   1.8151   1.8624   1.9072   2.0691   2.1002   2.2353
     2.2722   2.3504   2.4200   2.4391   2.6104   2.6871   2.7989   2.8558
     8.6778   8.8770   9.0382   9.3618   9.4924   9.5113   9.6939   9.7948
     9.8957  10.2102  10.2478  10.2843  10.3977  10.4324  10.6351  10.6555
    10.8370  11.0731  11.0845  11.2424  11.4174  11.4845  11.6884  11.6943
    11.8609  11.9312  11.9398

          k =-0.5000 0.0000 0.3824 ( 67268 PWs)   bands (ev):

   -19.2359 -19.2276 -18.2000 -18.1907 -17.7853 -17.6782 -17.6006 -17.4583
   -17.3263 -17.2828 -17.1817 -17.1284 -17.1239 -17.0611 -16.9370 -16.8254
   -16.7372 -16.6485 -16.6422 -16.5999 -16.5437 -16.4896 -11.2016 -11.1850
   -11.0279 -10.9753 -10.7015 -10.6929 -10.3831 -10.3324  -8.9391  -8.8793
    -8.7824  -8.6848  -7.7199  -7.6743  -7.5157  -7.3953  -7.1542  -7.0777
    -6.6039  -6.4935  -6.4429  -6.3233  -5.7956  -5.6802  -5.3923  -5.3515
    -5.1731  -5.0918  -4.9860  -4.7247  -4.6151  -4.5192  -4.4251  -4.3424
    -4.2688  -4.2277  -4.1400  -4.0139  -3.7235  -3.6641  -3.6084  -3.5584
    -3.5035  -3.4540  -3.3443  -3.3052  -3.2358  -3.0663  -2.9037  -2.8842
    -2.6972  -2.6663  -2.5876  -2.3930  -2.3544  -2.2708  -2.1129  -1.9869
    -1.9360  -1.8664  -1.7594  -1.6363  -1.5887  -1.5420  -1.4788  -1.2744
    -1.2396  -1.1519  -1.0468  -1.0373  -0.8898  -0.8046  -0.6675  -0.5917
    -0.5000  -0.4124  -0.3427  -0.2624  -0.0483  -0.0364   0.0060   0.1010
     0.2423   0.3041   0.3456   0.4934   0.5243   0.5992   0.7945   0.9399
     0.9978   1.0783   1.1690   1.2330   1.3150   1.4060   1.4958   1.5372
     1.6249   1.6581   1.8148   1.8325   1.9844   2.0215   2.0763   2.2065
     2.3051   2.4316   2.5212   2.5283   2.5436   2.6628   2.7301   2.8231
     8.7489   8.8839   9.0485   9.2924   9.3426   9.5431   9.6179   9.8801
    10.1264  10.1669  10.2855  10.3589  10.5101  10.5409  10.6165  10.7514
    10.8945  11.0219  11.0880  11.1683  11.2619  11.4442  11.4524  11.5718
    11.6278  11.7737  11.8893

          k =-0.5000-0.5776-0.1576 ( 67268 PWs)   bands (ev):

   -19.2371 -19.2371 -18.2328 -18.2328 -17.7104 -17.7104 -17.5444 -17.5444
   -17.2676 -17.2676 -17.1389 -17.1389 -17.0116 -17.0116 -16.8765 -16.8765
   -16.7479 -16.7479 -16.6658 -16.6658 -16.5102 -16.5102 -11.2428 -11.2428
   -11.0330 -11.0330 -10.6698 -10.6698 -10.3637 -10.3637  -8.9896  -8.9896
    -8.6495  -8.6495  -7.6527  -7.6527  -7.3135  -7.3135  -7.0630  -7.0630
    -6.6549  -6.6549  -6.4486  -6.4486  -5.6847  -5.6847  -5.5188  -5.5188
    -5.2878  -5.2878  -4.8621  -4.8621  -4.5960  -4.5960  -4.3750  -4.3750
    -4.2547  -4.2547  -3.9400  -3.9400  -3.7346  -3.7346  -3.5321  -3.5321
    -3.3281  -3.3281  -3.2081  -3.2081  -3.0073  -3.0073  -2.9707  -2.9707
    -2.6338  -2.6338  -2.4675  -2.4675  -2.2851  -2.2851  -2.0779  -2.0779
    -1.9723  -1.9723  -1.7312  -1.7312  -1.5647  -1.5647  -1.4631  -1.4631
    -1.2651  -1.2651  -1.0439  -1.0439  -0.8480  -0.8480  -0.6525  -0.6525
    -0.4569  -0.4569  -0.1691  -0.1691  -0.0909  -0.0909   0.1357   0.1357
     0.2486   0.2486   0.4217   0.4217   0.6052   0.6052   0.6977   0.6977
     0.9925   0.9925   1.1966   1.1966   1.3160   1.3160   1.4822   1.4822
     1.6711   1.6711   1.8668   1.8668   2.0355   2.0355   2.2193   2.2193
     2.2584   2.2584   2.4529   2.4529   2.5602   2.5602   2.8418   2.8418
     8.7849   8.7849   9.2893   9.2893   9.3903   9.3903   9.7096   9.7096
    10.0269  10.0269  10.4016  10.4016  10.5415  10.5415  10.8281  10.8281
    10.9174  10.9174  11.2032  11.2032  11.4557  11.4557  11.5513  11.5513
    11.8159  11.8159  11.9252

          k =-0.5000-0.5776 0.3824 ( 67266 PWs)   bands (ev):

   -19.2292 -19.2292 -18.2090 -18.2090 -17.7324 -17.7324 -17.5329 -17.5329
   -17.2952 -17.2952 -17.1655 -17.1655 -17.0790 -17.0790 -16.8664 -16.8664
   -16.7064 -16.7064 -16.6116 -16.6116 -16.5238 -16.5238 -11.1947 -11.1947
   -11.0276 -11.0276 -10.6854 -10.6854 -10.3442 -10.3442  -8.8913  -8.8913
    -8.7392  -8.7392  -7.6926  -7.6926  -7.4424  -7.4424  -7.1408  -7.1408
    -6.6079  -6.6079  -6.3847  -6.3847  -5.6912  -5.6912  -5.3986  -5.3986
    -5.0710  -5.0710  -4.8571  -4.8571  -4.6046  -4.6046  -4.3564  -4.3564
    -4.2615  -4.2615  -4.0148  -4.0148  -3.6971  -3.6971  -3.6417  -3.6417
    -3.4527  -3.4527  -3.3558  -3.3558  -3.1809  -3.1809  -2.8427  -2.8427
    -2.7300  -2.7300  -2.5036  -2.5036  -2.2472  -2.2472  -2.0675  -2.0675
    -1.8707  -1.8707  -1.7514  -1.7514  -1.5528  -1.5528  -1.4506  -1.4506
    -1.1396  -1.1396  -0.9937  -0.9937  -0.8659  -0.8659  -0.6759  -0.6759
    -0.5207  -0.5207  -0.2274  -0.2274  -0.0137  -0.0137   0.0784   0.0784
     0.2566   0.2566   0.4573   0.4573   0.6080   0.6080   0.8770   0.8770
     0.9831   0.9831   1.1856   1.1856   1.3410   1.3410   1.4580   1.4580
     1.6944   1.6944   1.8467   1.8467   1.9581   1.9581   2.2319   2.2319
     2.3577   2.3577   2.4672   2.4672   2.5684   2.5684   2.7789   2.7789
     8.8569   8.8569   9.1849   9.1849   9.4310   9.4310   9.7367   9.7367
    10.1833  10.1833  10.3245  10.3245  10.5928  10.5928  10.6611  10.6611
    11.0241  11.0241  11.1675  11.1675  11.3871  11.3871  11.4801  11.4801
    11.7050  11.7050  11.8773

     highest occupied, lowest unoccupied level (ev):     2.8575    8.6778

!    total energy              =   -1411.31732994 Ry
     Harris-Foulkes estimate   =   -1411.31732994 Ry
     estimated scf accuracy    <          3.8E-10 Ry

     total all-electron energy =     -5192.287207 Ry

     The total energy is the sum of the following terms:

     one-electron contribution =    -510.35101583 Ry
     hartree contribution      =     387.17421085 Ry
     xc contribution           =    -296.03744319 Ry
     ewald contribution        =    -622.73073998 Ry
     Dispersion Correction     =      -0.57683789 Ry
     one-center paw contrib.   =    -368.79550390 Ry

     convergence has been achieved in  18 iterations

     Forces acting on atoms (cartesian axes, Ry/au):

     atom    1 type  4   force =     0.00159601   -0.00114374    0.00078148
     atom    2 type  4   force =    -0.00159601   -0.00114374   -0.00078148
     atom    3 type  1   force =    -0.00153209   -0.00087372   -0.00144780
     atom    4 type  1   force =     0.00153209   -0.00087372    0.00144780
     atom    5 type  3   force =     0.00044146    0.00077092    0.00107361
     atom    6 type  3   force =    -0.00044146    0.00077092   -0.00107361
     atom    7 type  1   force =     0.00217382    0.00437498   -0.00310031
     atom    8 type  1   force =    -0.00217382    0.00437498    0.00310031
     atom    9 type  3   force =     0.00035540    0.00021769    0.00052503
     atom   10 type  3   force =    -0.00035540    0.00021769   -0.00052503
     atom   11 type  4   force =    -0.00329048    0.00234385    0.00110534
     atom   12 type  4   force =     0.00329048    0.00234385   -0.00110534
     atom   13 type  3   force =     0.00007616   -0.00260341    0.00023451
     atom   14 type  3   force =    -0.00007616   -0.00260341   -0.00023451
     atom   15 type  1   force =     0.00014032   -0.00335100    0.00315352
     atom   16 type  1   force =    -0.00014032   -0.00335100   -0.00315352
     atom   17 type  3   force =     0.00073180   -0.00030944   -0.00007005
     atom   18 type  3   force =    -0.00073180   -0.00030944    0.00007005
     atom   19 type  4   force =     0.00080134    0.00216030   -0.00078367
     atom   20 type  4   force =    -0.00080134    0.00216030    0.00078367
     atom   21 type  3   force =    -0.00102704   -0.00038890   -0.00102335
     atom   22 type  3   force =     0.00102704   -0.00038890    0.00102335
     atom   23 type  1   force =     0.00148325    0.00164322   -0.00241586
     atom   24 type  1   force =    -0.00148325    0.00164322    0.00241586
     atom   25 type  3   force =     0.00087743   -0.00013802   -0.00009271
     atom   26 type  3   force =    -0.00087743   -0.00013802    0.00009271
     atom   27 type  4   force =    -0.00083486   -0.00044835    0.00300688
     atom   28 type  4   force =     0.00083486   -0.00044835   -0.00300688
     atom   29 type  3   force =    -0.00020913   -0.00027249   -0.00038447
     atom   30 type  3   force =     0.00020913   -0.00027249    0.00038447
     atom   31 type  1   force =     0.00072138   -0.00174281    0.00177357
     atom   32 type  1   force =    -0.00072138   -0.00174281   -0.00177357
     atom   33 type  3   force =     0.00038689    0.00004397    0.00108720
     atom   34 type  3   force =    -0.00038689    0.00004397   -0.00108720
     atom   35 type  4   force =    -0.00286456    0.00175995   -0.00173916
     atom   36 type  4   force =     0.00286456    0.00175995    0.00173916
     atom   37 type  1   force =    -0.00133895    0.00026640    0.00029893
     atom   38 type  1   force =     0.00133895    0.00026640   -0.00029893
     atom   39 type  3   force =     0.00016482   -0.00077526    0.00020932
     atom   40 type  3   force =    -0.00016482   -0.00077526   -0.00020932
     atom   41 type  3   force =     0.00080219   -0.00019467    0.00015877
     atom   42 type  3   force =    -0.00080219   -0.00019467   -0.00015877
     atom   43 type  4   force =    -0.00051112    0.00087509   -0.00043123
     atom   44 type  4   force =     0.00051112    0.00087509    0.00043123
     atom   45 type  3   force =     0.00046378    0.00073126    0.00061114
     atom   46 type  3   force =    -0.00046378    0.00073126   -0.00061114
     atom   47 type  4   force =    -0.00045203   -0.00024395   -0.00177874
     atom   48 type  4   force =     0.00045203   -0.00024395    0.00177874
     atom   49 type  3   force =    -0.00005653    0.00106729   -0.00024606
     atom   50 type  3   force =     0.00005653    0.00106729    0.00024606
     atom   51 type  1   force =     0.00250170    0.00275357    0.00130624
     atom   52 type  1   force =    -0.00250170    0.00275357   -0.00130624
     atom   53 type  3   force =    -0.00082575   -0.00197938    0.00045667
     atom   54 type  3   force =     0.00082575   -0.00197938   -0.00045667
     atom   55 type  3   force =     0.00122361    0.00122556   -0.00168159
     atom   56 type  3   force =    -0.00122361    0.00122556    0.00168159
     atom   57 type  1   force =     0.00143779    0.00160823    0.00202592
     atom   58 type  1   force =    -0.00143779    0.00160823   -0.00202592
     atom   59 type  1   force =    -0.00008958   -0.00396607   -0.00490990
     atom   60 type  1   force =     0.00008958   -0.00396607    0.00490990
     atom   61 type  3   force =    -0.00020111   -0.00094236   -0.00008460
     atom   62 type  3   force =     0.00020111   -0.00094236    0.00008460
     atom   63 type  4   force =    -0.00195009    0.00128897    0.00015385
     atom   64 type  4   force =     0.00195009    0.00128897   -0.00015385
     atom   65 type  3   force =    -0.00033543    0.00013145    0.00036272
     atom   66 type  3   force =     0.00033543    0.00013145   -0.00036272
     atom   67 type  1   force =    -0.00382822    0.00160931    0.00325110
     atom   68 type  1   force =     0.00382822    0.00160931   -0.00325110
     atom   69 type  3   force =    -0.00011519   -0.00164818    0.00101665
     atom   70 type  3   force =     0.00011519   -0.00164818   -0.00101665
     atom   71 type  4   force =     0.00085510   -0.00042269   -0.00079829
     atom   72 type  4   force =    -0.00085510   -0.00042269    0.00079829
     atom   73 type  3   force =     0.00021515    0.00038396    0.00055822
     atom   74 type  3   force =    -0.00021515    0.00038396   -0.00055822
     atom   75 type  1   force =     0.00028902   -0.00147713    0.00073129
     atom   76 type  1   force =    -0.00028902   -0.00147713   -0.00073129
     atom   77 type  3   force =    -0.00020491   -0.00029816    0.00076573
     atom   78 type  3   force =     0.00020491   -0.00029816   -0.00076573
     atom   79 type  4   force =     0.00003233   -0.00129861    0.00099081
     atom   80 type  4   force =    -0.00003233   -0.00129861   -0.00099081
     atom   81 type  1   force =    -0.00267059   -0.00004107    0.00149887
     atom   82 type  1   force =     0.00267059   -0.00004107   -0.00149887
     atom   83 type  3   force =     0.00018052   -0.00073945    0.00124713
     atom   84 type  3   force =    -0.00018052   -0.00073945   -0.00124713
     atom   85 type  3   force =    -0.00080059   -0.00049318   -0.00194702
     atom   86 type  3   force =     0.00080059   -0.00049318    0.00194702
     atom   87 type  4   force =    -0.00014912    0.00032222    0.00006110
     atom   88 type  4   force =     0.00014912    0.00032222   -0.00006110
     atom   89 type  3   force =     0.00045428    0.00021382    0.00016069
     atom   90 type  3   force =    -0.00045428    0.00021382   -0.00016069

     Total force =     0.024175     Total SCF correction =     0.000038


     Computing stress (Cartesian axis) and pressure

          total   stress  (Ry/bohr**3)                   (kbar)     P=   35.46
   0.00025179   0.00000000   0.00002283         37.04      0.00      3.36
   0.00000000   0.00024464   0.00000000          0.00     35.99      0.00
   0.00002283   0.00000000   0.00022668          3.36      0.00     33.35


     Writing output data file scf.save
 
     init_run     :     27.13s CPU     28.52s WALL (       1 calls)
     electrons    :   1021.43s CPU   1068.93s WALL (       1 calls)
     forces       :     14.23s CPU     14.35s WALL (       1 calls)
     stress       :     45.70s CPU     45.83s WALL (       1 calls)

     Called by init_run:
     wfcinit      :     20.64s CPU     21.91s WALL (       1 calls)
     potinit      :      2.35s CPU      2.39s WALL (       1 calls)

     Called by electrons:
     c_bands      :    917.76s CPU    959.04s WALL (      18 calls)
     sum_band     :     93.05s CPU     98.34s WALL (      18 calls)
     v_of_rho     :      1.50s CPU      1.76s WALL (      19 calls)
     newd         :      3.39s CPU      4.03s WALL (      19 calls)
     PAW_pot      :      4.72s CPU      4.72s WALL (      19 calls)
     mix_rho      :      0.37s CPU      0.41s WALL (      18 calls)

     Called by c_bands:
     init_us_2    :      5.49s CPU      5.51s WALL (     312 calls)
     cegterg      :    898.72s CPU    939.85s WALL (     144 calls)

     Called by sum_band:
     sum_band:bec :      0.07s CPU      0.07s WALL (     144 calls)
     addusdens    :      3.47s CPU      4.14s WALL (      18 calls)

     Called by *egterg:
     h_psi        :    492.70s CPU    526.43s WALL (     647 calls)
     s_psi        :     95.98s CPU     96.02s WALL (     647 calls)
     g_psi        :      2.40s CPU      2.40s WALL (     495 calls)
     cdiaghg      :     65.39s CPU     65.40s WALL (     639 calls)

     Called by h_psi:
     h_psi:pot    :    489.08s CPU    522.77s WALL (     647 calls)
     h_psi:calbec :     96.55s CPU     96.83s WALL (     647 calls)
     vloc_psi     :    296.49s CPU    329.88s WALL (     647 calls)
     add_vuspsi   :     96.04s CPU     96.06s WALL (     647 calls)

     General routines
     calbec       :    139.35s CPU    139.77s WALL (     831 calls)
     fft          :      1.33s CPU      1.77s WALL (     271 calls)
     fftw         :    318.73s CPU    355.36s WALL (  159286 calls)
 
     Parallel routines
     fft_scatter  :     79.80s CPU    109.73s WALL (  159557 calls)
 
     PWSCF        : 18m35.26s CPU    20m 7.10s WALL

 
   This run was terminated on:   8:47: 2  22Dec2017            

=------------------------------------------------------------------------------=
   JOB DONE.
=------------------------------------------------------------------------------=
