
     Program PWSCF v.6.1 (svn rev. 13369) starts on 12Dec2017 at  3:22:26 

     This program is part of the open-source Quantum ESPRESSO suite
     for quantum simulation of materials; please cite
         "P. Giannozzi et al., J. Phys.:Condens. Matter 21 395502 (2009);
          URL http://www.quantum-espresso.org", 
     in publications or presentations arising from this work. More details at
     http://www.quantum-espresso.org/quote

     Parallel version (MPI), running on     8 processors
     R & G space division:  proc/nbgrp/npool/nimage =       8
     Waiting for input...
     Reading input from standard input

     Current dimensions of program PWSCF are:
     Max number of different atomic species (ntypx) = 10
     Max number of k-points (npk) =  40000
     Max angular momentum in pseudopotentials (lmaxx) =  3
               file C.pbe-n-kjpaw_psl.0.1.UPF: wavefunction(s)  2P renormalized
               file N.pbe-n-kjpaw_psl.0.1.UPF: wavefunction(s)  2P renormalized
               file H.pbe-kjpaw_psl.0.1.UPF: wavefunction(s)  1S renormalized
               file O.pbe-n-kjpaw_psl.0.1.UPF: wavefunction(s)  2P renormalized

     -------------------------------------
     Parameters for Dispersion Correction:
     -------------------------------------
       atom      VdW radius       C_6     

        C          2.744         60.710
        N          2.640         42.670
        H          1.892          4.857
        O          2.536         24.284

     Subspace diagonalization in iterative solution of the eigenvalue problem:
     a serial algorithm will be used

 
     Parallelization info
     --------------------
     sticks:   dense  smooth     PW     G-vecs:    dense   smooth      PW
     Min        2344    2344    627                95429    95429   13246
     Max        2346    2346    629                95430    95430   13247
     Sum       18759   18759   5025               763439   763439  105971
 


     bravais-lattice index     =            0
     lattice parameter (alat)  =      15.2463  a.u.
     unit-cell volume          =    5650.8411 (a.u.)^3
     number of atoms/cell      =           96
     number of atomic types    =            4
     number of electrons       =       312.00
     number of Kohn-Sham states=          187
     kinetic-energy cutoff     =     100.0000  Ry
     charge density cutoff     =     400.0000  Ry
     convergence threshold     =      1.0E-08
     mixing beta               =       0.5000
     number of iterations used =            8  plain     mixing
     Exchange-correlation      =  SLA  PW   PBX  PBC ( 1  4  3  4 0 0)

     celldm(1)=  15.246310  celldm(2)=   0.000000  celldm(3)=   0.000000
     celldm(4)=   0.000000  celldm(5)=   0.000000  celldm(6)=   0.000000

     crystal axes: (cart. coord. in units of alat)
               a(1) = (   1.000000   0.000000   0.000000 )  
               a(2) = (   0.000000   2.534829   0.000000 )  
               a(3) = (   0.000000   0.000000   0.629028 )  

     reciprocal axes: (cart. coord. in units 2 pi/alat)
               b(1) = (  1.000000  0.000000  0.000000 )  
               b(2) = (  0.000000  0.394504  0.000000 )  
               b(3) = (  0.000000  0.000000  1.589754 )  


     PseudoPot. # 1 for  C read from file:
     /scratch/ahofstet/pseudo/C.pbe-n-kjpaw_psl.0.1.UPF
     MD5 check sum: 430fe95172b1e11ef3f8ed03bac87931
     Pseudo is Projector augmented-wave + core cor, Zval =  4.0
     Generated using "atomic" code by A. Dal Corso  v.5.0.99 svn rev. 10869
     Shape of augmentation charge: BESSEL
     Using radial grid of 1073 points,  4 beta functions with: 
                l(1) =   0
                l(2) =   0
                l(3) =   1
                l(4) =   1
     Q(r) pseudized with 0 coefficients 


     PseudoPot. # 2 for  N read from file:
     /scratch/ahofstet/pseudo/N.pbe-n-kjpaw_psl.0.1.UPF
     MD5 check sum: f73187c8b701007e77325f868c9291d7
     Pseudo is Projector augmented-wave + core cor, Zval =  5.0
     Generated using "atomic" code by A. Dal Corso  v.5.0.99 svn rev. 10869
     Shape of augmentation charge: PSQ
     Using radial grid of 1085 points,  4 beta functions with: 
                l(1) =   0
                l(2) =   0
                l(3) =   1
                l(4) =   1
     Q(r) pseudized with 0 coefficients 


     PseudoPot. # 3 for  H read from file:
     /scratch/ahofstet/pseudo/H.pbe-kjpaw_psl.0.1.UPF
     MD5 check sum: 94e484f906d9e9773b2f6e52662335b2
     Pseudo is Projector augmented-wave, Zval =  1.0
     Generated using "atomic" code by A. Dal Corso  v.5.0.99 svn rev. 10869
     Shape of augmentation charge: PSQ
     Using radial grid of  929 points,  2 beta functions with: 
                l(1) =   0
                l(2) =   0
     Q(r) pseudized with 0 coefficients 


     PseudoPot. # 4 for  O read from file:
     /scratch/ahofstet/pseudo/O.pbe-n-kjpaw_psl.0.1.UPF
     MD5 check sum: 3f94a2996a3169367d6eb21d9b593f20
     Pseudo is Projector augmented-wave + core cor, Zval =  6.0
     Generated using "atomic" code by A. Dal Corso  v.5.0.99 svn rev. 10869
     Shape of augmentation charge: BESSEL
     Using radial grid of 1095 points,  4 beta functions with: 
                l(1) =   0
                l(2) =   0
                l(3) =   1
                l(4) =   1
     Q(r) pseudized with 0 coefficients 


     atomic species   valence    mass     pseudopotential
        C              4.00    12.01070      C( 1.00)
        N              5.00    14.00670      N( 1.00)
        H              1.00     1.00794      H( 1.00)
        O              6.00    15.99940      O( 1.00)

      2 Sym. Ops. (no inversion) found ( 1 have fractional translation)



   Cartesian axes

     site n.     atom                  positions (alat units)
         1           O   tau(   1) = (   0.7959123   1.0292726   0.5890628  )
         2           O   tau(   2) = (   0.2957429   0.2381435   0.0399585  )
         3           O   tau(   3) = (   0.2040877   2.2966871   0.3544796  )
         4           O   tau(   4) = (   0.7042571   1.5055580   0.2745556  )
         5           O   tau(   5) = (   0.7258275   0.7162349   0.0974081  )
         6           O   tau(   6) = (   0.2256907   0.5512433   0.5316389  )
         7           O   tau(   7) = (   0.2741725   1.9836493   0.2171061  )
         8           O   tau(   8) = (   0.7743093   1.8186577   0.4119035  )
         9           O   tau(   9) = (   0.0387735   0.6061542   0.1658816  )
        10           O   tau(  10) = (   0.5387112   0.6612318   0.4631940  )
        11           O   tau(  11) = (   0.9612265   1.8735687   0.1486325  )
        12           O   tau(  12) = (   0.4612888   1.9286463   0.4803484  )
        13           O   tau(  13) = (   0.3561959   0.9028873   0.6854332  )
        14           O   tau(  14) = (   0.8561221   0.3644701  -0.0565414  )
        15           O   tau(  15) = (   0.6438041   2.1703018   0.2581092  )
        16           O   tau(  16) = (   0.1438779   1.6318846   0.3710556  )
        17           N   tau(  17) = (   0.0809433   1.0432188   0.2655498  )
        18           N   tau(  18) = (   0.5807063   0.2241811   0.3634618  )
        19           N   tau(  19) = (   0.9190567   2.3106332   0.0489644  )
        20           N   tau(  20) = (   0.4192937   1.4915955   0.5800806  )
        21           N   tau(  21) = (   0.1711202   1.1618366   0.3405545  )
        22           N   tau(  22) = (   0.6708841   0.1055315   0.2885046  )
        23           N   tau(  23) = (   0.8288798   2.4292511  -0.0260404  )
        24           N   tau(  24) = (   0.3291159   1.3729459   0.6550378  )
        25           N   tau(  25) = (   0.0839026   1.2967955   0.3290835  )
        26           N   tau(  26) = (   0.5836443   2.5054182   0.2999753  )
        27           N   tau(  27) = (   0.9160974   0.0293811  -0.0145694  )
        28           N   tau(  28) = (   0.4163557   1.2380037   0.6435670  )
        29           N   tau(  29) = (   0.9394652   1.2694572   0.2491685  )
        30           N   tau(  30) = (   0.4391896  -0.0020315   0.3798464  )
        31           N   tau(  31) = (   0.0605348   2.5368716   0.0653456  )
        32           N   tau(  32) = (   0.5608104   1.2653830   0.5636960  )
        33           C   tau(  33) = (   0.9377121   1.1094015   0.2112983  )
        34           C   tau(  34) = (   0.4374384   0.1580335   0.4176858  )
        35           C   tau(  35) = (   0.0622879   2.3768160   0.1032158  )
        36           C   tau(  36) = (   0.5625616   1.4254480   0.5258566  )
        37           C   tau(  37) = (   0.8013179   1.0082320   0.1352886  )
        38           C   tau(  38) = (   0.3010840   0.2592240   0.4937302  )
        39           C   tau(  39) = (   0.1986821   2.2756465   0.1792256  )
        40           C   tau(  40) = (   0.6989160   1.5266385   0.4498122  )
        41           C   tau(  41) = (   0.8339373   0.8246807   0.1780992  )
        42           C   tau(  42) = (   0.3337450   0.4427757   0.4509392  )
        43           C   tau(  43) = (   0.1660627   2.0920951   0.1364149  )
        44           C   tau(  44) = (   0.6662550   1.7101902   0.4926032  )
        45           C   tau(  45) = (   1.0153184   0.7784578   0.1415729  )
        46           C   tau(  46) = (   0.5151560   0.4889447   0.4874493  )
        47           C   tau(  47) = (  -0.0153184   2.0458722   0.1729412  )
        48           C   tau(  48) = (   0.4848440   1.7563592   0.4560931  )
        49           C   tau(  49) = (   0.1298438   0.8673389   0.2610940  )
        50           C   tau(  50) = (   0.6296554   0.4000445   0.3679011  )
        51           C   tau(  51) = (   0.8701562   2.1347534   0.0534202  )
        52           C   tau(  52) = (   0.3703446   1.6674590   0.5756413  )
        53           C   tau(  53) = (   0.3141803   0.8496031   0.2195054  )
        54           C   tau(  54) = (   0.8140162   0.4177896   0.4094128  )
        55           C   tau(  55) = (   0.6858197   2.1170176   0.0950087  )
        56           C   tau(  56) = (   0.1859838   1.6852041   0.5341296  )
        57           H   tau(  57) = (   0.6829059   1.0476792   0.1910261  )
        58           H   tau(  58) = (   0.1826411   0.2198115   0.4380338  )
        59           H   tau(  59) = (   0.3170941   2.3150937   0.1234880  )
        60           H   tau(  60) = (   0.8173589   1.4872260   0.5055086  )
        61           H   tau(  61) = (   0.8121369   0.8081678   0.3131687  )
        62           H   tau(  62) = (   0.3119218   0.4593027   0.3158728  )
        63           H   tau(  63) = (   0.1878631   2.0755822   0.0013454  )
        64           H   tau(  64) = (   0.6880782   1.7267172   0.6276696  )
        65           H   tau(  65) = (   0.0489444   0.8156936   0.0109214  )
        66           H   tau(  66) = (   0.5487787   0.4516449   0.6180847  )
        67           H   tau(  67) = (   0.9510556   2.0831081   0.3035927  )
        68           H   tau(  68) = (   0.4512213   1.7190594   0.3254577  )
        69           H   tau(  69) = (   0.1078183   0.8158083   0.3881272  )
        70           H   tau(  70) = (   0.6076068   0.4515676   0.2408645  )
        71           H   tau(  71) = (   0.8921817   2.0832227   0.5554152  )
        72           H   tau(  72) = (   0.3923932   1.7189821   0.0736496  )
        73           H   tau(  73) = (   0.3667140   1.0255320   0.6816096  )
        74           H   tau(  74) = (   0.8665614   0.2418459  -0.0527073  )
        75           H   tau(  75) = (   0.6332860   2.2929465   0.2619328  )
        76           H   tau(  76) = (   0.1334386   1.5092604   0.3672215  )
        77           H   tau(  77) = (   0.7080027   1.1143847   0.5669796  )
        78           H   tau(  78) = (   0.2078138   0.1530652   0.0620579  )
        79           H   tau(  79) = (   0.2919973   2.3817992   0.3765628  )
        80           H   tau(  80) = (   0.7921862   1.4204797   0.2524562  )
        81           H   tau(  81) = (   0.7065437   0.7503140  -0.0183887  )
        82           H   tau(  82) = (   0.2064061   0.5171820   0.6474632  )
        83           H   tau(  83) = (   0.2934563   2.0177285   0.3329029  )
        84           H   tau(  84) = (   0.7935939   1.7845965   0.2960792  )
        85           H   tau(  85) = (   0.9560122   0.5473292   0.0979722  )
        86           H   tau(  86) = (   0.4560179   0.7201235   0.5311584  )
        87           H   tau(  87) = (   0.0439878   1.8147437   0.2165419  )
        88           H   tau(  88) = (   0.5439821   1.9875380   0.4123840  )
        89           H   tau(  89) = (   0.3453927   0.7180351   0.2292620  )
        90           H   tau(  90) = (   0.8452052   0.5493379   0.3996494  )
        91           H   tau(  91) = (   0.6546073   1.9854496   0.0852521  )
        92           H   tau(  92) = (   0.1547948   1.8167524   0.5438930  )
        93           H   tau(  93) = (   0.3864783   0.9157983   0.3154666  )
        94           H   tau(  94) = (   0.8862632   0.3515818   0.3134003  )
        95           H   tau(  95) = (   0.6135217   2.1832127  -0.0009524  )
        96           H   tau(  96) = (   0.1137368   1.6189963   0.6301421  )

     number of k points=     7
                       cart. coord. in units 2pi/alat
        k(    1) = (   0.0000000   0.0000000   0.0000000), wk =   0.1666667
        k(    2) = (   0.0000000   0.0000000   0.3974384), wk =   0.3333333
        k(    3) = (   0.0000000   0.0000000  -0.7948768), wk =   0.1666667
        k(    4) = (   0.3333333   0.0000000   0.0000000), wk =   0.3333333
        k(    5) = (   0.3333333   0.0000000   0.3974384), wk =   0.3333333
        k(    6) = (   0.3333333   0.0000000  -0.7948768), wk =   0.3333333
        k(    7) = (  -0.3333333   0.0000000   0.3974384), wk =   0.3333333

     Dense  grid:   763439 G-vectors     FFT dimensions: ( 100, 250,  64)

     Estimated max dynamical RAM per process >     715.57MB

     Estimated total allocated dynamical RAM >    5724.56MB

     Check: negative/imaginary core charge=   -0.000002    0.000000

     Initial potential from superposition of free atoms

     starting charge  311.99848, renormalised to  312.00000
     Starting wfc are  264 randomized atomic wfcs
     Checking if some PAW data can be deallocated... 

     total cpu time spent up to now is       33.4 secs

     per-process dynamical memory:   491.1 Mb

     Self-consistent Calculation

     iteration #  1     ecut=   100.00 Ry     beta=0.50
     Davidson diagonalization with overlap
     ethr =  1.00E-02,  avg # of iterations =  3.1

     total cpu time spent up to now is      125.9 secs

     total energy              =   -1606.51542116 Ry
     Harris-Foulkes estimate   =   -1610.38717102 Ry
     estimated scf accuracy    <       7.66453814 Ry

     iteration #  2     ecut=   100.00 Ry     beta=0.50
     Davidson diagonalization with overlap
     ethr =  2.46E-03,  avg # of iterations =  2.3

     total cpu time spent up to now is      184.4 secs

     total energy              =   -1607.57679874 Ry
     Harris-Foulkes estimate   =   -1608.00942382 Ry
     estimated scf accuracy    <       1.03024495 Ry

     iteration #  3     ecut=   100.00 Ry     beta=0.50
     Davidson diagonalization with overlap
     ethr =  3.30E-04,  avg # of iterations =  8.1

     total cpu time spent up to now is      275.5 secs

     total energy              =   -1607.80521813 Ry
     Harris-Foulkes estimate   =   -1607.87235230 Ry
     estimated scf accuracy    <       0.19839944 Ry

     iteration #  4     ecut=   100.00 Ry     beta=0.50
     Davidson diagonalization with overlap
     ethr =  6.36E-05,  avg # of iterations =  4.9

     total cpu time spent up to now is      332.0 secs

     total energy              =   -1607.81942511 Ry
     Harris-Foulkes estimate   =   -1607.82776129 Ry
     estimated scf accuracy    <       0.02747011 Ry

     iteration #  5     ecut=   100.00 Ry     beta=0.50
     Davidson diagonalization with overlap
     ethr =  8.80E-06,  avg # of iterations =  8.7

     total cpu time spent up to now is      446.3 secs

     total energy              =   -1607.83042601 Ry
     Harris-Foulkes estimate   =   -1607.83730199 Ry
     estimated scf accuracy    <       0.01906520 Ry

     iteration #  6     ecut=   100.00 Ry     beta=0.50
     Davidson diagonalization with overlap
     ethr =  6.11E-06,  avg # of iterations =  2.0

     total cpu time spent up to now is      495.7 secs

     total energy              =   -1607.82967789 Ry
     Harris-Foulkes estimate   =   -1607.83224952 Ry
     estimated scf accuracy    <       0.00392883 Ry

     iteration #  7     ecut=   100.00 Ry     beta=0.50
     Davidson diagonalization with overlap
     ethr =  1.26E-06,  avg # of iterations =  6.7

     total cpu time spent up to now is      600.4 secs

     total energy              =   -1607.83227564 Ry
     Harris-Foulkes estimate   =   -1607.83377444 Ry
     estimated scf accuracy    <       0.00445043 Ry

     iteration #  8     ecut=   100.00 Ry     beta=0.50
     Davidson diagonalization with overlap
     ethr =  1.26E-06,  avg # of iterations =  1.3

     total cpu time spent up to now is      648.5 secs

     total energy              =   -1607.83178916 Ry
     Harris-Foulkes estimate   =   -1607.83246552 Ry
     estimated scf accuracy    <       0.00149414 Ry

     iteration #  9     ecut=   100.00 Ry     beta=0.50
     Davidson diagonalization with overlap
     ethr =  4.79E-07,  avg # of iterations =  3.1

     total cpu time spent up to now is      728.3 secs

     total energy              =   -1607.83250863 Ry
     Harris-Foulkes estimate   =   -1607.83253111 Ry
     estimated scf accuracy    <       0.00015267 Ry

     iteration # 10     ecut=   100.00 Ry     beta=0.50
     Davidson diagonalization with overlap
     ethr =  4.89E-08,  avg # of iterations =  1.0

     total cpu time spent up to now is      776.2 secs

     total energy              =   -1607.83247039 Ry
     Harris-Foulkes estimate   =   -1607.83251449 Ry
     estimated scf accuracy    <       0.00010141 Ry

     iteration # 11     ecut=   100.00 Ry     beta=0.50
     Davidson diagonalization with overlap
     ethr =  3.25E-08,  avg # of iterations =  3.0

     total cpu time spent up to now is      842.9 secs

     total energy              =   -1607.83249206 Ry
     Harris-Foulkes estimate   =   -1607.83249307 Ry
     estimated scf accuracy    <       0.00000260 Ry

     iteration # 12     ecut=   100.00 Ry     beta=0.50
     Davidson diagonalization with overlap
     ethr =  8.35E-10,  avg # of iterations =  3.6

     total cpu time spent up to now is      927.4 secs

     total energy              =   -1607.83249299 Ry
     Harris-Foulkes estimate   =   -1607.83249324 Ry
     estimated scf accuracy    <       0.00000058 Ry

     iteration # 13     ecut=   100.00 Ry     beta=0.50
     Davidson diagonalization with overlap
     ethr =  1.85E-10,  avg # of iterations =  3.0

     total cpu time spent up to now is      983.6 secs

     total energy              =   -1607.83249308 Ry
     Harris-Foulkes estimate   =   -1607.83249311 Ry
     estimated scf accuracy    <       0.00000007 Ry

     iteration # 14     ecut=   100.00 Ry     beta=0.50
     Davidson diagonalization with overlap
     ethr =  2.08E-11,  avg # of iterations =  4.0

     total cpu time spent up to now is     1075.1 secs

     total energy              =   -1607.83249311 Ry
     Harris-Foulkes estimate   =   -1607.83249314 Ry
     estimated scf accuracy    <       0.00000006 Ry

     iteration # 15     ecut=   100.00 Ry     beta=0.50
     Davidson diagonalization with overlap
     ethr =  1.80E-11,  avg # of iterations =  1.1

     total cpu time spent up to now is     1123.0 secs

     End of self-consistent calculation

          k = 0.0000 0.0000 0.0000 ( 95421 PWs)   bands (ev):

   -22.0947 -22.0946 -22.0552 -22.0551 -19.2242 -19.2160 -18.9672 -18.9599
   -18.6076 -18.5930 -18.5338 -18.5059 -18.2182 -18.1781 -18.1780 -18.1370
   -18.1288 -18.1083 -17.9348 -17.9263 -17.2906 -17.2791 -17.1923 -17.1806
   -15.6885 -15.6848 -15.6677 -15.6660 -12.9527 -12.9363 -12.8738 -12.8453
   -12.1583 -12.1314 -12.0610 -12.0298 -10.1797 -10.1769 -10.1023 -10.0947
    -9.7242  -9.6850  -9.6464  -9.6034  -9.2883  -9.2817  -9.2618  -9.2514
    -8.6084  -8.5798  -8.5332  -8.5221  -7.5935  -7.5846  -7.5530  -7.5454
    -6.6754  -6.6523  -6.6139  -6.5937  -6.1623  -6.1583  -5.9490  -5.9445
    -5.9259  -5.8842  -5.8830  -5.8195  -5.5862  -5.5517  -5.5158  -5.4427
    -5.2757  -5.2349  -5.2005  -5.1641  -5.1322  -5.0704  -5.0124  -4.9290
    -4.6598  -4.6400  -4.6202  -4.6182  -4.3350  -4.2472  -4.1988  -4.1578
    -3.8591  -3.8462  -3.4713  -3.4164  -3.3486  -3.3091  -3.3030  -3.2856
    -3.1333  -2.9953  -2.8806  -2.8342  -2.7574  -2.7487  -2.7146  -2.6730
    -2.4394  -2.3797  -2.3572  -2.3284  -1.9273  -1.9080  -1.8573  -1.8504
    -1.5693  -1.4696  -1.3994  -1.2798  -1.2772  -1.2580  -1.2126  -1.1611
    -1.1007  -1.0778  -1.0564  -1.0138  -0.9567  -0.8510  -0.8067  -0.7590
    -0.6860  -0.6177  -0.5106  -0.4904  -0.4898  -0.4817  -0.4203  -0.3991
    -0.1450  -0.1410  -0.1248  -0.1041   0.1428   0.1818   0.2151   0.2416
     0.4013   0.4115   0.4320   0.4716   0.6865   0.7138   0.7807   0.7991
     1.1573   1.1644   1.1687   1.1826   4.9968   4.9981   5.2519   5.2594
     5.6912   5.6930   5.7207   5.7480   7.0706   7.1886   7.3119   7.7659
     8.0033   8.1413   8.2369   8.3085   8.3462   8.5040   8.6006   8.7166
     8.7729   8.8573   8.9749   9.0367   9.1952   9.2879   9.2928   9.3758
     9.4648   9.6513   9.7163

          k = 0.0000 0.0000 0.3974 ( 95411 PWs)   bands (ev):

   -22.0877 -22.0876 -22.0597 -22.0597 -19.2047 -19.1988 -18.9725 -18.9670
   -18.6009 -18.5899 -18.5241 -18.5047 -18.2033 -18.1725 -18.1672 -18.1327
   -18.1302 -18.1160 -17.9464 -17.9401 -17.2778 -17.2642 -17.2066 -17.1954
   -15.6948 -15.6907 -15.6800 -15.6771 -12.9586 -12.8993 -12.8937 -12.8323
   -12.1701 -12.1444 -12.1031 -12.0736 -10.2011 -10.1907 -10.1517 -10.1376
    -9.7315  -9.7049  -9.6438  -9.6225  -9.3016  -9.2859  -9.2785  -9.2646
    -8.6096  -8.5997  -8.5149  -8.4898  -7.6175  -7.6167  -7.5803  -7.5509
    -6.7486  -6.7474  -6.6551  -6.6351  -6.1880  -6.1416  -6.0516  -5.9981
    -5.9137  -5.8640  -5.8168  -5.7924  -5.5418  -5.5402  -5.5169  -5.4330
    -5.3461  -5.2614  -5.1966  -5.1473  -5.1049  -5.0956  -4.9938  -4.9498
    -4.6370  -4.6053  -4.5701  -4.5514  -4.2832  -4.2046  -4.1884  -4.1325
    -3.8256  -3.7456  -3.5411  -3.4315  -3.4091  -3.3403  -3.2944  -3.2437
    -3.0763  -2.9094  -2.8394  -2.8375  -2.8018  -2.6935  -2.6404  -2.6065
    -2.4347  -2.3797  -2.3297  -2.3269  -1.9093  -1.8842  -1.8653  -1.8551
    -1.4926  -1.4701  -1.2797  -1.2480  -1.2436  -1.2230  -1.1756  -1.1574
    -1.0851  -1.0492  -0.9847  -0.9388  -0.8701  -0.7846  -0.7552  -0.7353
    -0.6812  -0.6092  -0.5954  -0.5726  -0.4384  -0.3907  -0.3566  -0.3214
    -0.1375  -0.1073  -0.0805  -0.0684   0.1431   0.1490   0.3065   0.3159
     0.4126   0.4561   0.4941   0.5242   0.7355   0.7542   0.8060   0.8179
     1.0979   1.1041   1.1515   1.1758   5.0507   5.0562   5.2077   5.2219
     5.6604   5.6879   5.6943   5.7089   7.0395   7.1920   7.4027   7.6660
     7.8744   7.9559   8.2318   8.2653   8.4366   8.4543   8.6495   8.7171
     8.7616   8.8682   8.8807   9.1209   9.1821   9.2065   9.2548   9.3276
     9.4741   9.5045   9.6747

          k = 0.0000 0.0000-0.7949 ( 95346 PWs)   bands (ev):

   -22.0724 -22.0724 -22.0724 -22.0723 -19.1813 -19.1813 -18.9782 -18.9782
   -18.5902 -18.5901 -18.5091 -18.5090 -18.1769 -18.1768 -18.1441 -18.1435
   -18.1262 -18.1258 -17.9571 -17.9571 -17.2428 -17.2427 -17.2300 -17.2299
   -15.6967 -15.6966 -15.6926 -15.6925 -12.9351 -12.9351 -12.8446 -12.8445
   -12.1631 -12.1630 -12.1372 -12.1371 -10.2108 -10.2107 -10.1925 -10.1924
    -9.7318  -9.7317  -9.6393  -9.6391  -9.2984  -9.2982  -9.2905  -9.2905
    -8.6131  -8.6131  -8.4806  -8.4806  -7.6547  -7.6546  -7.5831  -7.5831
    -6.8228  -6.8228  -6.6905  -6.6905  -6.1388  -6.1387  -6.0841  -6.0840
    -5.8550  -5.8549  -5.8069  -5.8067  -5.5367  -5.5364  -5.4524  -5.4523
    -5.3348  -5.3346  -5.1791  -5.1787  -5.0842  -5.0840  -4.9875  -4.9871
    -4.5733  -4.5731  -4.5320  -4.5318  -4.1819  -4.1819  -4.1511  -4.1509
    -3.6613  -3.6608  -3.5508  -3.5504  -3.4405  -3.4402  -3.3279  -3.3276
    -2.9542  -2.9534  -2.8447  -2.8442  -2.6519  -2.6516  -2.5613  -2.5612
    -2.3717  -2.3717  -2.2796  -2.2796  -1.8747  -1.8741  -1.8640  -1.8636
    -1.4680  -1.4679  -1.2667  -1.2666  -1.2039  -1.2033  -1.0878  -1.0876
    -1.0375  -1.0373  -0.8630  -0.8629  -0.7868  -0.7867  -0.7522  -0.7519
    -0.6305  -0.6305  -0.5994  -0.5992  -0.3302  -0.3300  -0.3146  -0.3142
    -0.0794  -0.0794  -0.0578  -0.0575   0.1850   0.1851   0.3442   0.3442
     0.4870   0.4871   0.5525   0.5525   0.8238   0.8239   0.8507   0.8508
     1.0369   1.0372   1.1448   1.1450   5.1179   5.1181   5.1355   5.1357
     5.6550   5.6553   5.6616   5.6619   7.1665   7.1666   7.4806   7.4807
     7.9530   7.9532   8.0514   8.0517   8.2727   8.2727   8.5547   8.5549
     8.8902   8.8907   8.9118   8.9127   9.0641   9.0642   9.2231   9.2236
     9.4976   9.4977   9.5521

          k = 0.3333 0.0000 0.0000 ( 95400 PWs)   bands (ev):

   -22.0912 -22.0911 -22.0588 -22.0588 -19.1720 -19.1653 -19.0472 -19.0423
   -18.5818 -18.5605 -18.5454 -18.5217 -18.1794 -18.1777 -18.1555 -18.1228
   -18.1087 -18.0793 -17.9853 -17.9803 -17.2648 -17.2599 -17.2073 -17.2008
   -15.7327 -15.7313 -15.6222 -15.6209 -12.9429 -12.9349 -12.8690 -12.8546
   -12.1499 -12.1357 -12.0602 -12.0453 -10.2038 -10.2022 -10.0650 -10.0598
    -9.7314  -9.6936  -9.6389  -9.5990  -9.3345  -9.3204  -9.2336  -9.2215
    -8.5837  -8.5437  -8.5367  -8.5257  -7.5936  -7.5662  -7.5539  -7.5412
    -6.6827  -6.6669  -6.6118  -6.5759  -6.3469  -6.3350  -5.9585  -5.9054
    -5.9046  -5.8526  -5.7903  -5.7672  -5.6350  -5.5697  -5.4413  -5.4104
    -5.2985  -5.2824  -5.2344  -5.1929  -5.1101  -5.0090  -5.0014  -4.9547
    -4.6784  -4.6213  -4.6056  -4.5923  -4.3119  -4.3041  -4.1634  -4.1437
    -3.8733  -3.6972  -3.6435  -3.5317  -3.3370  -3.3072  -3.2356  -3.2174
    -3.0321  -2.9561  -2.8880  -2.8256  -2.7933  -2.7593  -2.7102  -2.7033
    -2.4796  -2.4537  -2.3838  -2.3717  -1.8715  -1.8470  -1.6835  -1.6805
    -1.5485  -1.4786  -1.3553  -1.2729  -1.2704  -1.2281  -1.2066  -1.1639
    -1.1594  -1.1088  -1.0203  -0.9708  -0.8728  -0.8687  -0.8548  -0.7711
    -0.7395  -0.7305  -0.6188  -0.5923  -0.5056  -0.4904  -0.3447  -0.3327
    -0.1832  -0.1319  -0.1078  -0.0780   0.1101   0.1403   0.1528   0.1806
     0.3838   0.3950   0.4061   0.4351   0.7453   0.7606   0.7914   0.8114
     1.1420   1.1496   1.1632   1.1786   4.9751   4.9757   5.2260   5.2320
     5.6964   5.7027   5.7517   5.7734   7.2999   7.3383   7.3916   7.7315
     7.7808   7.9017   7.9936   8.1490   8.1842   8.2683   8.5317   8.7182
     8.8443   8.8898   9.1031   9.1679   9.3374   9.3551   9.4992   9.6211
     9.6430   9.7049   9.7533

          k = 0.3333 0.0000 0.3974 ( 95401 PWs)   bands (ev):

   -22.0851 -22.0851 -22.0622 -22.0622 -19.1568 -19.1521 -19.0436 -19.0400
   -18.5752 -18.5598 -18.5368 -18.5202 -18.1775 -18.1667 -18.1580 -18.1290
   -18.1012 -18.0794 -17.9926 -17.9879 -17.2586 -17.2519 -17.2165 -17.2109
   -15.7255 -15.7238 -15.6473 -15.6456 -12.9393 -12.9066 -12.8849 -12.8518
   -12.1616 -12.1484 -12.0993 -12.0851 -10.2157 -10.2104 -10.1259 -10.1190
    -9.7181  -9.6734  -9.6594  -9.6166  -9.3249  -9.3168  -9.2534  -9.2429
    -8.5990  -8.5765  -8.5378  -8.5313  -7.6136  -7.5978  -7.5830  -7.5615
    -6.7473  -6.7081  -6.6989  -6.6407  -6.2733  -6.2498  -5.9845  -5.9319
    -5.9120  -5.8839  -5.8575  -5.8448  -5.5656  -5.5217  -5.4331  -5.3939
    -5.3444  -5.2891  -5.2134  -5.1799  -5.1038  -5.0764  -5.0163  -4.9857
    -4.5965  -4.5706  -4.5546  -4.5374  -4.2520  -4.2448  -4.1680  -4.1359
    -3.8020  -3.7078  -3.5831  -3.5745  -3.3422  -3.2958  -3.2213  -3.1440
    -3.0073  -2.9082  -2.8754  -2.8252  -2.8054  -2.7012  -2.6801  -2.6600
    -2.4915  -2.4279  -2.3989  -2.3687  -1.8516  -1.8394  -1.7289  -1.7158
    -1.4688  -1.4067  -1.3011  -1.2647  -1.2169  -1.1693  -1.1544  -1.1174
    -1.0699  -1.0598  -1.0141  -0.9537  -0.8868  -0.8529  -0.7980  -0.7561
    -0.6999  -0.6659  -0.5530  -0.5431  -0.4785  -0.4509  -0.2911  -0.2777
    -0.1426  -0.1405  -0.1045  -0.0578   0.1173   0.1602   0.1914   0.2260
     0.4222   0.4425   0.4531   0.4703   0.7389   0.7529   0.8082   0.8161
     1.1225   1.1302   1.1800   1.2017   5.0388   5.0422   5.1997   5.2083
     5.6603   5.6685   5.7175   5.7271   7.1938   7.3177   7.4513   7.6090
     7.7133   7.8229   7.9420   8.1349   8.4407   8.4679   8.4949   8.5661
     8.8399   8.9438   9.0457   9.1642   9.2498   9.3143   9.3749   9.4703
     9.5972   9.6078   9.6392

          k = 0.3333 0.0000-0.7949 ( 95420 PWs)   bands (ev):

   -22.0724 -22.0724 -22.0723 -22.0723 -19.1391 -19.1390 -19.0399 -19.0399
   -18.5637 -18.5635 -18.5239 -18.5238 -18.1674 -18.1670 -18.1472 -18.1466
   -18.0858 -18.0855 -17.9981 -17.9981 -17.2390 -17.2389 -17.2326 -17.2326
   -15.6956 -15.6955 -15.6934 -15.6933 -12.9135 -12.9135 -12.8683 -12.8683
   -12.1557 -12.1557 -12.1423 -12.1422 -10.2057 -10.2057 -10.1951 -10.1951
    -9.6944  -9.6942  -9.6451  -9.6450  -9.2976  -9.2973  -9.2860  -9.2858
    -8.6077  -8.6076  -8.5398  -8.5398  -7.6366  -7.6364  -7.6016  -7.6015
    -6.7900  -6.7899  -6.7244  -6.7243  -6.1173  -6.1172  -6.0767  -6.0767
    -5.8996  -5.8996  -5.8716  -5.8714  -5.5280  -5.5275  -5.4176  -5.4170
    -5.3222  -5.3220  -5.1775  -5.1773  -5.0962  -5.0958  -5.0334  -5.0331
    -4.5374  -4.5370  -4.5008  -4.5004  -4.1752  -4.1751  -4.1497  -4.1495
    -3.6962  -3.6955  -3.6113  -3.6109  -3.3181  -3.3178  -3.2295  -3.2291
    -2.8909  -2.8902  -2.8487  -2.8480  -2.6827  -2.6824  -2.6024  -2.6022
    -2.4664  -2.4663  -2.3816  -2.3815  -1.7977  -1.7972  -1.7847  -1.7844
    -1.3706  -1.3702  -1.2750  -1.2743  -1.1352  -1.1350  -1.1187  -1.1184
    -0.9999  -0.9994  -0.9511  -0.9508  -0.8554  -0.8550  -0.7312  -0.7307
    -0.6372  -0.6370  -0.5986  -0.5984  -0.2815  -0.2811  -0.2722  -0.2720
    -0.1246  -0.1243  -0.0779  -0.0777   0.1698   0.1702   0.2419   0.2422
     0.4886   0.4887   0.4989   0.4990   0.7734   0.7736   0.8063   0.8064
     1.1339   1.1341   1.1963   1.1965   5.1262   5.1265   5.1367   5.1369
     5.6474   5.6478   5.6506   5.6510   7.2214   7.2216   7.4350   7.4351
     7.8203   7.8204   8.0101   8.0102   8.2973   8.2976   8.3931   8.3935
     8.9989   8.9993   9.0677   9.0687   9.2038   9.2042   9.2831   9.2834
     9.4369   9.4371   9.5119

          k =-0.3333 0.0000 0.3974 ( 95401 PWs)   bands (ev):

   -22.0851 -22.0851 -22.0622 -22.0622 -19.1568 -19.1521 -19.0437 -19.0400
   -18.5751 -18.5600 -18.5366 -18.5203 -18.1776 -18.1667 -18.1581 -18.1290
   -18.1012 -18.0793 -17.9926 -17.9879 -17.2587 -17.2519 -17.2164 -17.2109
   -15.7255 -15.7238 -15.6473 -15.6457 -12.9394 -12.9065 -12.8849 -12.8517
   -12.1616 -12.1484 -12.0993 -12.0851 -10.2157 -10.2104 -10.1259 -10.1191
    -9.7180  -9.6734  -9.6594  -9.6167  -9.3249  -9.3167  -9.2536  -9.2428
    -8.5989  -8.5764  -8.5378  -8.5312  -7.6136  -7.5980  -7.5832  -7.5612
    -6.7473  -6.7081  -6.6988  -6.6407  -6.2733  -6.2498  -5.9844  -5.9318
    -5.9121  -5.8839  -5.8576  -5.8450  -5.5657  -5.5214  -5.4330  -5.3945
    -5.3441  -5.2890  -5.2135  -5.1801  -5.1035  -5.0766  -5.0162  -4.9855
    -4.5966  -4.5698  -4.5554  -4.5374  -4.2520  -4.2447  -4.1680  -4.1360
    -3.8022  -3.7073  -3.5837  -3.5746  -3.3421  -3.2959  -3.2213  -3.1440
    -3.0068  -2.9090  -2.8751  -2.8255  -2.8051  -2.7010  -2.6802  -2.6598
    -2.4919  -2.4277  -2.3987  -2.3688  -1.8516  -1.8392  -1.7291  -1.7161
    -1.4688  -1.4061  -1.3016  -1.2642  -1.2170  -1.1693  -1.1547  -1.1175
    -1.0696  -1.0601  -1.0143  -0.9536  -0.8866  -0.8528  -0.7974  -0.7564
    -0.6997  -0.6661  -0.5529  -0.5433  -0.4788  -0.4510  -0.2911  -0.2776
    -0.1420  -0.1406  -0.1046  -0.0580   0.1175   0.1602   0.1911   0.2258
     0.4222   0.4425   0.4531   0.4702   0.7391   0.7532   0.8081   0.8161
     1.1222   1.1298   1.1804   1.2019   5.0388   5.0422   5.1997   5.2083
     5.6603   5.6685   5.7175   5.7272   7.1941   7.3178   7.4514   7.6086
     7.7132   7.8234   7.9415   8.1346   8.4407   8.4679   8.4952   8.5658
     8.8393   8.9436   9.0463   9.1640   9.2497   9.3146   9.3753   9.4703
     9.5974   9.6076   9.6391

     highest occupied, lowest unoccupied level (ev):     1.2019    4.9751

!    total energy              =   -1607.83249311 Ry
     Harris-Foulkes estimate   =   -1607.83249311 Ry
     estimated scf accuracy    <          8.2E-09 Ry

     total all-electron energy =     -6036.501850 Ry

     The total energy is the sum of the following terms:

     one-electron contribution =    -835.99319305 Ry
     hartree contribution      =     547.41086974 Ry
     xc contribution           =    -333.82705107 Ry
     ewald contribution        =    -540.71566423 Ry
     Dispersion Correction     =      -0.46069959 Ry
     one-center paw contrib.   =    -444.24675491 Ry

     convergence has been achieved in  15 iterations

     Forces acting on atoms (cartesian axes, Ry/au):

     atom    1 type  4   force =     0.00410112   -0.00779529    0.00191562
     atom    2 type  4   force =     0.00406731    0.00779511   -0.00191761
     atom    3 type  4   force =    -0.00410112   -0.00779529   -0.00191562
     atom    4 type  4   force =    -0.00406731    0.00779511    0.00191761
     atom    5 type  4   force =    -0.00624934   -0.00323698   -0.00569517
     atom    6 type  4   force =    -0.00633806    0.00321924    0.00597280
     atom    7 type  4   force =     0.00624934   -0.00323698    0.00569517
     atom    8 type  4   force =     0.00633806    0.00321924   -0.00597280
     atom    9 type  4   force =     0.00311616   -0.00379697    0.00196300
     atom   10 type  4   force =     0.00295619    0.00391823   -0.00184596
     atom   11 type  4   force =    -0.00311616   -0.00379697   -0.00196300
     atom   12 type  4   force =    -0.00295619    0.00391823    0.00184596
     atom   13 type  4   force =    -0.00768740   -0.00700755    0.00330490
     atom   14 type  4   force =    -0.00773505    0.00744368   -0.00335838
     atom   15 type  4   force =     0.00768740   -0.00700755   -0.00330490
     atom   16 type  4   force =     0.00773505    0.00744368    0.00335838
     atom   17 type  2   force =    -0.00212648   -0.00429441    0.00142497
     atom   18 type  2   force =    -0.00210064    0.00422339   -0.00142803
     atom   19 type  2   force =     0.00212648   -0.00429441   -0.00142497
     atom   20 type  2   force =     0.00210064    0.00422339    0.00142803
     atom   21 type  2   force =     0.00175866    0.00203064   -0.00095061
     atom   22 type  2   force =     0.00174595   -0.00200423    0.00095937
     atom   23 type  2   force =    -0.00175866    0.00203064    0.00095061
     atom   24 type  2   force =    -0.00174595   -0.00200423   -0.00095937
     atom   25 type  2   force =     0.00450056   -0.00098587   -0.00096286
     atom   26 type  2   force =     0.00447827    0.00098064    0.00096808
     atom   27 type  2   force =    -0.00450056   -0.00098587    0.00096286
     atom   28 type  2   force =    -0.00447827    0.00098064   -0.00096808
     atom   29 type  2   force =    -0.00134999   -0.00102720    0.00152814
     atom   30 type  2   force =    -0.00135550    0.00106166   -0.00152322
     atom   31 type  2   force =     0.00134999   -0.00102720   -0.00152814
     atom   32 type  2   force =     0.00135550    0.00106166    0.00152322
     atom   33 type  1   force =    -0.00599901   -0.00419859    0.00396599
     atom   34 type  1   force =    -0.00581842    0.00416309   -0.00399397
     atom   35 type  1   force =     0.00599901   -0.00419859   -0.00396599
     atom   36 type  1   force =     0.00581842    0.00416309    0.00399397
     atom   37 type  1   force =     0.00027560   -0.00020466   -0.00854920
     atom   38 type  1   force =     0.00028342    0.00020158    0.00855328
     atom   39 type  1   force =    -0.00027560   -0.00020466    0.00854920
     atom   40 type  1   force =    -0.00028342    0.00020158   -0.00855328
     atom   41 type  1   force =     0.00082444    0.00619798    0.01050662
     atom   42 type  1   force =     0.00094115   -0.00620244   -0.01060443
     atom   43 type  1   force =    -0.00082444    0.00619798   -0.01050662
     atom   44 type  1   force =    -0.00094115   -0.00620244    0.01060443
     atom   45 type  1   force =    -0.00370825    0.00250336   -0.02837074
     atom   46 type  1   force =    -0.00360495   -0.00258198    0.02835801
     atom   47 type  1   force =     0.00370825    0.00250336    0.02837074
     atom   48 type  1   force =     0.00360495   -0.00258198   -0.02835801
     atom   49 type  1   force =     0.00859061    0.00057415    0.02413268
     atom   50 type  1   force =     0.00849460   -0.00049166   -0.02412747
     atom   51 type  1   force =    -0.00859061    0.00057415   -0.02413268
     atom   52 type  1   force =    -0.00849460   -0.00049166    0.02412747
     atom   53 type  1   force =     0.00796782    0.00852126   -0.00281747
     atom   54 type  1   force =     0.00790921   -0.00899105    0.00279875
     atom   55 type  1   force =    -0.00796782    0.00852126    0.00281747
     atom   56 type  1   force =    -0.00790921   -0.00899105   -0.00279875
     atom   57 type  3   force =     0.00027248   -0.00104424    0.00046280
     atom   58 type  3   force =     0.00028236    0.00106116   -0.00046724
     atom   59 type  3   force =    -0.00027248   -0.00104424   -0.00046280
     atom   60 type  3   force =    -0.00028236    0.00106116    0.00046724
     atom   61 type  3   force =     0.00150967    0.00293085   -0.00861424
     atom   62 type  3   force =     0.00153969   -0.00294375    0.00861943
     atom   63 type  3   force =    -0.00150967    0.00293085    0.00861424
     atom   64 type  3   force =    -0.00153969   -0.00294375   -0.00861943
     atom   65 type  3   force =    -0.00749412   -0.00721183    0.02298658
     atom   66 type  3   force =    -0.00749104    0.00722038   -0.02296632
     atom   67 type  3   force =     0.00749412   -0.00721183   -0.02298658
     atom   68 type  3   force =     0.00749104    0.00722038    0.02296632
     atom   69 type  3   force =     0.00844436    0.00572092   -0.01858446
     atom   70 type  3   force =     0.00842994   -0.00571423    0.01861420
     atom   71 type  3   force =    -0.00844436    0.00572092    0.01858446
     atom   72 type  3   force =    -0.00842994   -0.00571423   -0.01861420
     atom   73 type  3   force =    -0.00003547   -0.00095693    0.00111842
     atom   74 type  3   force =    -0.00003648    0.00065416   -0.00115305
     atom   75 type  3   force =     0.00003547   -0.00095693   -0.00111842
     atom   76 type  3   force =     0.00003648    0.00065416    0.00115305
     atom   77 type  3   force =     0.00191065    0.00128961   -0.00118844
     atom   78 type  3   force =     0.00188703   -0.00129750    0.00117793
     atom   79 type  3   force =    -0.00191065    0.00128961    0.00118844
     atom   80 type  3   force =    -0.00188703   -0.00129750   -0.00117793
     atom   81 type  3   force =    -0.00204523   -0.00311459    0.00870838
     atom   82 type  3   force =    -0.00201442    0.00318689   -0.00893469
     atom   83 type  3   force =     0.00204523   -0.00311459   -0.00870838
     atom   84 type  3   force =     0.00201442    0.00318689    0.00893469
     atom   85 type  3   force =    -0.00015086   -0.00016697    0.00001078
     atom   86 type  3   force =    -0.00002775    0.00007568   -0.00011426
     atom   87 type  3   force =     0.00015086   -0.00016697   -0.00001078
     atom   88 type  3   force =     0.00002775    0.00007568    0.00011426
     atom   89 type  3   force =     0.00014883    0.00001212    0.00014595
     atom   90 type  3   force =     0.00021257    0.00020387   -0.00013432
     atom   91 type  3   force =    -0.00014883    0.00001212   -0.00014595
     atom   92 type  3   force =    -0.00021257    0.00020387    0.00013432
     atom   93 type  3   force =    -0.00193024   -0.00285642   -0.00732719
     atom   94 type  3   force =    -0.00198552    0.00293568    0.00740692
     atom   95 type  3   force =     0.00193024   -0.00285642    0.00732719
     atom   96 type  3   force =     0.00198552    0.00293568   -0.00740692

     Total force =     0.120584     Total SCF correction =     0.000213


     Computing stress (Cartesian axis) and pressure

          total   stress  (Ry/bohr**3)                   (kbar)     P=   -4.42
   0.00004895   0.00000000   0.00000005          7.20      0.00      0.01
   0.00000000  -0.00003887   0.00000000          0.00     -5.72      0.00
   0.00000005   0.00000000  -0.00010021          0.01      0.00    -14.74


     Writing output data file scf.save
 
     init_run     :     31.26s CPU     32.68s WALL (       1 calls)
     electrons    :   1044.47s CPU   1089.66s WALL (       1 calls)
     forces       :     14.46s CPU     14.65s WALL (       1 calls)
     stress       :     99.83s CPU    100.13s WALL (       1 calls)

     Called by init_run:
     wfcinit      :     25.15s CPU     26.38s WALL (       1 calls)
     potinit      :      2.20s CPU      2.23s WALL (       1 calls)

     Called by electrons:
     c_bands      :    931.31s CPU    969.30s WALL (      15 calls)
     sum_band     :    100.39s CPU    106.47s WALL (      15 calls)
     v_of_rho     :      1.85s CPU      2.03s WALL (      16 calls)
     newd         :      3.52s CPU      4.47s WALL (      16 calls)
     PAW_pot      :      6.71s CPU      6.72s WALL (      16 calls)
     mix_rho      :      0.44s CPU      0.48s WALL (      15 calls)

     Called by c_bands:
     init_us_2    :      6.90s CPU      6.92s WALL (     231 calls)
     cegterg      :    905.60s CPU    943.53s WALL (     105 calls)

     Called by sum_band:
     sum_band:bec :      0.07s CPU      0.07s WALL (     105 calls)
     addusdens    :      3.84s CPU      4.72s WALL (      15 calls)

     Called by *egterg:
     h_psi        :    538.02s CPU    567.04s WALL (     504 calls)
     s_psi        :     86.98s CPU     86.99s WALL (     504 calls)
     g_psi        :      3.64s CPU      3.64s WALL (     392 calls)
     cdiaghg      :     66.26s CPU     66.27s WALL (     497 calls)

     Called by h_psi:
     h_psi:pot    :    533.77s CPU    562.71s WALL (     504 calls)
     h_psi:calbec :     83.86s CPU     84.10s WALL (     504 calls)
     vloc_psi     :    363.07s CPU    391.75s WALL (     504 calls)
     add_vuspsi   :     86.84s CPU     86.86s WALL (     504 calls)

     General routines
     calbec       :    122.90s CPU    123.24s WALL (     644 calls)
     fft          :      1.14s CPU      1.47s WALL (     232 calls)
     fftw         :    393.04s CPU    424.38s WALL (  134643 calls)
 
     Parallel routines
     fft_scatter  :     79.64s CPU    106.31s WALL (  134875 calls)
 
     PWSCF        : 19m59.09s CPU    21m23.26s WALL

 
   This run was terminated on:   3:43:49  12Dec2017            

=------------------------------------------------------------------------------=
   JOB DONE.
=------------------------------------------------------------------------------=
