
     Program PWSCF v.6.1 (svn rev. 13369) starts on  7Dec2017 at  7:14:50 

     This program is part of the open-source Quantum ESPRESSO suite
     for quantum simulation of materials; please cite
         "P. Giannozzi et al., J. Phys.:Condens. Matter 21 395502 (2009);
          URL http://www.quantum-espresso.org", 
     in publications or presentations arising from this work. More details at
     http://www.quantum-espresso.org/quote

     Parallel version (MPI), running on     8 processors
     R & G space division:  proc/nbgrp/npool/nimage =       8
     Waiting for input...
     Reading input from standard input

     Current dimensions of program PWSCF are:
     Max number of different atomic species (ntypx) = 10
     Max number of k-points (npk) =  40000
     Max angular momentum in pseudopotentials (lmaxx) =  3
               file C.pbe-n-kjpaw_psl.0.1.UPF: wavefunction(s)  2P renormalized
               file N.pbe-n-kjpaw_psl.0.1.UPF: wavefunction(s)  2P renormalized
               file H.pbe-kjpaw_psl.0.1.UPF: wavefunction(s)  1S renormalized
               file O.pbe-n-kjpaw_psl.0.1.UPF: wavefunction(s)  2P renormalized

     -------------------------------------
     Parameters for Dispersion Correction:
     -------------------------------------
       atom      VdW radius       C_6     

        C          2.744         60.710
        N          2.640         42.670
        H          1.892          4.857
        O          2.536         24.284

     Subspace diagonalization in iterative solution of the eigenvalue problem:
     a serial algorithm will be used

 
     Parallelization info
     --------------------
     sticks:   dense  smooth     PW     G-vecs:    dense   smooth      PW
     Min        1085    1085    287                82845    82845   11283
     Max        1086    1086    288                82847    82847   11286
     Sum        8681    8681   2303               662771   662771   90277
 


     bravais-lattice index     =            0
     lattice parameter (alat)  =      25.7154  a.u.
     unit-cell volume          =    4904.7444 (a.u.)^3
     number of atoms/cell      =           88
     number of atomic types    =            4
     number of electrons       =       272.00
     number of Kohn-Sham states=          163
     kinetic-energy cutoff     =     100.0000  Ry
     charge density cutoff     =     400.0000  Ry
     convergence threshold     =      1.0E-08
     mixing beta               =       0.5000
     number of iterations used =            8  plain     mixing
     Exchange-correlation      =  SLA  PW   PBX  PBC ( 1  4  3  4 0 0)

     celldm(1)=  25.715393  celldm(2)=   0.000000  celldm(3)=   0.000000
     celldm(4)=   0.000000  celldm(5)=   0.000000  celldm(6)=   0.000000

     crystal axes: (cart. coord. in units of alat)
               a(1) = (   1.000000   0.000000   0.000000 )  
               a(2) = (   0.000000   0.412412   0.000000 )  
               a(3) = (   0.000000   0.000000   0.699368 )  

     reciprocal axes: (cart. coord. in units 2 pi/alat)
               b(1) = (  1.000000  0.000000  0.000000 )  
               b(2) = (  0.000000  2.424761  0.000000 )  
               b(3) = (  0.000000  0.000000  1.429862 )  


     PseudoPot. # 1 for  C read from file:
     /scratch/ahofstet/pseudo/C.pbe-n-kjpaw_psl.0.1.UPF
     MD5 check sum: 430fe95172b1e11ef3f8ed03bac87931
     Pseudo is Projector augmented-wave + core cor, Zval =  4.0
     Generated using "atomic" code by A. Dal Corso  v.5.0.99 svn rev. 10869
     Shape of augmentation charge: BESSEL
     Using radial grid of 1073 points,  4 beta functions with: 
                l(1) =   0
                l(2) =   0
                l(3) =   1
                l(4) =   1
     Q(r) pseudized with 0 coefficients 


     PseudoPot. # 2 for  N read from file:
     /scratch/ahofstet/pseudo/N.pbe-n-kjpaw_psl.0.1.UPF
     MD5 check sum: f73187c8b701007e77325f868c9291d7
     Pseudo is Projector augmented-wave + core cor, Zval =  5.0
     Generated using "atomic" code by A. Dal Corso  v.5.0.99 svn rev. 10869
     Shape of augmentation charge: PSQ
     Using radial grid of 1085 points,  4 beta functions with: 
                l(1) =   0
                l(2) =   0
                l(3) =   1
                l(4) =   1
     Q(r) pseudized with 0 coefficients 


     PseudoPot. # 3 for  H read from file:
     /scratch/ahofstet/pseudo/H.pbe-kjpaw_psl.0.1.UPF
     MD5 check sum: 94e484f906d9e9773b2f6e52662335b2
     Pseudo is Projector augmented-wave, Zval =  1.0
     Generated using "atomic" code by A. Dal Corso  v.5.0.99 svn rev. 10869
     Shape of augmentation charge: PSQ
     Using radial grid of  929 points,  2 beta functions with: 
                l(1) =   0
                l(2) =   0
     Q(r) pseudized with 0 coefficients 


     PseudoPot. # 4 for  O read from file:
     /scratch/ahofstet/pseudo/O.pbe-n-kjpaw_psl.0.1.UPF
     MD5 check sum: 3f94a2996a3169367d6eb21d9b593f20
     Pseudo is Projector augmented-wave + core cor, Zval =  6.0
     Generated using "atomic" code by A. Dal Corso  v.5.0.99 svn rev. 10869
     Shape of augmentation charge: BESSEL
     Using radial grid of 1095 points,  4 beta functions with: 
                l(1) =   0
                l(2) =   0
                l(3) =   1
                l(4) =   1
     Q(r) pseudized with 0 coefficients 


     atomic species   valence    mass     pseudopotential
        C              4.00    12.01070      C( 1.00)
        N              5.00    14.00670      N( 1.00)
        H              1.00     1.00794      H( 1.00)
        O              6.00    15.99940      O( 1.00)

      4 Sym. Ops. (no inversion) found ( 3 have fractional translation)



   Cartesian axes

     site n.     atom                  positions (alat units)
         1           O   tau(   1) = (   0.2341959   0.1685794   0.5300703  )
         2           O   tau(   2) = (   0.7658041   0.2438324   0.1803863  )
         3           O   tau(   3) = (   0.2658041   0.3747853   0.1803863  )
         4           O   tau(   4) = (   0.7341959   0.0376265   0.5300703  )
         5           O   tau(   5) = (   0.2347285   0.0534513   0.0105801  )
         6           O   tau(   6) = (   0.7652715   0.3589605   0.3602642  )
         7           O   tau(   7) = (   0.2652715   0.2596572   0.3602642  )
         8           O   tau(   8) = (   0.7347285   0.1527546   0.0105801  )
         9           H   tau(   9) = (   0.2528759   0.0122032   0.0695035  )
        10           H   tau(  10) = (   0.7471241   0.4002086   0.4191875  )
        11           H   tau(  11) = (   0.2471241   0.2184091   0.4191875  )
        12           H   tau(  12) = (   0.7528759   0.1940027   0.0695035  )
        13           O   tau(  13) = (   0.3782452   0.3040103   0.6826431  )
        14           O   tau(  14) = (   0.6217548   0.1084015   0.3329591  )
        15           O   tau(  15) = (   0.1217548   0.0978044   0.3329591  )
        16           O   tau(  16) = (   0.8782452   0.3146074   0.6826431  )
        17           H   tau(  17) = (   0.4316260   0.2577032   0.6536169  )
        18           H   tau(  18) = (   0.5683740   0.1547086   0.3039329  )
        19           H   tau(  19) = (   0.0683740   0.0514973   0.3039329  )
        20           H   tau(  20) = (   0.9316260   0.3609146   0.6536169  )
        21           O   tau(  21) = (   0.5550280   0.0256026   0.5984087  )
        22           O   tau(  22) = (   0.4449720   0.3868092   0.2487247  )
        23           O   tau(  23) = (   0.9449720   0.2318085   0.2487247  )
        24           O   tau(  24) = (   0.0550280   0.1806033   0.5984087  )
        25           H   tau(  25) = (   0.6280552   0.0306393   0.5875372  )
        26           H   tau(  26) = (   0.3719448   0.3817725   0.2378532  )
        27           H   tau(  27) = (   0.8719448   0.2368452   0.2378532  )
        28           H   tau(  28) = (   0.1280552   0.1755666   0.5875372  )
        29           O   tau(  29) = (   0.5121874   0.2104141   0.6002060  )
        30           O   tau(  30) = (   0.4878126   0.2019977   0.2505220  )
        31           O   tau(  31) = (   0.9878126   0.0042082   0.2505220  )
        32           O   tau(  32) = (   0.0121874   0.4082036   0.6002060  )
        33           H   tau(  33) = (   0.5285322   0.1371661   0.5968868  )
        34           H   tau(  34) = (   0.4714678   0.2752457   0.2472027  )
        35           H   tau(  35) = (   0.9714678   0.3433720   0.2472027  )
        36           H   tau(  36) = (   0.0285322   0.0690398   0.5968868  )
        37           C   tau(  37) = (   0.2906896   0.0962087   0.5455827  )
        38           C   tau(  38) = (   0.7093104   0.3162031   0.1958987  )
        39           C   tau(  39) = (   0.2093104   0.3024146   0.1958987  )
        40           C   tau(  40) = (   0.7906896   0.1099972   0.5455827  )
        41           C   tau(  41) = (   0.2924801   0.0357565   0.6312529  )
        42           C   tau(  42) = (   0.7075199   0.3766553   0.2815688  )
        43           C   tau(  43) = (   0.2075199   0.2419624   0.2815688  )
        44           C   tau(  44) = (   0.7924801   0.1704494   0.6312529  )
        45           C   tau(  45) = (   0.3583456   0.3716644   0.6163495  )
        46           C   tau(  46) = (   0.6416544   0.0407474   0.2666655  )
        47           C   tau(  47) = (   0.1416544   0.1654585   0.2666655  )
        48           C   tau(  48) = (   0.8583456   0.2469533   0.6163495  )
        49           C   tau(  49) = (   0.4082917   0.3775248   0.5171956  )
        50           C   tau(  50) = (   0.5917083   0.0348870   0.1675116  )
        51           C   tau(  51) = (   0.0917083   0.1713189   0.1675116  )
        52           C   tau(  52) = (   0.9082917   0.2410930   0.5171956  )
        53           H   tau(  53) = (   0.3852213   0.3147260   0.4714063  )
        54           H   tau(  54) = (   0.6147787   0.0976858   0.1217223  )
        55           H   tau(  55) = (   0.1147787   0.1085201   0.1217223  )
        56           H   tau(  56) = (   0.8852213   0.3038917   0.4714063  )
        57           C   tau(  57) = (   0.3654892   0.0600243   0.4721631  )
        58           C   tau(  58) = (   0.6345108   0.3523875   0.1224791  )
        59           C   tau(  59) = (   0.1345108   0.2662303   0.1224791  )
        60           C   tau(  60) = (   0.8654892   0.1461816   0.4721631  )
        61           H   tau(  61) = (   0.4223219   0.1168839   0.4615789  )
        62           H   tau(  62) = (   0.5776781   0.2955279   0.1118949  )
        63           H   tau(  63) = (   0.0776781   0.3230899   0.1118949  )
        64           H   tau(  64) = (   0.9223219   0.0893220   0.4615789  )
        65           H   tau(  65) = (   0.3310555   0.0468457   0.4002658  )
        66           H   tau(  66) = (   0.6689445   0.3655661   0.0505818  )
        67           H   tau(  67) = (   0.1689445   0.2530516   0.0505818  )
        68           H   tau(  68) = (   0.8310555   0.1593602   0.4002658  )
        69           C   tau(  69) = (   0.5208865   0.3741916   0.5220865  )
        70           C   tau(  70) = (   0.4791135   0.0382203   0.1724025  )
        71           C   tau(  71) = (   0.9791135   0.1679857   0.1724025  )
        72           C   tau(  72) = (   0.0208865   0.2444262   0.5220865  )
        73           H   tau(  73) = (   0.5481158   0.4012971   0.4507520  )
        74           H   tau(  74) = (   0.4518842   0.0111148   0.1010680  )
        75           H   tau(  75) = (   0.9518842   0.1950912   0.1010680  )
        76           H   tau(  76) = (   0.0481158   0.2173207   0.4507520  )
        77           C   tau(  77) = (   0.5627725   0.2691137   0.5305971  )
        78           C   tau(  78) = (   0.4372275   0.1432981   0.1809131  )
        79           C   tau(  79) = (   0.9372275   0.0629078   0.1809131  )
        80           C   tau(  80) = (   0.0627725   0.3495040   0.5305971  )
        81           H   tau(  81) = (   0.5569317   0.2364830   0.4567295  )
        82           H   tau(  82) = (   0.4430683   0.1759289   0.1070455  )
        83           H   tau(  83) = (   0.9430683   0.0302770   0.1070455  )
        84           H   tau(  84) = (   0.0569317   0.3821348   0.4567295  )
        85           H   tau(  85) = (   0.6415191   0.2741425   0.5493974  )
        86           H   tau(  86) = (   0.3584809   0.1382693   0.1997133  )
        87           H   tau(  87) = (   0.8584809   0.0679366   0.1997133  )
        88           H   tau(  88) = (   0.1415191   0.3444752   0.5493974  )

     number of k points=     8
                       cart. coord. in units 2pi/alat
        k(    1) = (   0.0000000   0.0000000   0.0000000), wk =   0.1666667
        k(    2) = (   0.0000000   0.0000000  -0.7149312), wk =   0.1666667
        k(    3) = (   0.0000000   0.8082536   0.0000000), wk =   0.3333333
        k(    4) = (   0.0000000   0.8082536  -0.7149312), wk =   0.3333333
        k(    5) = (  -0.5000000   0.0000000   0.0000000), wk =   0.1666667
        k(    6) = (  -0.5000000   0.0000000  -0.7149312), wk =   0.1666667
        k(    7) = (  -0.5000000   0.8082536   0.0000000), wk =   0.3333333
        k(    8) = (  -0.5000000   0.8082536  -0.7149312), wk =   0.3333333

     Dense  grid:   662771 G-vectors     FFT dimensions: ( 180,  72, 120)

     Estimated max dynamical RAM per process >     575.50MB

     Estimated total allocated dynamical RAM >    4603.99MB

     Check: negative/imaginary core charge=   -0.000003    0.000000

     Initial potential from superposition of free atoms

     starting charge  271.99842, renormalised to  272.00000
     Starting wfc are  232 randomized atomic wfcs
     Checking if some PAW data can be deallocated... 

     total cpu time spent up to now is       31.0 secs

     per-process dynamical memory:   406.4 Mb

     Self-consistent Calculation

     iteration #  1     ecut=   100.00 Ry     beta=0.50
     Davidson diagonalization with overlap
     ethr =  1.00E-02,  avg # of iterations =  3.8

     total cpu time spent up to now is      127.9 secs

     total energy              =   -1395.91296016 Ry
     Harris-Foulkes estimate   =   -1399.83734745 Ry
     estimated scf accuracy    <       7.56793359 Ry

     iteration #  2     ecut=   100.00 Ry     beta=0.50
     Davidson diagonalization with overlap
     ethr =  2.78E-03,  avg # of iterations =  2.6

     total cpu time spent up to now is      184.7 secs

     total energy              =   -1396.95498278 Ry
     Harris-Foulkes estimate   =   -1397.27684916 Ry
     estimated scf accuracy    <       0.78180017 Ry

     iteration #  3     ecut=   100.00 Ry     beta=0.50
     Davidson diagonalization with overlap
     ethr =  2.87E-04,  avg # of iterations =  7.2

     total cpu time spent up to now is      288.5 secs

     total energy              =   -1397.18876114 Ry
     Harris-Foulkes estimate   =   -1397.30099710 Ry
     estimated scf accuracy    <       0.27883689 Ry

     iteration #  4     ecut=   100.00 Ry     beta=0.50
     Davidson diagonalization with overlap
     ethr =  1.03E-04,  avg # of iterations =  3.9

     total cpu time spent up to now is      341.5 secs

     total energy              =   -1397.20566758 Ry
     Harris-Foulkes estimate   =   -1397.22746213 Ry
     estimated scf accuracy    <       0.05522951 Ry

     iteration #  5     ecut=   100.00 Ry     beta=0.50
     Davidson diagonalization with overlap
     ethr =  2.03E-05,  avg # of iterations =  6.2

     total cpu time spent up to now is      440.6 secs

     total energy              =   -1397.23018939 Ry
     Harris-Foulkes estimate   =   -1397.24730269 Ry
     estimated scf accuracy    <       0.05076087 Ry

     iteration #  6     ecut=   100.00 Ry     beta=0.50
     Davidson diagonalization with overlap
     ethr =  1.87E-05,  avg # of iterations =  2.0

     total cpu time spent up to now is      488.0 secs

     total energy              =   -1397.22588457 Ry
     Harris-Foulkes estimate   =   -1397.23386451 Ry
     estimated scf accuracy    <       0.01577210 Ry

     iteration #  7     ecut=   100.00 Ry     beta=0.50
     Davidson diagonalization with overlap
     ethr =  5.80E-06,  avg # of iterations =  4.4

     total cpu time spent up to now is      576.9 secs

     total energy              =   -1397.23331139 Ry
     Harris-Foulkes estimate   =   -1397.23377867 Ry
     estimated scf accuracy    <       0.00214788 Ry

     iteration #  8     ecut=   100.00 Ry     beta=0.50
     Davidson diagonalization with overlap
     ethr =  7.90E-07,  avg # of iterations =  1.0

     total cpu time spent up to now is      623.0 secs

     total energy              =   -1397.23275802 Ry
     Harris-Foulkes estimate   =   -1397.23339475 Ry
     estimated scf accuracy    <       0.00115205 Ry

     iteration #  9     ecut=   100.00 Ry     beta=0.50
     Davidson diagonalization with overlap
     ethr =  4.24E-07,  avg # of iterations =  3.1

     total cpu time spent up to now is      701.9 secs

     total energy              =   -1397.23321309 Ry
     Harris-Foulkes estimate   =   -1397.23325204 Ry
     estimated scf accuracy    <       0.00015575 Ry

     iteration # 10     ecut=   100.00 Ry     beta=0.50
     Davidson diagonalization with overlap
     ethr =  5.73E-08,  avg # of iterations =  1.0

     total cpu time spent up to now is      747.4 secs

     total energy              =   -1397.23317355 Ry
     Harris-Foulkes estimate   =   -1397.23321786 Ry
     estimated scf accuracy    <       0.00007932 Ry

     iteration # 11     ecut=   100.00 Ry     beta=0.50
     Davidson diagonalization with overlap
     ethr =  2.92E-08,  avg # of iterations =  4.0

     total cpu time spent up to now is      830.0 secs

     total energy              =   -1397.23320742 Ry
     Harris-Foulkes estimate   =   -1397.23321320 Ry
     estimated scf accuracy    <       0.00001648 Ry

     iteration # 12     ecut=   100.00 Ry     beta=0.50
     Davidson diagonalization with overlap
     ethr =  6.06E-09,  avg # of iterations =  1.0

     total cpu time spent up to now is      875.6 secs

     total energy              =   -1397.23320373 Ry
     Harris-Foulkes estimate   =   -1397.23320801 Ry
     estimated scf accuracy    <       0.00000629 Ry

     iteration # 13     ecut=   100.00 Ry     beta=0.50
     Davidson diagonalization with overlap
     ethr =  2.31E-09,  avg # of iterations =  4.0

     total cpu time spent up to now is      964.3 secs

     total energy              =   -1397.23320814 Ry
     Harris-Foulkes estimate   =   -1397.23320996 Ry
     estimated scf accuracy    <       0.00000565 Ry

     iteration # 14     ecut=   100.00 Ry     beta=0.50
     Davidson diagonalization with overlap
     ethr =  2.08E-09,  avg # of iterations =  1.0

     total cpu time spent up to now is     1010.1 secs

     total energy              =   -1397.23320702 Ry
     Harris-Foulkes estimate   =   -1397.23320827 Ry
     estimated scf accuracy    <       0.00000247 Ry

     iteration # 15     ecut=   100.00 Ry     beta=0.50
     Davidson diagonalization with overlap
     ethr =  9.08E-10,  avg # of iterations =  4.0

     total cpu time spent up to now is     1089.5 secs

     total energy              =   -1397.23320826 Ry
     Harris-Foulkes estimate   =   -1397.23320829 Ry
     estimated scf accuracy    <       0.00000033 Ry

     iteration # 16     ecut=   100.00 Ry     beta=0.50
     Davidson diagonalization with overlap
     ethr =  1.22E-10,  avg # of iterations =  1.0

     total cpu time spent up to now is     1134.8 secs

     total energy              =   -1397.23320815 Ry
     Harris-Foulkes estimate   =   -1397.23320827 Ry
     estimated scf accuracy    <       0.00000028 Ry

     iteration # 17     ecut=   100.00 Ry     beta=0.50
     Davidson diagonalization with overlap
     ethr =  1.05E-10,  avg # of iterations =  4.8

     total cpu time spent up to now is     1189.8 secs

     total energy              =   -1397.23320818 Ry
     Harris-Foulkes estimate   =   -1397.23320819 Ry
     estimated scf accuracy    <       0.00000002 Ry

     iteration # 18     ecut=   100.00 Ry     beta=0.50
     Davidson diagonalization with overlap
     ethr =  6.55E-12,  avg # of iterations =  4.0

     total cpu time spent up to now is     1269.7 secs

     End of self-consistent calculation

          k = 0.0000 0.0000 0.0000 ( 82797 PWs)   bands (ev):

   -19.9226 -19.8848 -19.8748 -19.8746 -19.3486 -19.2527 -19.1522 -19.0821
   -19.0002 -18.9875 -18.8989 -18.8736 -18.7538 -18.6984 -18.4643 -18.4064
   -18.1539 -18.1428 -18.1413 -18.1222 -14.1410 -14.1193 -14.0919 -14.0643
   -12.0134 -11.9294 -11.9209 -11.9013 -10.7015 -10.6964 -10.6092 -10.5399
    -9.7900  -9.7811  -9.7275  -9.6248  -8.7896  -8.6905  -8.4674  -8.4264
    -7.5730  -7.5108  -7.5008  -7.4629  -7.2414  -7.0807  -7.0246  -6.8533
    -6.5395  -6.5097  -6.3859  -6.2827  -6.0580  -5.9997  -5.8675  -5.7164
    -5.6272  -5.6265  -5.2672  -5.1907  -4.9552  -4.9310  -4.8468  -4.7262
    -4.6517  -4.6119  -4.5954  -4.5918  -4.4941  -4.4755  -4.2724  -4.2097
    -4.0000  -3.9050  -3.7459  -3.7180  -3.6085  -3.5562  -3.4444  -3.3447
    -3.3179  -3.2951  -3.1517  -3.1374  -3.1364  -3.1208  -3.0493  -2.8882
    -2.7536  -2.7463  -2.5646  -2.5414  -2.4454  -2.3424  -2.3105  -2.2165
    -2.1471  -2.0995  -2.0730  -2.0639  -1.9336  -1.8899  -1.7648  -1.6706
    -1.6192  -1.5705  -1.4193  -1.4170  -1.3349  -1.1689  -1.1262  -1.1144
    -1.0721  -0.9596  -0.9081  -0.7756  -0.5343  -0.4967  -0.4384  -0.4116
    -0.1050  -0.0480   0.1248   0.1810   0.3899   0.4282   0.5292   0.5620
     0.5821   0.6135   0.9352   0.9680   1.8054   1.8899   1.9373   1.9697
     4.9910   5.0689   5.0968   5.1491   6.8011   7.1230   7.3009   7.3676
     7.6589   7.8472   7.9170   8.1058   8.1692   8.2464   8.4661   8.6996
     8.7014   8.8631   9.0036   9.0903   9.2485   9.4360   9.5395   9.7055
     9.7848   9.8413   9.8988

          k = 0.0000 0.0000-0.7149 ( 82866 PWs)   bands (ev):

   -19.8986 -19.8986 -19.8788 -19.8788 -19.2722 -19.2722 -19.1837 -19.1837
   -19.0016 -19.0016 -18.8927 -18.8927 -18.5797 -18.5797 -18.5279 -18.5279
   -18.1431 -18.1431 -18.1406 -18.1406 -14.1297 -14.1297 -14.0777 -14.0777
   -11.9662 -11.9662 -11.9141 -11.9141 -10.6514 -10.6514 -10.6214 -10.6214
    -9.7875  -9.7875  -9.6779  -9.6779  -8.6363  -8.6363  -8.6004  -8.6004
    -7.5403  -7.5403  -7.4872  -7.4872  -7.1208  -7.1208  -6.9055  -6.9055
    -6.4386  -6.4386  -6.4096  -6.4096  -6.0657  -6.0657  -5.7876  -5.7876
    -5.6515  -5.6515  -5.2068  -5.2068  -4.8970  -4.8970  -4.8229  -4.8229
    -4.6636  -4.6636  -4.5448  -4.5448  -4.4961  -4.4961  -4.2150  -4.2150
    -3.9145  -3.9145  -3.6711  -3.6711  -3.5834  -3.5834  -3.4705  -3.4705
    -3.3124  -3.3124  -3.2657  -3.2657  -3.0817  -3.0817  -3.0116  -3.0116
    -2.7566  -2.7566  -2.5512  -2.5512  -2.3476  -2.3476  -2.2662  -2.2662
    -2.1087  -2.1087  -2.0738  -2.0738  -1.9229  -1.9229  -1.6914  -1.6914
    -1.5567  -1.5567  -1.5074  -1.5074  -1.1886  -1.1886  -1.1433  -1.1433
    -1.0305  -1.0305  -0.8663  -0.8663  -0.4914  -0.4914  -0.4354  -0.4354
     0.0288   0.0288   0.0314   0.0314   0.5009   0.5009   0.5028   0.5028
     0.7735   0.7735   0.7817   0.7817   1.8459   1.8459   1.9522   1.9522
     5.0257   5.0257   5.1234   5.1234   6.9711   6.9711   7.3305   7.3305
     7.6083   7.6083   7.9844   7.9844   8.1684   8.1684   8.7729   8.7729
     9.1350   9.1350   9.1640   9.1640   9.2736   9.2736   9.6838   9.6838
     9.7581   9.7581   9.7980

          k = 0.0000 0.8083 0.0000 ( 82858 PWs)   bands (ev):

   -19.8800 -19.8625 -19.8590 -19.8528 -19.2833 -19.2407 -19.1871 -19.1391
   -18.9168 -18.8797 -18.8202 -18.8018 -18.6271 -18.5754 -18.5430 -18.4626
   -18.3606 -18.3348 -18.3348 -18.3085 -14.1355 -14.1299 -14.0852 -14.0760
   -11.8286 -11.7843 -11.7815 -11.7522 -10.6334 -10.5914 -10.5895 -10.5265
    -9.7815  -9.7307  -9.6499  -9.6422  -8.7097  -8.6368  -8.5556  -8.4854
    -7.7414  -7.7113  -7.6590  -7.6135  -7.1680  -7.0367  -6.9861  -6.7907
    -6.6094  -6.5366  -6.4976  -6.4118  -6.0719  -5.8111  -5.8028  -5.7760
    -5.6440  -5.6221  -5.4653  -5.3061  -5.0901  -5.0661  -4.9667  -4.9207
    -4.8548  -4.6458  -4.5551  -4.4895  -4.3909  -4.3889  -4.1709  -4.1010
    -3.9362  -3.8772  -3.7743  -3.7594  -3.6314  -3.5578  -3.5010  -3.4640
    -3.3942  -3.2929  -3.2846  -3.2021  -2.9060  -2.8978  -2.8376  -2.8209
    -2.7679  -2.7477  -2.6137  -2.6017  -2.5780  -2.5138  -2.4817  -2.3528
    -2.1980  -2.1789  -2.1621  -2.0643  -1.8532  -1.8162  -1.7699  -1.7423
    -1.3976  -1.3865  -1.3724  -1.3390  -1.2459  -1.2356  -1.1519  -1.1516
    -1.1063  -1.0246  -0.8047  -0.7797  -0.7319  -0.6914  -0.6102  -0.5525
     0.3069   0.3107   0.4669   0.5097   0.5119   0.5977   0.6418   0.7144
     0.7549   0.7763   0.8090   0.9100   1.8781   1.9270   1.9509   1.9619
     4.8642   4.8992   4.9584   4.9890   7.1863   7.5385   7.6384   7.6610
     7.7688   7.8686   7.9386   8.0154   8.3575   8.5065   8.6707   8.7045
     8.7713   8.9097   8.9212   9.0896   9.2255   9.2838   9.2918   9.4102
     9.5212   9.5401   9.5912

          k = 0.0000 0.8083-0.7149 ( 82876 PWs)   bands (ev):

   -19.8713 -19.8713 -19.8559 -19.8559 -19.2960 -19.2960 -19.0978 -19.0978
   -18.9169 -18.9169 -18.8129 -18.8129 -18.6571 -18.6571 -18.4682 -18.4682
   -18.3528 -18.3528 -18.3052 -18.3052 -14.1443 -14.1443 -14.0697 -14.0697
   -11.8052 -11.8052 -11.7677 -11.7677 -10.6085 -10.6085 -10.5655 -10.5655
    -9.7579  -9.7579  -9.6455  -9.6455  -8.7221  -8.7221  -8.4617  -8.4617
    -7.7095  -7.7095  -7.6458  -7.6458  -7.0566  -7.0566  -6.9284  -6.9284
    -6.5814  -6.5814  -6.4582  -6.4582  -5.9709  -5.9709  -5.8476  -5.8476
    -5.5768  -5.5768  -5.4215  -5.4215  -5.0367  -5.0367  -4.9719  -4.9719
    -4.7254  -4.7254  -4.4886  -4.4886  -4.3857  -4.3857  -4.1137  -4.1137
    -3.8747  -3.8747  -3.8233  -3.8233  -3.6268  -3.6268  -3.5032  -3.5032
    -3.4246  -3.4246  -3.1523  -3.1523  -2.8864  -2.8864  -2.8081  -2.8081
    -2.7412  -2.7412  -2.6371  -2.6371  -2.5445  -2.5445  -2.3862  -2.3862
    -2.2054  -2.2054  -2.0845  -2.0845  -1.8895  -1.8895  -1.6983  -1.6983
    -1.3977  -1.3977  -1.3721  -1.3721  -1.2142  -1.2142  -1.1599  -1.1599
    -1.0952  -1.0952  -0.8301  -0.8301  -0.6561  -0.6561  -0.5827  -0.5827
     0.3770   0.3770   0.4106   0.4106   0.4526   0.4526   0.6825   0.6825
     0.7328   0.7328   0.9619   0.9619   1.9059   1.9059   1.9631   1.9631
     4.8772   4.8772   4.9822   4.9822   7.2665   7.2665   7.7156   7.7156
     7.8324   7.8324   8.0165   8.0165   8.2413   8.2413   8.6184   8.6184
     8.9953   8.9953   9.1352   9.1352   9.2940   9.2940   9.3786   9.3786
     9.5916   9.5916   9.7147

          k =-0.5000 0.0000 0.0000 ( 82854 PWs)   bands (ev):

   -19.9072 -19.9072 -19.8717 -19.8717 -19.3079 -19.3079 -19.1114 -19.1114
   -18.9897 -18.9897 -18.8904 -18.8904 -18.7261 -18.7261 -18.4335 -18.4335
   -18.1514 -18.1514 -18.1286 -18.1286 -14.1166 -14.1166 -14.0923 -14.0923
   -11.9743 -11.9743 -11.9075 -11.9075 -10.7015 -10.7015 -10.5728 -10.5728
    -9.7612  -9.7612  -9.7042  -9.7042  -8.7422  -8.7422  -8.4442  -8.4442
    -7.5165  -7.5165  -7.4967  -7.4967  -7.1632  -7.1632  -6.9404  -6.9404
    -6.5526  -6.5526  -6.3042  -6.3042  -5.9849  -5.9849  -5.9277  -5.9277
    -5.4343  -5.4343  -5.3597  -5.3597  -4.9655  -4.9655  -4.8171  -4.8171
    -4.6425  -4.6425  -4.5805  -4.5805  -4.3446  -4.3446  -4.3157  -4.3157
    -3.8196  -3.8196  -3.7045  -3.7045  -3.6192  -3.6192  -3.5107  -3.5107
    -3.3427  -3.3427  -3.1829  -3.1829  -3.1149  -3.1149  -2.9374  -2.9374
    -2.6857  -2.6857  -2.6396  -2.6396  -2.3443  -2.3443  -2.2774  -2.2774
    -2.1305  -2.1305  -2.0777  -2.0777  -1.8607  -1.8607  -1.7213  -1.7213
    -1.5955  -1.5955  -1.4370  -1.4370  -1.2605  -1.2605  -1.0740  -1.0740
    -1.0499  -1.0499  -0.8435  -0.8435  -0.5369  -0.5369  -0.4038  -0.4038
    -0.0699  -0.0699   0.1551   0.1551   0.3975   0.3975   0.5506   0.5506
     0.5982   0.5982   0.9563   0.9563   1.8704   1.8704   1.9288   1.9288
     5.0423   5.0423   5.1091   5.1091   6.8927   6.8927   7.4336   7.4336
     7.7635   7.7635   8.0862   8.0862   8.1460   8.1460   8.3727   8.3727
     8.8121   8.8121   9.0960   9.0960   9.4678   9.4678   9.6375   9.6375
     9.8170   9.8170  10.0369

          k =-0.5000 0.0000-0.7149 ( 82776 PWs)   bands (ev):

   -19.8890 -19.8890 -19.8890 -19.8890 -19.2341 -19.2341 -19.2341 -19.2341
   -18.9428 -18.9428 -18.9428 -18.9428 -18.5517 -18.5517 -18.5517 -18.5517
   -18.1419 -18.1419 -18.1419 -18.1419 -14.1040 -14.1040 -14.1040 -14.1040
   -11.9397 -11.9397 -11.9397 -11.9397 -10.6367 -10.6367 -10.6367 -10.6367
    -9.7343  -9.7343  -9.7343  -9.7343  -8.6186  -8.6186  -8.6186  -8.6186
    -7.5077  -7.5077  -7.5077  -7.5077  -7.0210  -7.0210  -7.0210  -7.0210
    -6.4270  -6.4270  -6.4270  -6.4270  -5.9609  -5.9609  -5.9609  -5.9609
    -5.4154  -5.4154  -5.4154  -5.4154  -4.8636  -4.8636  -4.8636  -4.8636
    -4.6100  -4.6100  -4.6100  -4.6100  -4.3279  -4.3279  -4.3279  -4.3279
    -3.7054  -3.7054  -3.7054  -3.7054  -3.5765  -3.5765  -3.5765  -3.5765
    -3.3512  -3.3512  -3.3512  -3.3512  -3.0332  -3.0332  -3.0332  -3.0332
    -2.6598  -2.6598  -2.6598  -2.6598  -2.2905  -2.2905  -2.2905  -2.2905
    -2.0953  -2.0953  -2.0953  -2.0953  -1.7940  -1.7940  -1.7940  -1.7940
    -1.5293  -1.5293  -1.5293  -1.5293  -1.1742  -1.1742  -1.1742  -1.1742
    -0.9522  -0.9522  -0.9522  -0.9522  -0.4551  -0.4551  -0.4551  -0.4551
     0.0324   0.0324   0.0324   0.0324   0.4991   0.4991   0.4991   0.4991
     0.7802   0.7802   0.7802   0.7802   1.8981   1.8981   1.8981   1.8981
     5.0737   5.0737   5.0737   5.0737   7.0801   7.0801   7.0801   7.0801
     7.9217   7.9217   7.9217   7.9217   8.3437   8.3437   8.3437   8.3437
     9.1461   9.1461   9.1461   9.1461   9.5324   9.5324   9.5324   9.5324
     9.8075   9.8075   9.8075

          k =-0.5000 0.8083 0.0000 ( 82876 PWs)   bands (ev):

   -19.8727 -19.8727 -19.8545 -19.8545 -19.2641 -19.2641 -19.1638 -19.1638
   -18.8822 -18.8822 -18.8284 -18.8284 -18.6040 -18.6040 -18.4966 -18.4966
   -18.3516 -18.3516 -18.3170 -18.3170 -14.1167 -14.1167 -14.0971 -14.0971
   -11.8081 -11.8081 -11.7645 -11.7645 -10.6203 -10.6203 -10.5494 -10.5494
    -9.7259  -9.7259  -9.6820  -9.6820  -8.6757  -8.6757  -8.5167  -8.5167
    -7.6940  -7.6940  -7.6638  -7.6638  -7.1044  -7.1044  -6.8904  -6.8904
    -6.5822  -6.5822  -6.4556  -6.4556  -5.9793  -5.9793  -5.8134  -5.8134
    -5.5297  -5.5297  -5.3974  -5.3974  -5.0421  -5.0421  -4.9704  -4.9704
    -4.7373  -4.7373  -4.5991  -4.5991  -4.3689  -4.3689  -4.2016  -4.2016
    -3.7887  -3.7887  -3.7620  -3.7620  -3.6147  -3.6147  -3.5168  -3.5168
    -3.3596  -3.3596  -3.1991  -3.1991  -2.9202  -2.9202  -2.8195  -2.8195
    -2.7613  -2.7613  -2.6294  -2.6294  -2.5465  -2.5465  -2.3939  -2.3939
    -2.2198  -2.2198  -2.0842  -2.0842  -1.8187  -1.8187  -1.7759  -1.7759
    -1.3900  -1.3900  -1.3355  -1.3355  -1.2250  -1.2250  -1.1581  -1.1581
    -1.0998  -1.0998  -0.8253  -0.8253  -0.6735  -0.6735  -0.5830  -0.5830
     0.3124   0.3124   0.4947   0.4947   0.5421   0.5421   0.6826   0.6826
     0.7624   0.7624   0.8609   0.8609   1.9137   1.9137   1.9467   1.9467
     4.8966   4.8966   4.9575   4.9575   7.3068   7.3068   7.6637   7.6637
     7.8425   7.8425   8.1216   8.1216   8.3199   8.3199   8.6752   8.6752
     8.7973   8.7973   8.9843   8.9843   9.1389   9.1389   9.4034   9.4034
     9.5984   9.5985   9.7919

          k =-0.5000 0.8083-0.7149 ( 82788 PWs)   bands (ev):

   -19.8700 -19.8700 -19.8573 -19.8573 -19.2947 -19.2947 -19.1035 -19.1035
   -18.8923 -18.8923 -18.8402 -18.8402 -18.6474 -18.6474 -18.4716 -18.4716
   -18.3503 -18.3503 -18.3068 -18.3068 -14.1355 -14.1355 -14.0789 -14.0789
   -11.7962 -11.7962 -11.7762 -11.7762 -10.5994 -10.5994 -10.5739 -10.5739
    -9.7153  -9.7153  -9.6938  -9.6938  -8.7210  -8.7210  -8.4596  -8.4596
    -7.6956  -7.6956  -7.6543  -7.6543  -7.0031  -7.0031  -6.9903  -6.9903
    -6.5317  -6.5317  -6.5120  -6.5120  -5.9394  -5.9394  -5.9204  -5.9204
    -5.5083  -5.5083  -5.4083  -5.4083  -5.0582  -5.0582  -4.9502  -4.9502
    -4.6673  -4.6673  -4.6211  -4.6211  -4.2859  -4.2859  -4.2698  -4.2698
    -3.7989  -3.7989  -3.7235  -3.7235  -3.6337  -3.6337  -3.5989  -3.5989
    -3.4073  -3.4073  -3.1234  -3.1234  -2.8691  -2.8691  -2.8598  -2.8598
    -2.7101  -2.7101  -2.6997  -2.6997  -2.4679  -2.4679  -2.4280  -2.4280
    -2.1679  -2.1679  -2.1046  -2.1046  -1.8894  -1.8894  -1.7004  -1.7004
    -1.4032  -1.4032  -1.3720  -1.3720  -1.1991  -1.1991  -1.1830  -1.1830
    -1.0501  -1.0501  -0.9020  -0.9020  -0.6237  -0.6237  -0.5801  -0.5801
     0.3918   0.3918   0.4041   0.4041   0.4527   0.4527   0.6762   0.6762
     0.7307   0.7307   0.9607   0.9607   1.9282   1.9282   1.9419   1.9419
     4.8914   4.8914   4.9668   4.9668   7.4040   7.4040   7.4585   7.4585
     7.8772   7.8772   8.0295   8.0295   8.5034   8.5034   8.5465   8.5465
     8.8579   8.8579   9.0261   9.0261   9.3362   9.3362   9.4239   9.4239
     9.6587   9.6589   9.6912

     highest occupied, lowest unoccupied level (ev):     1.9697    4.8642

!    total energy              =   -1397.23320819 Ry
     Harris-Foulkes estimate   =   -1397.23320819 Ry
     estimated scf accuracy    <          1.8E-09 Ry

     total all-electron energy =     -5191.565723 Ry

     The total energy is the sum of the following terms:

     one-electron contribution =    -647.62051722 Ry
     hartree contribution      =     438.95063233 Ry
     xc contribution           =    -293.56158533 Ry
     ewald contribution        =    -518.18435362 Ry
     Dispersion Correction     =      -0.42614658 Ry
     one-center paw contrib.   =    -376.39123777 Ry

     convergence has been achieved in  18 iterations

     Forces acting on atoms (cartesian axes, Ry/au):

     atom    1 type  4   force =     0.00695776   -0.00095942    0.00160619
     atom    2 type  4   force =    -0.00695776    0.00095942    0.00160619
     atom    3 type  4   force =    -0.00695776   -0.00095942    0.00160619
     atom    4 type  4   force =     0.00695776    0.00095942    0.00160619
     atom    5 type  4   force =     0.00095242    0.00092504    0.00049573
     atom    6 type  4   force =    -0.00095242   -0.00092504    0.00049573
     atom    7 type  4   force =    -0.00095242    0.00092504    0.00049573
     atom    8 type  4   force =     0.00095242   -0.00092504    0.00049573
     atom    9 type  3   force =     0.00005552    0.00058889   -0.00080941
     atom   10 type  3   force =    -0.00005552   -0.00058889   -0.00080941
     atom   11 type  3   force =    -0.00005552    0.00058889   -0.00080941
     atom   12 type  3   force =     0.00005552   -0.00058889   -0.00080941
     atom   13 type  4   force =    -0.00703053   -0.00009540   -0.00268323
     atom   14 type  4   force =     0.00703053    0.00009540   -0.00268323
     atom   15 type  4   force =     0.00703053   -0.00009540   -0.00268323
     atom   16 type  4   force =    -0.00703053    0.00009540   -0.00268323
     atom   17 type  3   force =    -0.00038954    0.00189013    0.00026246
     atom   18 type  3   force =     0.00038954   -0.00189013    0.00026246
     atom   19 type  3   force =     0.00038954    0.00189013    0.00026246
     atom   20 type  3   force =    -0.00038954   -0.00189013    0.00026246
     atom   21 type  4   force =     0.00546372   -0.00203182    0.00851773
     atom   22 type  4   force =    -0.00546372    0.00203182    0.00851773
     atom   23 type  4   force =    -0.00546372   -0.00203182    0.00851773
     atom   24 type  4   force =     0.00546372    0.00203182    0.00851773
     atom   25 type  3   force =     0.00037689   -0.00006908    0.00008168
     atom   26 type  3   force =    -0.00037689    0.00006908    0.00008168
     atom   27 type  3   force =    -0.00037689   -0.00006908    0.00008168
     atom   28 type  3   force =     0.00037689    0.00006908    0.00008168
     atom   29 type  4   force =    -0.00819882   -0.00562092    0.01518295
     atom   30 type  4   force =     0.00819882    0.00562092    0.01518295
     atom   31 type  4   force =     0.00819882   -0.00562092    0.01518295
     atom   32 type  4   force =    -0.00819882    0.00562092    0.01518295
     atom   33 type  3   force =    -0.00165057    0.01076261   -0.00289542
     atom   34 type  3   force =     0.00165057   -0.01076261   -0.00289542
     atom   35 type  3   force =     0.00165057    0.01076261   -0.00289542
     atom   36 type  3   force =    -0.00165057   -0.01076261   -0.00289542
     atom   37 type  1   force =    -0.00032898   -0.00726422   -0.00293425
     atom   38 type  1   force =     0.00032898    0.00726422   -0.00293425
     atom   39 type  1   force =     0.00032898   -0.00726422   -0.00293425
     atom   40 type  1   force =    -0.00032898    0.00726422   -0.00293425
     atom   41 type  1   force =     0.00332611   -0.00345620   -0.00391324
     atom   42 type  1   force =    -0.00332611    0.00345620   -0.00391324
     atom   43 type  1   force =    -0.00332611   -0.00345620   -0.00391324
     atom   44 type  1   force =     0.00332611    0.00345620   -0.00391324
     atom   45 type  1   force =     0.00548633    0.01030179    0.00000928
     atom   46 type  1   force =    -0.00548633   -0.01030179    0.00000928
     atom   47 type  1   force =    -0.00548633    0.01030179    0.00000928
     atom   48 type  1   force =     0.00548633   -0.01030179    0.00000928
     atom   49 type  1   force =    -0.00655626   -0.00043476    0.00140196
     atom   50 type  1   force =     0.00655626    0.00043476    0.00140196
     atom   51 type  1   force =     0.00655626   -0.00043476    0.00140196
     atom   52 type  1   force =    -0.00655626    0.00043476    0.00140196
     atom   53 type  3   force =    -0.00001077    0.00143162    0.00323200
     atom   54 type  3   force =     0.00001077   -0.00143162    0.00323200
     atom   55 type  3   force =     0.00001077    0.00143162    0.00323200
     atom   56 type  3   force =    -0.00001077   -0.00143162    0.00323200
     atom   57 type  1   force =     0.00109298    0.00124980    0.00308332
     atom   58 type  1   force =    -0.00109298   -0.00124980    0.00308332
     atom   59 type  1   force =    -0.00109298    0.00124980    0.00308332
     atom   60 type  1   force =     0.00109298   -0.00124980    0.00308332
     atom   61 type  3   force =    -0.00227710   -0.00333045   -0.00050011
     atom   62 type  3   force =     0.00227710    0.00333045   -0.00050011
     atom   63 type  3   force =     0.00227710   -0.00333045   -0.00050011
     atom   64 type  3   force =    -0.00227710    0.00333045   -0.00050011
     atom   65 type  3   force =     0.00015589   -0.00043441    0.00174368
     atom   66 type  3   force =    -0.00015589    0.00043441    0.00174368
     atom   67 type  3   force =    -0.00015589   -0.00043441    0.00174368
     atom   68 type  3   force =     0.00015589    0.00043441    0.00174368
     atom   69 type  1   force =     0.00111339   -0.01558753   -0.00962950
     atom   70 type  1   force =    -0.00111339    0.01558753   -0.00962950
     atom   71 type  1   force =    -0.00111339   -0.01558753   -0.00962950
     atom   72 type  1   force =     0.00111339    0.01558753   -0.00962950
     atom   73 type  3   force =     0.00062620    0.00181382   -0.00047397
     atom   74 type  3   force =    -0.00062620   -0.00181382   -0.00047397
     atom   75 type  3   force =    -0.00062620    0.00181382   -0.00047397
     atom   76 type  3   force =     0.00062620   -0.00181382   -0.00047397
     atom   77 type  1   force =     0.00495967    0.01349792   -0.01063244
     atom   78 type  1   force =    -0.00495967   -0.01349792   -0.01063244
     atom   79 type  1   force =    -0.00495967    0.01349792   -0.01063244
     atom   80 type  1   force =     0.00495967   -0.01349792   -0.01063244
     atom   81 type  3   force =    -0.00027747   -0.00344498   -0.00041048
     atom   82 type  3   force =     0.00027747    0.00344498   -0.00041048
     atom   83 type  3   force =     0.00027747   -0.00344498   -0.00041048
     atom   84 type  3   force =    -0.00027747    0.00344498   -0.00041048
     atom   85 type  3   force =    -0.00095722    0.00013847   -0.00073495
     atom   86 type  3   force =     0.00095722   -0.00013847   -0.00073495
     atom   87 type  3   force =     0.00095722    0.00013847   -0.00073495
     atom   88 type  3   force =    -0.00095722   -0.00013847   -0.00073495

     Total force =     0.081934     Total SCF correction =     0.000091


     Computing stress (Cartesian axis) and pressure

          total   stress  (Ry/bohr**3)                   (kbar)     P=   -6.80
   0.00000465   0.00000000   0.00000000          0.68      0.00      0.00
   0.00000000  -0.00009043   0.00000000          0.00    -13.30      0.00
   0.00000000   0.00000000  -0.00005293          0.00      0.00     -7.79


     Writing output data file scf.save
 
     init_run     :     29.19s CPU     30.27s WALL (       1 calls)
     electrons    :   1194.75s CPU   1238.89s WALL (       1 calls)
     forces       :     13.97s CPU     14.10s WALL (       1 calls)
     stress       :     56.62s CPU     56.79s WALL (       1 calls)

     Called by init_run:
     wfcinit      :     24.47s CPU     25.43s WALL (       1 calls)
     potinit      :      1.67s CPU      1.69s WALL (       1 calls)

     Called by electrons:
     c_bands      :   1073.23s CPU   1110.84s WALL (      18 calls)
     sum_band     :    110.55s CPU    115.93s WALL (      18 calls)
     v_of_rho     :      1.91s CPU      2.09s WALL (      19 calls)
     newd         :      3.50s CPU      4.43s WALL (      19 calls)
     PAW_pot      :      4.83s CPU      4.83s WALL (      19 calls)
     mix_rho      :      0.42s CPU      0.46s WALL (      18 calls)

     Called by c_bands:
     init_us_2    :      6.49s CPU      6.52s WALL (     312 calls)
     cegterg      :   1049.24s CPU   1086.77s WALL (     144 calls)

     Called by sum_band:
     sum_band:bec :      0.07s CPU      0.07s WALL (     144 calls)
     addusdens    :      3.54s CPU      4.50s WALL (      18 calls)

     Called by *egterg:
     h_psi        :    578.84s CPU    606.90s WALL (     624 calls)
     s_psi        :    117.90s CPU    117.92s WALL (     624 calls)
     g_psi        :      2.94s CPU      2.94s WALL (     472 calls)
     cdiaghg      :     62.47s CPU     62.48s WALL (     616 calls)

     Called by h_psi:
     h_psi:pot    :    574.38s CPU    602.38s WALL (     624 calls)
     h_psi:calbec :    118.36s CPU    118.62s WALL (     624 calls)
     vloc_psi     :    337.70s CPU    365.42s WALL (     624 calls)
     add_vuspsi   :    118.32s CPU    118.33s WALL (     624 calls)

     General routines
     calbec       :    169.85s CPU    170.22s WALL (     808 calls)
     fft          :      1.07s CPU      1.36s WALL (     271 calls)
     fftw         :    360.35s CPU    389.77s WALL (  158384 calls)
 
     Parallel routines
     fft_scatter  :     80.50s CPU    101.94s WALL (  158655 calls)
 
     PWSCF        : 21m42.56s CPU    23m 6.87s WALL

 
   This run was terminated on:   7:37:57   7Dec2017            

=------------------------------------------------------------------------------=
   JOB DONE.
=------------------------------------------------------------------------------=
