
     Program PWSCF v.6.1 (svn rev. 13369) starts on  4Nov2017 at  5:26:36 

     This program is part of the open-source Quantum ESPRESSO suite
     for quantum simulation of materials; please cite
         "P. Giannozzi et al., J. Phys.:Condens. Matter 21 395502 (2009);
          URL http://www.quantum-espresso.org", 
     in publications or presentations arising from this work. More details at
     http://www.quantum-espresso.org/quote

     Parallel version (MPI), running on     8 processors
     R & G space division:  proc/nbgrp/npool/nimage =       8
     Waiting for input...
     Reading input from standard input

     Current dimensions of program PWSCF are:
     Max number of different atomic species (ntypx) = 10
     Max number of k-points (npk) =  40000
     Max angular momentum in pseudopotentials (lmaxx) =  3
               file C.pbe-n-kjpaw_psl.0.1.UPF: wavefunction(s)  2P renormalized
               file N.pbe-n-kjpaw_psl.0.1.UPF: wavefunction(s)  2P renormalized
               file H.pbe-kjpaw_psl.0.1.UPF: wavefunction(s)  1S renormalized
               file O.pbe-n-kjpaw_psl.0.1.UPF: wavefunction(s)  2P renormalized

     -------------------------------------
     Parameters for Dispersion Correction:
     -------------------------------------
       atom      VdW radius       C_6     

        C          2.744         60.710
        N          2.640         42.670
        H          1.892          4.857
        O          2.536         24.284

     Subspace diagonalization in iterative solution of the eigenvalue problem:
     a serial algorithm will be used

 
     Parallelization info
     --------------------
     sticks:   dense  smooth     PW     G-vecs:    dense   smooth      PW
     Min         862     862    235                81791    81791   11584
     Max         863     863    236                81794    81794   11587
     Sum        6899    6899   1881               654337   654337   92679
 


     bravais-lattice index     =            0
     lattice parameter (alat)  =       8.5270  a.u.
     unit-cell volume          =    4843.4605 (a.u.)^3
     number of atoms/cell      =           72
     number of atomic types    =            4
     number of electrons       =       280.00
     number of Kohn-Sham states=          168
     kinetic-energy cutoff     =     100.0000  Ry
     charge density cutoff     =     400.0000  Ry
     convergence threshold     =      1.0E-08
     mixing beta               =       0.5000
     number of iterations used =            8  plain     mixing
     Exchange-correlation      =  SLA  PW   PBX  PBC ( 1  4  3  4 0 0)

     celldm(1)=   8.527011  celldm(2)=   0.000000  celldm(3)=   0.000000
     celldm(4)=   0.000000  celldm(5)=   0.000000  celldm(6)=   0.000000

     crystal axes: (cart. coord. in units of alat)
               a(1) = (   1.000000   0.000000   0.000000 )  
               a(2) = (   0.000000   2.978304   0.000000 )  
               a(3) = (  -0.230450   0.000000   2.622988 )  

     reciprocal axes: (cart. coord. in units 2 pi/alat)
               b(1) = (  1.000000  0.000000  0.087858 )  
               b(2) = (  0.000000  0.335762  0.000000 )  
               b(3) = (  0.000000  0.000000  0.381245 )  


     PseudoPot. # 1 for  C read from file:
     /scratch/ahofstet/pseudo/C.pbe-n-kjpaw_psl.0.1.UPF
     MD5 check sum: 430fe95172b1e11ef3f8ed03bac87931
     Pseudo is Projector augmented-wave + core cor, Zval =  4.0
     Generated using "atomic" code by A. Dal Corso  v.5.0.99 svn rev. 10869
     Shape of augmentation charge: BESSEL
     Using radial grid of 1073 points,  4 beta functions with: 
                l(1) =   0
                l(2) =   0
                l(3) =   1
                l(4) =   1
     Q(r) pseudized with 0 coefficients 


     PseudoPot. # 2 for  N read from file:
     /scratch/ahofstet/pseudo/N.pbe-n-kjpaw_psl.0.1.UPF
     MD5 check sum: f73187c8b701007e77325f868c9291d7
     Pseudo is Projector augmented-wave + core cor, Zval =  5.0
     Generated using "atomic" code by A. Dal Corso  v.5.0.99 svn rev. 10869
     Shape of augmentation charge: PSQ
     Using radial grid of 1085 points,  4 beta functions with: 
                l(1) =   0
                l(2) =   0
                l(3) =   1
                l(4) =   1
     Q(r) pseudized with 0 coefficients 


     PseudoPot. # 3 for  H read from file:
     /scratch/ahofstet/pseudo/H.pbe-kjpaw_psl.0.1.UPF
     MD5 check sum: 94e484f906d9e9773b2f6e52662335b2
     Pseudo is Projector augmented-wave, Zval =  1.0
     Generated using "atomic" code by A. Dal Corso  v.5.0.99 svn rev. 10869
     Shape of augmentation charge: PSQ
     Using radial grid of  929 points,  2 beta functions with: 
                l(1) =   0
                l(2) =   0
     Q(r) pseudized with 0 coefficients 


     PseudoPot. # 4 for  O read from file:
     /scratch/ahofstet/pseudo/O.pbe-n-kjpaw_psl.0.1.UPF
     MD5 check sum: 3f94a2996a3169367d6eb21d9b593f20
     Pseudo is Projector augmented-wave + core cor, Zval =  6.0
     Generated using "atomic" code by A. Dal Corso  v.5.0.99 svn rev. 10869
     Shape of augmentation charge: BESSEL
     Using radial grid of 1095 points,  4 beta functions with: 
                l(1) =   0
                l(2) =   0
                l(3) =   1
                l(4) =   1
     Q(r) pseudized with 0 coefficients 


     atomic species   valence    mass     pseudopotential
        C              4.00    12.01070      C( 1.00)
        N              5.00    14.00670      N( 1.00)
        H              1.00     1.00794      H( 1.00)
        O              6.00    15.99940      O( 1.00)

      2 Sym. Ops., with inversion, found



   Cartesian axes

     site n.     atom                  positions (alat units)
         1           N   tau(   1) = (   0.7937102   0.0741477   1.6282810  )
         2           N   tau(   2) = (   0.3606871   1.5635536   2.3062065  )
         3           N   tau(   3) = (  -0.0241607   2.9041561   0.9947068  )
         4           N   tau(   4) = (   0.4088625   1.4147501   0.3167813  )
         5           C   tau(   5) = (   0.6010508   0.2964146   1.6046941  )
         6           C   tau(   6) = (   0.5533795   1.7858302   2.3296885  )
         7           C   tau(   7) = (   0.1684987   2.6818892   1.0182937  )
         8           C   tau(   8) = (   0.2161700   1.1924735   0.2932993  )
         9           N   tau(   9) = (   0.3622589   0.3042169   1.4308410  )
        10           N   tau(  10) = (   0.7922210   1.7935586   2.5034454  )
        11           N   tau(  11) = (   0.4072906   2.6740868   1.1921468  )
        12           N   tau(  12) = (  -0.0226714   1.1847451   0.1195424  )
        13           O   tau(  13) = (   0.2608630   0.5978335   1.4491703  )
        14           O   tau(  14) = (   0.8936227   2.0871635   2.4852414  )
        15           O   tau(  15) = (   0.5086865   2.3804702   1.1738175  )
        16           O   tau(  16) = (  -0.1240731   0.8911403   0.1377464  )
        17           N   tau(  17) = (   0.4289579   0.7634555   1.6428807  )
        18           N   tau(  18) = (   0.7255391   2.2528662   2.2915632  )
        19           N   tau(  19) = (   0.3405916   2.2148482   0.9801070  )
        20           N   tau(  20) = (   0.0440105   0.7254375   0.3314246  )
        21           C   tau(  21) = (   0.6363471   0.5847484   1.7442247  )
        22           C   tau(  22) = (   0.5181876   2.0741900   2.1901142  )
        23           C   tau(  23) = (   0.1332024   2.3935554   0.8787631  )
        24           C   tau(  24) = (   0.2513619   0.9041138   0.4328736  )
        25           C   tau(  25) = (  -0.1439320   0.6533684   1.9647912  )
        26           C   tau(  26) = (   0.2985140   2.1428053   1.9694785  )
        27           C   tau(  27) = (   0.9134815   2.3249353   0.6581966  )
        28           C   tau(  28) = (   0.4710356   0.8354985   0.6535093  )
        29           N   tau(  29) = (  -0.0593713   0.9266217   2.0659136  )
        30           N   tau(  30) = (   0.2136784   2.4160289   1.8685142  )
        31           N   tau(  31) = (   0.8289208   2.0516820   0.5570741  )
        32           N   tau(  32) = (   0.5558712   0.5622749   0.7544736  )
        33           O   tau(  33) = (  -0.1714221   1.1894351   1.9896941  )
        34           O   tau(  34) = (   0.3255549   2.6788430   1.9449711  )
        35           O   tau(  35) = (   0.9409716   1.7888686   0.6332937  )
        36           O   tau(  36) = (   0.4439947   0.2994607   0.6780167  )
        37           N   tau(  37) = (   0.1598901   0.8977327   2.2607649  )
        38           N   tau(  38) = (  -0.0057095   2.3870119   1.6737892  )
        39           N   tau(  39) = (   0.6096594   2.0805711   0.3622229  )
        40           N   tau(  40) = (   0.7752591   0.5912919   0.9491986  )
        41           N   tau(  41) = (   0.2109388   0.6106515   2.2801310  )
        42           N   tau(  42) = (   0.9435021   2.0998820   1.6543365  )
        43           N   tau(  43) = (   0.5586108   2.3676523   0.3428568  )
        44           N   tau(  44) = (  -0.1739526   0.8784218   0.9686513  )
        45           N   tau(  45) = (   0.0334100   0.4558195   2.0969096  )
        46           N   tau(  46) = (   0.1212753   1.9451482   1.8373815  )
        47           N   tau(  47) = (   0.7361396   2.5224842   0.5260782  )
        48           N   tau(  48) = (   0.6482743   1.0331555   0.7856062  )
        49           H   tau(  49) = (  -0.0530223   0.0778690   1.7928506  )
        50           H   tau(  50) = (   0.2075228   1.5672367   2.1415449  )
        51           H   tau(  51) = (   0.8225718   2.9004348   0.8301372  )
        52           H   tau(  52) = (   0.5620267   1.4110670   0.4814429  )
        53           H   tau(  53) = (   0.7452130   2.8567068   1.5275018  )
        54           H   tau(  54) = (   0.4092528   1.3677844   2.4069550  )
        55           H   tau(  55) = (   0.0243365   0.1215969   1.0954860  )
        56           H   tau(  56) = (   0.3602967   1.6105194   0.2160328  )
        57           H   tau(  57) = (  -0.1082458   1.2124714   1.7575445  )
        58           H   tau(  58) = (   0.2624234   2.7016271   2.1772761  )
        59           H   tau(  59) = (   0.8777953   1.7658323   0.8654432  )
        60           H   tau(  60) = (   0.5071262   0.2766767   0.4457117  )
        61           O   tau(  61) = (   0.0354977   1.2168999   1.4814655  )
        62           O   tau(  62) = (   0.1188082   2.7060703   2.4532306  )
        63           O   tau(  63) = (   0.7340518   1.7614038   1.1415222  )
        64           O   tau(  64) = (   0.6507413   0.2722335   0.1697572  )
        65           H   tau(  65) = (  -0.0511007   1.1052410   1.3128374  )
        66           H   tau(  66) = (   0.4359562   2.5944223  -0.0011638  )
        67           H   tau(  67) = (   0.8206503   1.8730627   1.3101504  )
        68           H   tau(  68) = (   0.3335934   0.3838815   2.6241516  )
        69           H   tau(  69) = (   0.2220312   1.1129460   1.5260753  )
        70           H   tau(  70) = (   0.1627712   2.6020615  -0.2144716  )
        71           H   tau(  71) = (   0.5475183   1.8653578   1.0969125  )
        72           H   tau(  72) = (   0.6067783   0.3762422   2.8374593  )

     number of k points=    12
                       cart. coord. in units 2pi/alat
        k(    1) = (   0.0000000   0.0000000   0.0000000), wk =   0.1250000
        k(    2) = (   0.0000000   0.0000000  -0.1906223), wk =   0.1250000
        k(    3) = (   0.0000000  -0.1678808   0.0000000), wk =   0.1250000
        k(    4) = (   0.0000000  -0.1678808  -0.1906223), wk =   0.1250000
        k(    5) = (   0.2500000   0.0000000   0.0219645), wk =   0.2500000
        k(    6) = (   0.2500000   0.0000000  -0.1686578), wk =   0.2500000
        k(    7) = (   0.2500000  -0.1678808   0.0219645), wk =   0.2500000
        k(    8) = (   0.2500000  -0.1678808  -0.1686578), wk =   0.2500000
        k(    9) = (  -0.5000000   0.0000000  -0.0439290), wk =   0.1250000
        k(   10) = (  -0.5000000   0.0000000  -0.2345513), wk =   0.1250000
        k(   11) = (  -0.5000000  -0.1678808  -0.0439290), wk =   0.1250000
        k(   12) = (  -0.5000000  -0.1678808  -0.2345513), wk =   0.1250000

     Dense  grid:   654337 G-vectors     FFT dimensions: (  60, 162, 144)

     Estimated max dynamical RAM per process >     684.94MB

     Estimated total allocated dynamical RAM >    5479.49MB

     Check: negative/imaginary core charge=   -0.000002    0.000000

     Initial potential from superposition of free atoms

     starting charge  279.99909, renormalised to  280.00000
     Starting wfc are  228 randomized atomic wfcs
     Checking if some PAW data can be deallocated... 

     total cpu time spent up to now is       39.2 secs

     per-process dynamical memory:   540.2 Mb

     Self-consistent Calculation

     iteration #  1     ecut=   100.00 Ry     beta=0.50
     Davidson diagonalization with overlap
     ethr =  1.00E-02,  avg # of iterations =  3.0

     total cpu time spent up to now is      139.7 secs

     total energy              =   -1532.37222733 Ry
     Harris-Foulkes estimate   =   -1535.74580973 Ry
     estimated scf accuracy    <       6.28946815 Ry

     iteration #  2     ecut=   100.00 Ry     beta=0.50
     Davidson diagonalization with overlap
     ethr =  2.25E-03,  avg # of iterations =  3.0

     total cpu time spent up to now is      214.4 secs

     total energy              =   -1533.36078401 Ry
     Harris-Foulkes estimate   =   -1534.10047261 Ry
     estimated scf accuracy    <       1.57376057 Ry

     iteration #  3     ecut=   100.00 Ry     beta=0.50
     Davidson diagonalization with overlap
     ethr =  5.62E-04,  avg # of iterations =  2.6

     total cpu time spent up to now is      284.5 secs

     total energy              =   -1533.68543905 Ry
     Harris-Foulkes estimate   =   -1533.79908313 Ry
     estimated scf accuracy    <       0.29505697 Ry

     iteration #  4     ecut=   100.00 Ry     beta=0.50
     Davidson diagonalization with overlap
     ethr =  1.05E-04,  avg # of iterations =  8.7

     total cpu time spent up to now is      368.4 secs

     total energy              =   -1533.73875829 Ry
     Harris-Foulkes estimate   =   -1533.75951075 Ry
     estimated scf accuracy    <       0.05843563 Ry

     iteration #  5     ecut=   100.00 Ry     beta=0.50
     Davidson diagonalization with overlap
     ethr =  2.09E-05,  avg # of iterations = 10.1

     total cpu time spent up to now is      464.0 secs

     total energy              =   -1533.75295847 Ry
     Harris-Foulkes estimate   =   -1533.75407204 Ry
     estimated scf accuracy    <       0.00496322 Ry

     iteration #  6     ecut=   100.00 Ry     beta=0.50
     Davidson diagonalization with overlap
     ethr =  1.77E-06,  avg # of iterations =  6.8

     total cpu time spent up to now is      564.9 secs

     total energy              =   -1533.75413846 Ry
     Harris-Foulkes estimate   =   -1533.75449739 Ry
     estimated scf accuracy    <       0.00108747 Ry

     iteration #  7     ecut=   100.00 Ry     beta=0.50
     Davidson diagonalization with overlap
     ethr =  3.88E-07,  avg # of iterations =  2.0

     total cpu time spent up to now is      630.5 secs

     total energy              =   -1533.75432560 Ry
     Harris-Foulkes estimate   =   -1533.75441154 Ry
     estimated scf accuracy    <       0.00028007 Ry

     iteration #  8     ecut=   100.00 Ry     beta=0.50
     Davidson diagonalization with overlap
     ethr =  1.00E-07,  avg # of iterations =  2.9

     total cpu time spent up to now is      699.0 secs

     total energy              =   -1533.75437928 Ry
     Harris-Foulkes estimate   =   -1533.75440718 Ry
     estimated scf accuracy    <       0.00008034 Ry

     iteration #  9     ecut=   100.00 Ry     beta=0.50
     Davidson diagonalization with overlap
     ethr =  2.87E-08,  avg # of iterations =  2.9

     total cpu time spent up to now is      760.5 secs

     total energy              =   -1533.75439519 Ry
     Harris-Foulkes estimate   =   -1533.75439849 Ry
     estimated scf accuracy    <       0.00000962 Ry

     iteration # 10     ecut=   100.00 Ry     beta=0.50
     Davidson diagonalization with overlap
     ethr =  3.43E-09,  avg # of iterations =  3.0

     total cpu time spent up to now is      855.4 secs

     total energy              =   -1533.75439892 Ry
     Harris-Foulkes estimate   =   -1533.75439981 Ry
     estimated scf accuracy    <       0.00000288 Ry

     iteration # 11     ecut=   100.00 Ry     beta=0.50
     Davidson diagonalization with overlap
     ethr =  1.03E-09,  avg # of iterations =  2.8

     total cpu time spent up to now is      916.5 secs

     total energy              =   -1533.75439934 Ry
     Harris-Foulkes estimate   =   -1533.75439958 Ry
     estimated scf accuracy    <       0.00000078 Ry

     iteration # 12     ecut=   100.00 Ry     beta=0.50
     Davidson diagonalization with overlap
     ethr =  2.78E-10,  avg # of iterations =  3.0

     total cpu time spent up to now is      980.6 secs

     total energy              =   -1533.75439952 Ry
     Harris-Foulkes estimate   =   -1533.75439955 Ry
     estimated scf accuracy    <       0.00000011 Ry

     iteration # 13     ecut=   100.00 Ry     beta=0.50
     Davidson diagonalization with overlap
     ethr =  3.95E-11,  avg # of iterations =  3.0

     total cpu time spent up to now is     1073.3 secs

     total energy              =   -1533.75439956 Ry
     Harris-Foulkes estimate   =   -1533.75439957 Ry
     estimated scf accuracy    <       0.00000002 Ry

     iteration # 14     ecut=   100.00 Ry     beta=0.50
     Davidson diagonalization with overlap
     ethr =  7.13E-12,  avg # of iterations =  2.0

     total cpu time spent up to now is     1136.6 secs

     End of self-consistent calculation

          k = 0.0000 0.0000 0.0000 ( 81859 PWs)   bands (ev):

   -22.5570 -22.5531 -22.5256 -22.5232 -22.3176 -22.3125 -22.2843 -22.2833
   -20.1094 -20.1032 -20.0920 -20.0875 -18.3321 -18.3023 -18.2931 -18.2667
   -16.4990 -16.4895 -16.3719 -16.3703 -15.9395 -15.9098 -15.9031 -15.8846
   -15.4182 -15.4172 -15.3950 -15.3864 -14.4681 -14.4380 -14.4249 -14.4055
   -13.5450 -13.5169 -13.5117 -13.5038 -10.3650 -10.3635 -10.3162 -10.3051
    -9.8742  -9.8217  -9.8004  -9.7833  -8.6175  -8.5942  -8.5608  -8.5255
    -8.4771  -8.3624  -8.3062  -8.2641  -7.3300  -7.2536  -7.2413  -7.1676
    -6.6280  -6.4943  -6.4557  -6.4245  -6.0724  -6.0430  -6.0401  -6.0274
    -5.7789  -5.7603  -5.7246  -5.6935  -5.5707  -5.4245  -5.4212  -5.4089
    -4.9526  -4.9439  -4.9280  -4.9042  -4.6626  -4.6551  -4.6526  -4.6054
    -4.2281  -4.2151  -3.9443  -3.9438  -3.2829  -3.1428  -3.1326  -3.0876
    -2.7165  -2.7100  -2.5381  -2.5074  -2.4976  -2.4616  -2.2804  -2.2574
    -2.2287  -2.1922  -2.1851  -2.0898  -1.5774  -1.5574  -1.5504  -1.4758
    -1.4507  -1.3167  -1.2630  -1.2385  -1.1912  -1.1547  -1.1121  -0.9952
    -0.8399  -0.7456  -0.6649  -0.6040  -0.5838  -0.5357  -0.4036  -0.3756
    -0.3223  -0.2874  -0.1436  -0.0940  -0.0681  -0.0534  -0.0005   0.0105
     0.2528   0.2682   0.3008   0.3295   0.3570   0.4513   0.4796   0.6098
     1.4000   1.5572   1.6799   1.6825   4.5077   4.5589   4.5931   4.6086
     5.5428   5.5741   5.5760   5.5793   6.6063   6.6838   6.7071   6.7690
     7.0650   7.3395   7.8143   7.8883   7.9757   8.0755   8.1291   8.1971
     8.4819   8.6129   8.6431   8.6758   8.8956   8.9190   8.9333   9.0094

          k = 0.0000 0.0000-0.1906 ( 81872 PWs)   bands (ev):

   -22.5426 -22.5425 -22.5390 -22.5388 -22.3002 -22.3002 -22.2967 -22.2967
   -20.1009 -20.1008 -20.0953 -20.0953 -18.3179 -18.3166 -18.2805 -18.2793
   -16.4946 -16.4943 -16.3709 -16.3709 -15.9225 -15.9220 -15.8969 -15.8966
   -15.4071 -15.4071 -15.4009 -15.4008 -14.4532 -14.4531 -14.4150 -14.4150
   -13.5343 -13.5342 -13.5046 -13.5045 -10.3416 -10.3413 -10.3341 -10.3338
    -9.8523  -9.8518  -9.7876  -9.7872  -8.5884  -8.5879  -8.5631  -8.5626
    -8.4264  -8.4261  -8.2782  -8.2780  -7.3033  -7.3025  -7.1952  -7.1946
    -6.5461  -6.5457  -6.4615  -6.4608  -6.0671  -6.0670  -6.0227  -6.0222
    -5.7399  -5.7399  -5.7255  -5.7251  -5.5184  -5.5177  -5.4021  -5.4019
    -4.9444  -4.9443  -4.9171  -4.9169  -4.6595  -4.6594  -4.6312  -4.6311
    -4.1116  -4.1114  -4.0707  -4.0706  -3.2454  -3.2452  -3.0895  -3.0891
    -2.6133  -2.6131  -2.5875  -2.5873  -2.4035  -2.4034  -2.3461  -2.3460
    -2.2369  -2.2367  -2.1402  -2.1399  -1.5702  -1.5699  -1.4832  -1.4830
    -1.3889  -1.3889  -1.2672  -1.2670  -1.1620  -1.1619  -1.0500  -1.0499
    -0.7592  -0.7581  -0.6615  -0.6610  -0.5644  -0.5640  -0.3835  -0.3831
    -0.2870  -0.2868  -0.1312  -0.1308  -0.0956  -0.0954   0.0130   0.0144
     0.2482   0.2491   0.3277   0.3282   0.4303   0.4305   0.5335   0.5338
     1.4687   1.4690   1.6864   1.6865   4.5465   4.5465   4.5899   4.5899
     5.5586   5.5587   5.5785   5.5786   6.6581   6.6581   6.7147   6.7148
     7.2022   7.2034   7.8106   7.8111   8.1219   8.1238   8.1635   8.1646
     8.5501   8.5505   8.6320   8.6324   8.7545   8.7548   9.0129   9.0134

          k = 0.0000-0.1679 0.0000 ( 81820 PWs)   bands (ev):

   -22.5551 -22.5551 -22.5244 -22.5244 -22.3151 -22.3151 -22.2838 -22.2838
   -20.1063 -20.1063 -20.0898 -20.0897 -18.3224 -18.3214 -18.2758 -18.2749
   -16.4945 -16.4942 -16.3709 -16.3709 -15.9290 -15.9286 -15.8898 -15.8896
   -15.4180 -15.4180 -15.3906 -15.3905 -14.4472 -14.4469 -14.4217 -14.4215
   -13.5294 -13.5292 -13.5090 -13.5088 -10.3644 -10.3644 -10.3105 -10.3105
    -9.8404  -9.8395  -9.8017  -9.8009  -8.6051  -8.6050  -8.5473  -8.5469
    -8.4146  -8.4139  -8.2872  -8.2867  -7.2926  -7.2916  -7.2056  -7.2047
    -6.5665  -6.5663  -6.4360  -6.4357  -6.0728  -6.0721  -6.0145  -6.0139
    -5.7854  -5.7853  -5.7087  -5.7086  -5.4913  -5.4906  -5.4062  -5.4059
    -4.9344  -4.9342  -4.9288  -4.9288  -4.6714  -4.6712  -4.6192  -4.6191
    -4.2254  -4.2251  -3.9422  -3.9419  -3.2238  -3.2237  -3.1050  -3.1047
    -2.7122  -2.7121  -2.5243  -2.5241  -2.4683  -2.4681  -2.2686  -2.2685
    -2.2367  -2.2366  -2.1160  -2.1159  -1.5680  -1.5679  -1.5074  -1.5074
    -1.3852  -1.3851  -1.2628  -1.2623  -1.1184  -1.1183  -1.1017  -1.1015
    -0.7900  -0.7889  -0.6740  -0.6739  -0.5448  -0.5445  -0.3754  -0.3751
    -0.3072  -0.3067  -0.1173  -0.1168  -0.0488  -0.0488   0.0049   0.0063
     0.2568   0.2573   0.3113   0.3117   0.4068   0.4068   0.5393   0.5394
     1.4808   1.4811   1.6842   1.6844   4.5288   4.5288   4.6055   4.6056
     5.5547   5.5549   5.5806   5.5808   6.6408   6.6409   6.7431   6.7432
     7.1834   7.1847   7.8426   7.8428   8.0445   8.0463   8.2069   8.2082
     8.6022   8.6022   8.6478   8.6485   8.7770   8.7772   8.9374   8.9376

          k = 0.0000-0.1679-0.1906 ( 81828 PWs)   bands (ev):

   -22.5420 -22.5410 -22.5404 -22.5394 -22.2999 -22.2997 -22.2972 -22.2970
   -20.0991 -20.0985 -20.0976 -20.0970 -18.3178 -18.3165 -18.2806 -18.2794
   -16.4945 -16.4943 -16.3710 -16.3710 -15.9215 -15.9210 -15.8979 -15.8975
   -15.4062 -15.4061 -15.4020 -15.4018 -14.4375 -14.4365 -14.4321 -14.4311
   -13.5283 -13.5281 -13.5102 -13.5100 -10.3403 -10.3397 -10.3356 -10.3351
    -9.8380  -9.8370  -9.8037  -9.8029  -8.5800  -8.5791  -8.5685  -8.5674
    -8.4230  -8.4224  -8.2843  -8.2837  -7.2947  -7.2937  -7.2047  -7.2038
    -6.5275  -6.5272  -6.4824  -6.4814  -6.0777  -6.0770  -6.0108  -6.0099
    -5.7524  -5.7517  -5.7207  -5.7202  -5.4950  -5.4942  -5.4139  -5.4135
    -4.9368  -4.9367  -4.9251  -4.9249  -4.6606  -4.6605  -4.6334  -4.6332
    -4.0956  -4.0952  -4.0894  -4.0892  -3.2199  -3.2197  -3.1178  -3.1174
    -2.6054  -2.6053  -2.5930  -2.5926  -2.4031  -2.4028  -2.3566  -2.3565
    -2.2119  -2.2116  -2.1506  -2.1502  -1.5417  -1.5414  -1.5157  -1.5154
    -1.3727  -1.3726  -1.2521  -1.2518  -1.1589  -1.1585  -1.0844  -1.0839
    -0.7539  -0.7527  -0.6917  -0.6912  -0.5547  -0.5544  -0.3680  -0.3673
    -0.2898  -0.2896  -0.1493  -0.1483  -0.0690  -0.0684   0.0096   0.0110
     0.2550   0.2560   0.3206   0.3214   0.4642   0.4653   0.4949   0.4957
     1.4765   1.4768   1.6816   1.6818   4.5520   4.5521   4.5843   4.5844
     5.5653   5.5656   5.5715   5.5717   6.6831   6.6835   6.6908   6.6914
     7.2118   7.2131   7.7756   7.7765   8.1219   8.1236   8.1888   8.1899
     8.5652   8.5655   8.6167   8.6171   8.8574   8.8578   8.9579   8.9589

          k = 0.2500 0.0000 0.0220 ( 81829 PWs)   bands (ev):

   -22.5297 -22.5268 -22.5089 -22.5072 -22.3142 -22.3099 -22.2931 -22.2914
   -20.1071 -20.1019 -20.0948 -20.0908 -18.3236 -18.3029 -18.2876 -18.2694
   -16.4740 -16.4641 -16.3831 -16.3701 -15.9182 -15.9171 -15.9016 -15.8784
   -15.4484 -15.4446 -15.4286 -15.4168 -14.5113 -14.4915 -14.4722 -14.4699
   -13.5669 -13.5641 -13.5528 -13.5111 -10.3279 -10.3254 -10.2822 -10.2702
    -9.8483  -9.8464  -9.7983  -9.7960  -8.6069  -8.5612  -8.5604  -8.5525
    -8.3917  -8.3750  -8.2721  -8.2422  -7.3265  -7.3145  -7.2454  -7.2187
    -6.5572  -6.4919  -6.4626  -6.4254  -6.1335  -6.1123  -6.0790  -6.0581
    -5.9410  -5.9109  -5.8985  -5.8791  -5.5767  -5.5562  -5.4440  -5.4216
    -5.1019  -5.0212  -4.8309  -4.8143  -4.7325  -4.7042  -4.6733  -4.6589
    -4.1187  -4.0432  -3.9613  -3.9530  -3.3516  -3.2673  -3.1609  -3.0387
    -2.6464  -2.6247  -2.6076  -2.5795  -2.3602  -2.3384  -2.2989  -2.2740
    -1.9511  -1.8624  -1.7475  -1.7471  -1.6218  -1.5631  -1.5190  -1.4989
    -1.4039  -1.3662  -1.2814  -1.2518  -1.2414  -1.1750  -1.1126  -1.0828
    -0.7383  -0.7119  -0.6448  -0.6410  -0.5523  -0.4727  -0.4134  -0.3762
    -0.3352  -0.2878  -0.1100  -0.0594  -0.0548  -0.0240   0.0584   0.0652
     0.2944   0.3141   0.3339   0.3872   0.4522   0.4695   0.5509   0.6384
     1.7069   1.7565   1.9394   1.9577   4.4180   4.4621   4.4777   4.4838
     5.5533   5.5620   5.5837   5.5864   6.3025   6.3595   6.4838   6.5489
     7.4749   7.5522   7.8089   7.8899   8.1726   8.1853   8.2808   8.4565
     8.5855   8.5954   8.6430   8.6587   8.8365   8.9423   9.0244   9.0306

          k = 0.2500 0.0000-0.1687 ( 81763 PWs)   bands (ev):

   -22.5223 -22.5199 -22.5171 -22.5150 -22.3051 -22.3019 -22.3014 -22.2984
   -20.1063 -20.1014 -20.0955 -20.0914 -18.3228 -18.3037 -18.2869 -18.2701
   -16.4775 -16.4589 -16.3842 -16.3710 -15.9308 -15.9031 -15.8952 -15.8856
   -15.4476 -15.4410 -15.4302 -15.4199 -14.5158 -14.4883 -14.4741 -14.4666
   -13.5732 -13.5639 -13.5302 -13.5280 -10.3223 -10.3164 -10.2887 -10.2781
    -9.8614  -9.8276  -9.8072  -9.7923  -8.6049  -8.5762  -8.5692  -8.5289
    -8.4285  -8.3344  -8.2775  -8.2431  -7.3345  -7.2936  -7.2709  -7.2069
    -6.5772  -6.4899  -6.4612  -6.3956  -6.1224  -6.1125  -6.1067  -6.0497
    -5.9850  -5.9639  -5.8629  -5.8117  -5.5788  -5.5243  -5.4383  -5.4316
    -5.0591  -5.0580  -4.9691  -4.7820  -4.7246  -4.7236  -4.6766  -4.5835
    -4.0643  -4.0373  -4.0163  -3.9894  -3.2964  -3.2038  -3.1514  -3.1052
    -2.6751  -2.6425  -2.5858  -2.5495  -2.4310  -2.3662  -2.2691  -2.2520
    -1.9267  -1.9067  -1.7564  -1.7292  -1.5744  -1.5630  -1.5102  -1.4860
    -1.4537  -1.3553  -1.3001  -1.2520  -1.2372  -1.1476  -1.1202  -1.0786
    -0.7472  -0.6826  -0.6559  -0.6354  -0.5465  -0.5380  -0.3905  -0.3699
    -0.3219  -0.2950  -0.1139  -0.0741  -0.0670  -0.0139   0.0524   0.0645
     0.3092   0.3244   0.3316   0.3792   0.4329   0.5326   0.5518   0.6016
     1.7155   1.7615   1.8913   1.9930   4.4251   4.4450   4.4686   4.5018
     5.5250   5.5662   5.5888   5.6068   6.3392   6.3398   6.4469   6.5776
     7.3492   7.7871   7.8140   7.8659   8.0772   8.1592   8.3093   8.3888
     8.5659   8.5814   8.6166   8.6451   8.9129   8.9521   9.0162   9.0209

          k = 0.2500-0.1679 0.0220 ( 81830 PWs)   bands (ev):

   -22.5282 -22.5282 -22.5081 -22.5080 -22.3121 -22.3121 -22.2922 -22.2921
   -20.1045 -20.1045 -20.0928 -20.0928 -18.3163 -18.3152 -18.2765 -18.2754
   -16.4689 -16.4686 -16.3773 -16.3772 -15.9166 -15.9164 -15.8908 -15.8907
   -15.4468 -15.4468 -15.4226 -15.4225 -14.4970 -14.4961 -14.4765 -14.4757
   -13.5694 -13.5692 -13.5280 -13.5278 -10.3267 -10.3267 -10.2762 -10.2761
    -9.8356  -9.8348  -9.8108  -9.8101  -8.5874  -8.5870  -8.5493  -8.5488
    -8.3807  -8.3798  -8.2642  -8.2636  -7.3148  -7.3140  -7.2402  -7.2395
    -6.5153  -6.5152  -6.4536  -6.4531  -6.1185  -6.1181  -6.0717  -6.0712
    -5.9203  -5.9198  -5.8946  -5.8938  -5.5664  -5.5663  -5.4333  -5.4331
    -5.0657  -5.0654  -4.8143  -4.8139  -4.7273  -4.7272  -4.6625  -4.6624
    -4.0819  -4.0818  -3.9553  -3.9551  -3.3212  -3.3212  -3.0887  -3.0884
    -2.6376  -2.6375  -2.5872  -2.5871  -2.3576  -2.3575  -2.2866  -2.2865
    -1.9097  -1.9093  -1.7480  -1.7477  -1.6080  -1.6073  -1.4914  -1.4910
    -1.3443  -1.3438  -1.2628  -1.2621  -1.2169  -1.2164  -1.1330  -1.1325
    -0.7318  -0.7308  -0.6340  -0.6335  -0.5209  -0.5205  -0.3676  -0.3675
    -0.3408  -0.3406  -0.0718  -0.0716  -0.0475  -0.0470   0.0694   0.0706
     0.2872   0.2879   0.3829   0.3835   0.4508   0.4511   0.5935   0.5936
     1.7400   1.7405   1.9423   1.9427   4.4370   4.4372   4.4835   4.4835
     5.5626   5.5632   5.5787   5.5793   6.3348   6.3353   6.5116   6.5124
     7.5358   7.5368   7.8965   7.8967   8.0803   8.0813   8.3559   8.3572
     8.6068   8.6074   8.6254   8.6256   8.9032   8.9039   9.0567   9.0572

          k = 0.2500-0.1679-0.1687 ( 81794 PWs)   bands (ev):

   -22.5212 -22.5210 -22.5162 -22.5160 -22.3040 -22.3039 -22.2995 -22.2993
   -20.1039 -20.1038 -20.0935 -20.0934 -18.3160 -18.3149 -18.2768 -18.2758
   -16.4686 -16.4683 -16.3776 -16.3775 -15.9191 -15.9189 -15.8881 -15.8880
   -15.4448 -15.4447 -15.4248 -15.4247 -14.4986 -14.4980 -14.4746 -14.4740
   -13.5659 -13.5656 -13.5317 -13.5315 -10.3196 -10.3195 -10.2832 -10.2831
    -9.8358  -9.8351  -9.8103  -9.8096  -8.5908  -8.5904  -8.5495  -8.5490
    -8.3768  -8.3758  -8.2650  -8.2644  -7.3138  -7.3130  -7.2416  -7.2410
    -6.5306  -6.5304  -6.4316  -6.4313  -6.1195  -6.1192  -6.0721  -6.0717
    -5.9781  -5.9779  -5.8390  -5.8386  -5.5457  -5.5455  -5.4364  -5.4361
    -5.0785  -5.0782  -4.8684  -4.8684  -4.7231  -4.7229  -4.6210  -4.6209
    -4.0463  -4.0463  -4.0075  -4.0074  -3.2528  -3.2526  -3.1265  -3.1260
    -2.6620  -2.6618  -2.5606  -2.5605  -2.4027  -2.4025  -2.2633  -2.2632
    -1.9106  -1.9101  -1.7534  -1.7531  -1.5845  -1.5839  -1.4852  -1.4850
    -1.3794  -1.3791  -1.2543  -1.2537  -1.2138  -1.2136  -1.1151  -1.1148
    -0.7402  -0.7393  -0.6054  -0.6050  -0.5574  -0.5572  -0.3765  -0.3762
    -0.3209  -0.3206  -0.1001  -0.0996  -0.0359  -0.0356   0.0689   0.0701
     0.3071   0.3078   0.3588   0.3595   0.4849   0.4850   0.5763   0.5764
     1.7378   1.7383   1.9443   1.9446   4.4356   4.4357   4.4841   4.4843
     5.5447   5.5448   5.5983   5.5984   6.3365   6.3369   6.5139   6.5147
     7.5112   7.5122   7.9206   7.9210   8.0929   8.0940   8.3324   8.3335
     8.5999   8.6008   8.6528   8.6529   8.9207   8.9214   9.0074   9.0078

          k =-0.5000 0.0000-0.0439 ( 81734 PWs)   bands (ev):

   -22.4956 -22.4954 -22.4935 -22.4932 -22.3085 -22.3082 -22.3055 -22.3051
   -20.1014 -20.1013 -20.0974 -20.0973 -18.3098 -18.3085 -18.2777 -18.2766
   -16.4402 -16.4399 -16.3913 -16.3912 -15.9099 -15.9099 -15.8820 -15.8820
   -15.4653 -15.4652 -15.4582 -15.4580 -14.5554 -14.5547 -14.5262 -14.5255
   -13.5987 -13.5986 -13.5566 -13.5565 -10.2726 -10.2720 -10.2626 -10.2620
    -9.8404  -9.8402  -9.8091  -9.8089  -8.5826  -8.5821  -8.5464  -8.5459
    -8.3387  -8.3377  -8.2406  -8.2400  -7.3384  -7.3378  -7.2693  -7.2689
    -6.4857  -6.4854  -6.3879  -6.3875  -6.2588  -6.2585  -6.2186  -6.2180
    -6.0251  -6.0232  -6.0081  -6.0061  -5.5379  -5.5379  -5.4529  -5.4529
    -5.0513  -5.0512  -4.9226  -4.9225  -4.7968  -4.7964  -4.6396  -4.6395
    -3.9924  -3.9921  -3.9487  -3.9486  -3.2841  -3.2838  -3.1662  -3.1656
    -2.6243  -2.6241  -2.5987  -2.5985  -2.3140  -2.3139  -2.2516  -2.2513
    -1.8243  -1.8241  -1.7246  -1.7238  -1.4468  -1.4466  -1.4146  -1.4139
    -1.3208  -1.3204  -1.2087  -1.2078  -1.0890  -1.0890  -1.0615  -1.0615
    -0.6942  -0.6939  -0.6282  -0.6273  -0.5019  -0.5017  -0.3663  -0.3662
    -0.2998  -0.2996  -0.0235  -0.0234   0.0138   0.0140   0.0633   0.0646
     0.3273   0.3278   0.4040   0.4046   0.5638   0.5650   0.6088   0.6098
     2.0357   2.0362   2.2155   2.2161   4.2398   4.2398   4.2958   4.2961
     5.5889   5.5897   5.5940   5.5948   6.0315   6.0322   6.2743   6.2756
     7.8898   7.8898   7.9509   7.9516   8.3059   8.3067   8.5061   8.5066
     8.6017   8.6018   8.7931   8.7935   8.8693   8.8700   8.9269   8.9274

          k =-0.5000 0.0000-0.2346 ( 81768 PWs)   bands (ev):

   -22.4956 -22.4955 -22.4936 -22.4930 -22.3094 -22.3072 -22.3063 -22.3044
   -20.1088 -20.1045 -20.0936 -20.0905 -18.3224 -18.2959 -18.2888 -18.2656
   -16.4561 -16.4181 -16.3966 -16.3914 -15.9099 -15.9057 -15.9007 -15.8676
   -15.4806 -15.4751 -15.4500 -15.4413 -14.5630 -14.5443 -14.5279 -14.5270
   -13.6089 -13.5864 -13.5786 -13.5357 -10.3018 -10.3015 -10.2400 -10.2256
    -9.8469  -9.8334  -9.8114  -9.8083  -8.6070  -8.5566  -8.5557  -8.5387
    -8.3426  -8.3064  -8.2849  -8.2175  -7.3420  -7.3316  -7.2750  -7.2672
    -6.5278  -6.4384  -6.4199  -6.4032  -6.2834  -6.2468  -6.2031  -6.1423
    -6.1035  -6.0725  -5.9595  -5.9440  -5.5362  -5.5172  -5.4813  -5.4179
    -5.1029  -5.0979  -4.9647  -4.9326  -4.8228  -4.6896  -4.6590  -4.5960
    -4.0261  -3.9629  -3.9399  -3.9337  -3.4341  -3.2720  -3.0843  -3.0825
    -2.6482  -2.6374  -2.6244  -2.5929  -2.3688  -2.2825  -2.2709  -2.1816
    -1.8533  -1.7778  -1.7243  -1.7051  -1.5768  -1.4709  -1.4004  -1.3742
    -1.3375  -1.2379  -1.2294  -1.2065  -1.1419  -1.1228  -1.0231  -1.0020
    -0.7003  -0.6686  -0.6614  -0.6176  -0.5172  -0.4447  -0.4055  -0.3757
    -0.3348  -0.2615  -0.0644  -0.0339   0.0282   0.0426   0.0652   0.0667
     0.2829   0.3648   0.3697   0.4214   0.5338   0.5658   0.6318   0.6396
     2.0323   2.0463   2.1765   2.2503   4.2340   4.2514   4.2760   4.3095
     5.5624   5.5629   5.6189   5.6251   6.0337   6.0521   6.1953   6.3423
     7.8442   7.8468   7.9475   8.0299   8.3421   8.3698   8.4289   8.4480
     8.5512   8.6298   8.7951   8.8276   8.8540   8.8919   8.8999   8.9435

          k =-0.5000-0.1679-0.0439 ( 81752 PWs)   bands (ev):

   -22.4955 -22.4952 -22.4937 -22.4933 -22.3085 -22.3081 -22.3055 -22.3051
   -20.1005 -20.0998 -20.0989 -20.0983 -18.3099 -18.3086 -18.2776 -18.2765
   -16.4378 -16.4375 -16.3942 -16.3940 -15.9052 -15.9052 -15.8861 -15.8860
   -15.4627 -15.4623 -15.4614 -15.4609 -14.5544 -14.5536 -14.5272 -14.5265
   -13.5977 -13.5975 -13.5577 -13.5576 -10.2712 -10.2704 -10.2640 -10.2633
    -9.8297  -9.8290  -9.8212  -9.8206  -8.5769  -8.5763  -8.5493  -8.5486
    -8.3290  -8.3279  -8.2531  -8.2524  -7.3379  -7.3371  -7.2709  -7.2704
    -6.4717  -6.4713  -6.4022  -6.4018  -6.2480  -6.2473  -6.2195  -6.2187
    -6.0325  -6.0303  -6.0121  -6.0099  -5.5260  -5.5258  -5.4641  -5.4640
    -5.0440  -5.0440  -4.9072  -4.9064  -4.8373  -4.8367  -4.6210  -4.6207
    -3.9959  -3.9957  -3.9453  -3.9451  -3.2597  -3.2594  -3.1882  -3.1875
    -2.6225  -2.6224  -2.5988  -2.5986  -2.2998  -2.2997  -2.2733  -2.2731
    -1.8211  -1.8209  -1.7339  -1.7329  -1.4485  -1.4481  -1.4078  -1.4069
    -1.3074  -1.3070  -1.2155  -1.2144  -1.0802  -1.0792  -1.0744  -1.0734
    -0.6954  -0.6949  -0.5782  -0.5774  -0.5352  -0.5350  -0.3540  -0.3537
    -0.3379  -0.3377  -0.0242  -0.0241   0.0144   0.0146   0.0729   0.0742
     0.3468   0.3476   0.3879   0.3888   0.5700   0.5713   0.5998   0.6010
     2.0393   2.0398   2.2123   2.2129   4.2416   4.2417   4.2938   4.2941
     5.5857   5.5869   5.5955   5.5966   6.0397   6.0405   6.2686   6.2699
     7.8582   7.8583   8.0388   8.0403   8.3769   8.3776   8.4459   8.4467
     8.5811   8.5818   8.6267   8.6270   8.8754   8.8759   8.9132   8.9138

          k =-0.5000-0.1679-0.2346 ( 81704 PWs)   bands (ev):

   -22.4955 -22.4953 -22.4935 -22.4933 -22.3088 -22.3085 -22.3052 -22.3049
   -20.1066 -20.1066 -20.0921 -20.0920 -18.3140 -18.3130 -18.2733 -18.2724
   -16.4393 -16.4390 -16.3925 -16.3924 -15.9061 -15.9060 -15.8853 -15.8853
   -15.4779 -15.4778 -15.4459 -15.4458 -14.5554 -14.5546 -14.5263 -14.5256
   -13.6041 -13.6039 -13.5510 -13.5509 -10.3018 -10.3017 -10.2327 -10.2327
    -9.8305  -9.8299  -9.8210  -9.8204  -8.5870  -8.5868  -8.5374  -8.5370
    -8.3299  -8.3289  -8.2514  -8.2508  -7.3357  -7.3350  -7.2739  -7.2734
    -6.4808  -6.4804  -6.4055  -6.4052  -6.2717  -6.2713  -6.1801  -6.1797
    -6.0833  -6.0825  -5.9507  -5.9501  -5.5309  -5.5309  -5.4481  -5.4480
    -5.0499  -5.0497  -5.0138  -5.0137  -4.7637  -4.7636  -4.6054  -4.6054
    -3.9787  -3.9785  -3.9508  -3.9508  -3.3578  -3.3578  -3.0747  -3.0746
    -2.6448  -2.6446  -2.6051  -2.6050  -2.3329  -2.3329  -2.2316  -2.2315
    -1.8162  -1.8161  -1.7204  -1.7194  -1.5236  -1.5234  -1.3881  -1.3879
    -1.2611  -1.2606  -1.2294  -1.2282  -1.1356  -1.1355  -1.0121  -1.0120
    -0.7019  -0.7013  -0.5808  -0.5801  -0.5197  -0.5197  -0.3578  -0.3577
    -0.3441  -0.3440  -0.0481  -0.0481   0.0309   0.0310   0.0773   0.0784
     0.3248   0.3256   0.3970   0.3977   0.5498   0.5500   0.6337   0.6337
     2.0380   2.0385   2.2147   2.2152   4.2422   4.2423   4.2932   4.2934
     5.5621   5.5623   5.6212   5.6212   6.0379   6.0385   6.2752   6.2764
     7.8554   7.8555   8.0202   8.0217   8.3896   8.3897   8.4744   8.4748
     8.5494   8.5499   8.6086   8.6087   8.8636   8.8637   8.9495   8.9499

     highest occupied, lowest unoccupied level (ev):     2.2503    4.2340

!    total energy              =   -1533.75439956 Ry
     Harris-Foulkes estimate   =   -1533.75439956 Ry
     estimated scf accuracy    <          2.7E-09 Ry

     total all-electron energy =     -5809.452670 Ry

     The total energy is the sum of the following terms:

     one-electron contribution =    -871.80734218 Ry
     hartree contribution      =     551.69431619 Ry
     xc contribution           =    -303.71740017 Ry
     ewald contribution        =    -483.61425415 Ry
     Dispersion Correction     =      -0.36499533 Ry
     one-center paw contrib.   =    -425.94472392 Ry

     convergence has been achieved in  14 iterations

     Forces acting on atoms (cartesian axes, Ry/au):

     atom    1 type  2   force =    -0.01303579   -0.01851201    0.00336706
     atom    2 type  2   force =     0.01311429   -0.01848892   -0.00338409
     atom    3 type  2   force =     0.01303579    0.01851201   -0.00336706
     atom    4 type  2   force =    -0.01311429    0.01848892    0.00338409
     atom    5 type  1   force =     0.00332439    0.01286704   -0.00060281
     atom    6 type  1   force =    -0.00326332    0.01281067    0.00045726
     atom    7 type  1   force =    -0.00332439   -0.01286704    0.00060281
     atom    8 type  1   force =     0.00326332   -0.01281067   -0.00045726
     atom    9 type  2   force =     0.01401218    0.01623178   -0.00060849
     atom   10 type  2   force =    -0.01401347    0.01623687    0.00079152
     atom   11 type  2   force =    -0.01401218   -0.01623178    0.00060849
     atom   12 type  2   force =     0.01401347   -0.01623687   -0.00079152
     atom   13 type  4   force =     0.01123086   -0.00564272    0.00720110
     atom   14 type  4   force =    -0.01121032   -0.00564612   -0.00720367
     atom   15 type  4   force =    -0.01123086    0.00564272   -0.00720110
     atom   16 type  4   force =     0.01121032    0.00564612    0.00720367
     atom   17 type  2   force =     0.00831979   -0.00069278   -0.00532230
     atom   18 type  2   force =    -0.00824381   -0.00076966    0.00526560
     atom   19 type  2   force =    -0.00831979    0.00069278    0.00532230
     atom   20 type  2   force =     0.00824381    0.00076966   -0.00526560
     atom   21 type  1   force =    -0.01172942   -0.00751908   -0.00821874
     atom   22 type  1   force =     0.01156224   -0.00761732    0.00823781
     atom   23 type  1   force =     0.01172942    0.00751908    0.00821874
     atom   24 type  1   force =    -0.01156224    0.00761732   -0.00823781
     atom   25 type  1   force =     0.01610898    0.01243181    0.00423490
     atom   26 type  1   force =    -0.01619562    0.01232427   -0.00409650
     atom   27 type  1   force =    -0.01610898   -0.01243181   -0.00423490
     atom   28 type  1   force =     0.01619562   -0.01232427    0.00409650
     atom   29 type  2   force =    -0.01570411   -0.01920714   -0.00711679
     atom   30 type  2   force =     0.01575894   -0.01930714    0.00724460
     atom   31 type  2   force =     0.01570411    0.01920714    0.00711679
     atom   32 type  2   force =    -0.01575894    0.01930714   -0.00724460
     atom   33 type  4   force =     0.00297892    0.00915100   -0.00915697
     atom   34 type  4   force =    -0.00310260    0.00912096    0.00917645
     atom   35 type  4   force =    -0.00297892   -0.00915100    0.00915697
     atom   36 type  4   force =     0.00310260   -0.00912096   -0.00917645
     atom   37 type  2   force =     0.00274034   -0.00765442    0.00873663
     atom   38 type  2   force =    -0.00259147   -0.00759499   -0.00871142
     atom   39 type  2   force =    -0.00274034    0.00765442   -0.00873663
     atom   40 type  2   force =     0.00259147    0.00759499    0.00871142
     atom   41 type  2   force =    -0.00601345    0.00468272    0.00335268
     atom   42 type  2   force =     0.00599187    0.00475217   -0.00342294
     atom   43 type  2   force =     0.00601345   -0.00468272   -0.00335268
     atom   44 type  2   force =    -0.00599187   -0.00475217    0.00342294
     atom   45 type  2   force =    -0.01163514   -0.00248007    0.00176819
     atom   46 type  2   force =     0.01158537   -0.00247863   -0.00175763
     atom   47 type  2   force =     0.01163514    0.00248007   -0.00176819
     atom   48 type  2   force =    -0.01158537    0.00247863    0.00175763
     atom   49 type  3   force =     0.00030009    0.00031949   -0.00013884
     atom   50 type  3   force =    -0.00032779    0.00029382    0.00012828
     atom   51 type  3   force =    -0.00030009   -0.00031949    0.00013884
     atom   52 type  3   force =     0.00032779   -0.00029382   -0.00012828
     atom   53 type  3   force =     0.00022129    0.00119795    0.00163723
     atom   54 type  3   force =    -0.00024563    0.00132108   -0.00167355
     atom   55 type  3   force =    -0.00022129   -0.00119795   -0.00163723
     atom   56 type  3   force =     0.00024563   -0.00132108    0.00167355
     atom   57 type  3   force =    -0.00043170    0.00031657    0.00618088
     atom   58 type  3   force =     0.00042999    0.00039657   -0.00629515
     atom   59 type  3   force =     0.00043170   -0.00031657   -0.00618088
     atom   60 type  3   force =    -0.00042999   -0.00039657    0.00629515
     atom   61 type  4   force =    -0.00207764    0.00331401   -0.00478956
     atom   62 type  4   force =     0.00217434    0.00340905    0.00465411
     atom   63 type  4   force =     0.00207764   -0.00331401    0.00478956
     atom   64 type  4   force =    -0.00217434   -0.00340905   -0.00465411
     atom   65 type  3   force =     0.00107461    0.00038687   -0.00153509
     atom   66 type  3   force =    -0.00116756    0.00032585    0.00154514
     atom   67 type  3   force =    -0.00107461   -0.00038687    0.00153509
     atom   68 type  3   force =     0.00116756   -0.00032585   -0.00154514
     atom   69 type  3   force =     0.00269190   -0.00053115    0.00078499
     atom   70 type  3   force =    -0.00268421   -0.00055308   -0.00071762
     atom   71 type  3   force =    -0.00269190    0.00053115   -0.00078499
     atom   72 type  3   force =     0.00268421    0.00055308    0.00071762

     Total force =     0.117567     Total SCF correction =     0.000095


     Computing stress (Cartesian axis) and pressure

          total   stress  (Ry/bohr**3)                   (kbar)     P=    0.10
  -0.00000207  -0.00000001  -0.00010580         -0.31     -0.00    -15.56
  -0.00000001   0.00003838   0.00000006         -0.00      5.65      0.01
  -0.00010580   0.00000006  -0.00003433        -15.56      0.01     -5.05


     Writing output data file scf.save
 
     init_run     :     37.11s CPU     38.58s WALL (       1 calls)
     electrons    :   1051.84s CPU   1097.60s WALL (       1 calls)
     forces       :     17.44s CPU     17.58s WALL (       1 calls)
     stress       :    112.53s CPU    112.84s WALL (       1 calls)

     Called by init_run:
     wfcinit      :     28.12s CPU     29.47s WALL (       1 calls)
     potinit      :      3.18s CPU      3.21s WALL (       1 calls)

     Called by electrons:
     c_bands      :    931.04s CPU    971.05s WALL (      14 calls)
     sum_band     :    111.36s CPU    116.26s WALL (      14 calls)
     v_of_rho     :      1.36s CPU      1.50s WALL (      15 calls)
     newd         :      3.07s CPU      3.67s WALL (      15 calls)
     PAW_pot      :      4.61s CPU      4.62s WALL (      15 calls)
     mix_rho      :      0.32s CPU      0.34s WALL (      14 calls)

     Called by c_bands:
     init_us_2    :      8.61s CPU      8.62s WALL (     372 calls)
     cegterg      :    900.35s CPU    940.30s WALL (     168 calls)

     Called by sum_band:
     sum_band:bec :      0.09s CPU      0.09s WALL (     168 calls)
     addusdens    :      3.39s CPU      3.96s WALL (      14 calls)

     Called by *egterg:
     h_psi        :    544.94s CPU    573.81s WALL (     850 calls)
     s_psi        :     89.77s CPU     89.78s WALL (     850 calls)
     g_psi        :      3.96s CPU      3.96s WALL (     670 calls)
     cdiaghg      :     65.29s CPU     65.29s WALL (     838 calls)

     Called by h_psi:
     h_psi:pot    :    540.15s CPU    568.92s WALL (     850 calls)
     h_psi:calbec :     83.33s CPU     83.61s WALL (     850 calls)
     vloc_psi     :    367.11s CPU    395.59s WALL (     850 calls)
     add_vuspsi   :     89.71s CPU     89.72s WALL (     850 calls)

     General routines
     calbec       :    123.51s CPU    123.90s WALL (    1078 calls)
     fft          :      0.86s CPU      1.09s WALL (     219 calls)
     fftw         :    399.85s CPU    429.85s WALL (  181196 calls)
 
     Parallel routines
     fft_scatter  :     83.15s CPU    102.52s WALL (  181415 calls)
 
     PWSCF        : 20m30.41s CPU    22m16.25s WALL

 
   This run was terminated on:   5:48:52   4Nov2017            

=------------------------------------------------------------------------------=
   JOB DONE.
=------------------------------------------------------------------------------=
