
     Program PWSCF v.6.1 (svn rev. 13369) starts on 22Dec2017 at 20:49:31 

     This program is part of the open-source Quantum ESPRESSO suite
     for quantum simulation of materials; please cite
         "P. Giannozzi et al., J. Phys.:Condens. Matter 21 395502 (2009);
          URL http://www.quantum-espresso.org", 
     in publications or presentations arising from this work. More details at
     http://www.quantum-espresso.org/quote

     Parallel version (MPI), running on     8 processors
     R & G space division:  proc/nbgrp/npool/nimage =       8
     Waiting for input...
     Reading input from standard input

     Current dimensions of program PWSCF are:
     Max number of different atomic species (ntypx) = 10
     Max number of k-points (npk) =  40000
     Max angular momentum in pseudopotentials (lmaxx) =  3
               file C.pbe-n-kjpaw_psl.0.1.UPF: wavefunction(s)  2P renormalized
               file N.pbe-n-kjpaw_psl.0.1.UPF: wavefunction(s)  2P renormalized
               file H.pbe-kjpaw_psl.0.1.UPF: wavefunction(s)  1S renormalized
               file O.pbe-n-kjpaw_psl.0.1.UPF: wavefunction(s)  2P renormalized

     -------------------------------------
     Parameters for Dispersion Correction:
     -------------------------------------
       atom      VdW radius       C_6     

        C          2.744         60.710
        N          2.640         42.670
        H          1.892          4.857
        O          2.536         24.284

     Subspace diagonalization in iterative solution of the eigenvalue problem:
     a serial algorithm will be used

 
     Parallelization info
     --------------------
     sticks:   dense  smooth     PW     G-vecs:    dense   smooth      PW
     Min        1651    1651    435               164182   164182   22137
     Max        1653    1653    436               164183   164183   22138
     Sum       13211   13211   3481              1313463  1313463  177097
 


     bravais-lattice index     =            0
     lattice parameter (alat)  =      18.8037  a.u.
     unit-cell volume          =    9721.9762 (a.u.)^3
     number of atoms/cell      =          152
     number of atomic types    =            4
     number of electrons       =       408.00
     number of Kohn-Sham states=          244
     kinetic-energy cutoff     =     100.0000  Ry
     charge density cutoff     =     400.0000  Ry
     convergence threshold     =      1.0E-08
     mixing beta               =       0.5000
     number of iterations used =            8  plain     mixing
     Exchange-correlation      =  SLA  PW   PBX  PBC ( 1  4  3  4 0 0)

     celldm(1)=  18.803720  celldm(2)=   0.000000  celldm(3)=   0.000000
     celldm(4)=   0.000000  celldm(5)=   0.000000  celldm(6)=   0.000000

     crystal axes: (cart. coord. in units of alat)
               a(1) = (   1.000000   0.000000   0.000000 )  
               a(2) = (   0.000000   1.173770   0.000000 )  
               a(3) = (   0.000000   0.000000   1.245777 )  

     reciprocal axes: (cart. coord. in units 2 pi/alat)
               b(1) = (  1.000000  0.000000  0.000000 )  
               b(2) = (  0.000000  0.851956  0.000000 )  
               b(3) = (  0.000000  0.000000  0.802712 )  


     PseudoPot. # 1 for  C read from file:
     /scratch/ahofstet/pseudo/C.pbe-n-kjpaw_psl.0.1.UPF
     MD5 check sum: 430fe95172b1e11ef3f8ed03bac87931
     Pseudo is Projector augmented-wave + core cor, Zval =  4.0
     Generated using "atomic" code by A. Dal Corso  v.5.0.99 svn rev. 10869
     Shape of augmentation charge: BESSEL
     Using radial grid of 1073 points,  4 beta functions with: 
                l(1) =   0
                l(2) =   0
                l(3) =   1
                l(4) =   1
     Q(r) pseudized with 0 coefficients 


     PseudoPot. # 2 for  N read from file:
     /scratch/ahofstet/pseudo/N.pbe-n-kjpaw_psl.0.1.UPF
     MD5 check sum: f73187c8b701007e77325f868c9291d7
     Pseudo is Projector augmented-wave + core cor, Zval =  5.0
     Generated using "atomic" code by A. Dal Corso  v.5.0.99 svn rev. 10869
     Shape of augmentation charge: PSQ
     Using radial grid of 1085 points,  4 beta functions with: 
                l(1) =   0
                l(2) =   0
                l(3) =   1
                l(4) =   1
     Q(r) pseudized with 0 coefficients 


     PseudoPot. # 3 for  H read from file:
     /scratch/ahofstet/pseudo/H.pbe-kjpaw_psl.0.1.UPF
     MD5 check sum: 94e484f906d9e9773b2f6e52662335b2
     Pseudo is Projector augmented-wave, Zval =  1.0
     Generated using "atomic" code by A. Dal Corso  v.5.0.99 svn rev. 10869
     Shape of augmentation charge: PSQ
     Using radial grid of  929 points,  2 beta functions with: 
                l(1) =   0
                l(2) =   0
     Q(r) pseudized with 0 coefficients 


     PseudoPot. # 4 for  O read from file:
     /scratch/ahofstet/pseudo/O.pbe-n-kjpaw_psl.0.1.UPF
     MD5 check sum: 3f94a2996a3169367d6eb21d9b593f20
     Pseudo is Projector augmented-wave + core cor, Zval =  6.0
     Generated using "atomic" code by A. Dal Corso  v.5.0.99 svn rev. 10869
     Shape of augmentation charge: BESSEL
     Using radial grid of 1095 points,  4 beta functions with: 
                l(1) =   0
                l(2) =   0
                l(3) =   1
                l(4) =   1
     Q(r) pseudized with 0 coefficients 


     atomic species   valence    mass     pseudopotential
        C              4.00    12.01070      C( 1.00)
        N              5.00    14.00670      N( 1.00)
        H              1.00     1.00794      H( 1.00)
        O              6.00    15.99940      O( 1.00)

      4 Sym. Ops. (no inversion) found ( 3 have fractional translation)



   Cartesian axes

     site n.     atom                  positions (alat units)
         1           C   tau(   1) = (   0.7854490   0.7194533   0.7795622  )
         2           C   tau(   2) = (   0.7145510   0.4543169   0.1566739  )
         3           C   tau(   3) = (   0.2145510   0.1325682   1.0891027  )
         4           C   tau(   4) = (   0.2854490   1.0412020   0.4662144  )
         5           H   tau(   5) = (   0.7905733   0.6188681   0.8245439  )
         6           H   tau(   6) = (   0.7094267   0.5549020   0.2016556  )
         7           H   tau(   7) = (   0.2094267   0.0319830   1.0441209  )
         8           H   tau(   8) = (   0.2905733   1.1417871   0.4212327  )
         9           H   tau(   9) = (   0.8480215   0.7175887   0.6886079  )
        10           H   tau(  10) = (   0.6519785   0.4561814   0.0657196  )
        11           H   tau(  11) = (   0.1519785   0.1307037   1.1800570  )
        12           H   tau(  12) = (   0.3480215   1.0430665   0.5571687  )
        13           C   tau(  13) = (   0.8295481   0.8300941   0.8808154  )
        14           C   tau(  14) = (   0.6704519   0.3436761   0.2579271  )
        15           C   tau(  15) = (   0.1704519   0.2432090   0.9878495  )
        16           C   tau(  16) = (   0.3295481   0.9305611   0.3649612  )
        17           H   tau(  17) = (   0.8546881   0.7878302   0.9795484  )
        18           H   tau(  18) = (   0.6453119   0.3859400   0.3566601  )
        19           H   tau(  19) = (   0.1453119   0.2009451   0.8891165  )
        20           H   tau(  20) = (   0.3546881   0.9728251   0.2662282  )
        21           H   tau(  21) = (   0.9173661   0.8862627   0.8452856  )
        22           H   tau(  22) = (   0.5826339   0.2875074   0.2223973  )
        23           H   tau(  23) = (   0.0826339   0.2993776   1.0233793  )
        24           H   tau(  24) = (   0.4173661   0.8743925   0.4004910  )
        25           C   tau(  25) = (   0.7020699   0.9196174   0.8908435  )
        26           C   tau(  26) = (   0.7979301   0.2541527   0.2679552  )
        27           C   tau(  27) = (   0.2979301   0.3327324   0.9778214  )
        28           C   tau(  28) = (   0.2020699   0.8410378   0.3549331  )
        29           H   tau(  29) = (   0.6995619   0.9872223   0.9776256  )
        30           H   tau(  30) = (   0.8004381   0.1865479   0.3547373  )
        31           H   tau(  31) = (   0.3004381   0.4003372   0.8910393  )
        32           H   tau(  32) = (   0.1995619   0.7734330   0.2681510  )
        33           C   tau(  33) = (   0.6905974   0.9853335   0.7547748  )
        34           C   tau(  34) = (   0.8094026   0.1884367   0.1318865  )
        35           C   tau(  35) = (   0.3094026   0.3984484   1.1138901  )
        36           C   tau(  36) = (   0.1905974   0.7753218   0.4910018  )
        37           C   tau(  37) = (   0.6439239   0.8785287   0.6603220  )
        38           C   tau(  38) = (   0.8560761   0.2952415   0.0374337  )
        39           C   tau(  39) = (   0.3560761   0.2916436   1.2083429  )
        40           C   tau(  40) = (   0.1439239   0.8821265   0.5854546  )
        41           C   tau(  41) = (   0.6348188   0.7521562   0.7465513  )
        42           C   tau(  42) = (   0.8651812   0.4216139   0.1236630  )
        43           C   tau(  43) = (   0.3651812   0.1652712   1.1221136  )
        44           C   tau(  44) = (   0.1348188   1.0084990   0.4992253  )
        45           C   tau(  45) = (   0.5551387   0.6375025   0.6866531  )
        46           C   tau(  46) = (   0.9448613   0.5362676   0.0637648  )
        47           C   tau(  47) = (   0.4448613   0.0506175   1.1820118  )
        48           C   tau(  48) = (   0.0551387   1.1231527   0.5591235  )
        49           H   tau(  49) = (   0.5582965   0.5490254   0.7528676  )
        50           H   tau(  50) = (   0.9417035   0.6247447   0.1299793  )
        51           H   tau(  51) = (   0.4417035   1.1359105   1.1157973  )
        52           H   tau(  52) = (   0.0582965   0.0378596   0.4929090  )
        53           H   tau(  53) = (   0.5969514   0.6090639   0.5883741  )
        54           H   tau(  54) = (   0.9030486   0.5647063   1.2112624  )
        55           H   tau(  55) = (   0.4030486   0.0221788   0.0345142  )
        56           H   tau(  56) = (   0.0969514   1.1515914   0.6574025  )
        57           H   tau(  57) = (   0.4493132   0.6652684   0.6714624  )
        58           H   tau(  58) = (   0.0506868   0.5085018   0.0485741  )
        59           H   tau(  59) = (   0.5506868   0.0783833   1.1972025  )
        60           H   tau(  60) = (   0.9493132   1.0953869   0.5743142  )
        61           C   tau(  61) = (   0.5855427   0.8145645   0.8828851  )
        62           C   tau(  62) = (   0.9144573   0.3592057   0.2599968  )
        63           C   tau(  63) = (   0.4144573   0.2276794   0.9857798  )
        64           C   tau(  64) = (   0.0855427   0.9460907   0.3628915  )
        65           C   tau(  65) = (   0.4455724   0.8781661   0.8731312  )
        66           C   tau(  66) = (   0.0544276   0.2956041   0.2502429  )
        67           C   tau(  67) = (   0.5544276   0.2912810   0.9955337  )
        68           C   tau(  68) = (   0.9455724   0.8824891   0.3726454  )
        69           H   tau(  69) = (   0.4203534   0.9292898   0.9679072  )
        70           H   tau(  70) = (   0.0796466   0.2444804   0.3450189  )
        71           H   tau(  71) = (   0.5796466   0.3424047   0.9007577  )
        72           H   tau(  72) = (   0.9203534   0.8313655   0.2778694  )
        73           H   tau(  73) = (   0.3686664   0.8009733   0.8549529  )
        74           H   tau(  74) = (   0.1313336   0.3727969   0.2320646  )
        75           H   tau(  75) = (   0.6313336   0.2140882   1.0137120  )
        76           H   tau(  76) = (   0.8686664   0.9596820   0.3908237  )
        77           H   tau(  77) = (   0.4378077   0.9527184   0.7917699  )
        78           H   tau(  78) = (   0.0621923   0.2210518   0.1688816  )
        79           H   tau(  79) = (   0.5621923   0.3658333   1.0768950  )
        80           H   tau(  80) = (   0.9378077   0.8079369   0.4540067  )
        81           C   tau(  81) = (   0.5851133   0.7140090   0.9991605  )
        82           C   tau(  82) = (   0.9148867   0.4597612   0.3762722  )
        83           C   tau(  83) = (   0.4148867   0.1271239   0.8695044  )
        84           C   tau(  84) = (   0.0851133   1.0466462   0.2466161  )
        85           H   tau(  85) = (   0.6792680   0.6572489   1.0076484  )
        86           H   tau(  86) = (   0.8207320   0.5165213   0.3847601  )
        87           H   tau(  87) = (   0.3207320   0.0703638   0.8610165  )
        88           H   tau(  88) = (   0.1792680   1.1034064   0.2381282  )
        89           H   tau(  89) = (   0.5025610   0.6417288   0.9860925  )
        90           H   tau(  90) = (   0.9974390   0.5320413   0.3632042  )
        91           H   tau(  91) = (   0.4974390   0.0548437   0.8825724  )
        92           H   tau(  92) = (   0.0025610   1.1189264   0.2596841  )
        93           H   tau(  93) = (   0.5692594   0.7675576   1.0945029  )
        94           H   tau(  94) = (   0.9307406   0.4062125   0.4716146  )
        95           H   tau(  95) = (   0.4307406   0.1806725   0.7741620  )
        96           H   tau(  96) = (   0.0692594   0.9930976   0.1512737  )
        97           O   tau(  97) = (   0.6213306   0.8897764   0.5393247  )
        98           O   tau(  98) = (   0.8786694   0.2839937   1.1622130  )
        99           O   tau(  99) = (   0.3786694   0.3028913   0.0835635  )
       100           O   tau( 100) = (   0.1213306   0.8708788   0.7064518  )
       101           N   tau( 101) = (   0.7192523   1.1028183   0.7082573  )
       102           N   tau( 102) = (   0.7807477   0.0709518   0.0853690  )
       103           N   tau( 103) = (   0.2807477   0.5159332   1.1604076  )
       104           N   tau( 104) = (   0.2192523   0.6578369   0.5375193  )
       105           N   tau( 105) = (   0.7699154   0.0241036   0.7888673  )
       106           N   tau( 106) = (   0.7300846   1.1496666   0.1659790  )
       107           N   tau( 107) = (   0.2300846   0.6109887   1.0797976  )
       108           N   tau( 108) = (   0.2699154   0.5627815   0.4569093  )
       109           H   tau( 109) = (   0.7967728   0.0096449   0.8911183  )
       110           H   tau( 110) = (   0.7032272   1.1641253   0.2682300  )
       111           H   tau( 111) = (   0.2032272   0.5965300   0.9775466  )
       112           H   tau( 112) = (   0.2967728   0.5772402   0.3546583  )
       113           C   tau( 113) = (   0.7975571   0.1463948   0.7287178  )
       114           C   tau( 114) = (   0.7024429   1.0273753   0.1058295  )
       115           C   tau( 115) = (   0.2024429   0.7332799   1.1399471  )
       116           C   tau( 116) = (   0.2975571   0.4404903   0.5170588  )
       117           O   tau( 117) = (   0.8604465   0.2258444   0.8183921  )
       118           O   tau( 118) = (   0.6395535   0.9479258   0.1955038  )
       119           O   tau( 119) = (   0.1395535   0.8127295   1.0502728  )
       120           O   tau( 120) = (   0.3604465   0.3610407   0.4273845  )
       121           C   tau( 121) = (   0.8939028   0.3589574   0.7717729  )
       122           C   tau( 122) = (   0.6060972   0.8148127   0.1488846  )
       123           C   tau( 123) = (   0.1060972   0.9458425   1.0968920  )
       124           C   tau( 124) = (   0.3939028   0.2279276   0.4740037  )
       125           H   tau( 125) = (   0.9346551   0.4117217   0.8590944  )
       126           H   tau( 126) = (   0.5653449   0.7620484   0.2362061  )
       127           H   tau( 127) = (   0.0653449   0.9986068   1.0095705  )
       128           H   tau( 128) = (   0.4346551   0.1751633   0.3866822  )
       129           H   tau( 129) = (   0.8038925   0.4097078   0.7330765  )
       130           H   tau( 130) = (   0.6961075   0.7640624   0.1101882  )
       131           H   tau( 131) = (   0.1961075   0.9965929   1.1355884  )
       132           H   tau( 132) = (   0.3038925   0.1771773   0.5127001  )
       133           H   tau( 133) = (   0.9701735   0.3539150   0.6921975  )
       134           H   tau( 134) = (   0.5298265   0.8198551   0.0693092  )
       135           H   tau( 135) = (   0.0298265   0.9408001   1.1764674  )
       136           H   tau( 136) = (   0.4701735   0.2329700   0.5535791  )
       137           O   tau( 137) = (   0.7692511   0.1777238   0.6128780  )
       138           O   tau( 138) = (   0.7307489   0.9960464   1.2357663  )
       139           O   tau( 139) = (   0.2307489   0.7646089   0.0100103  )
       140           O   tau( 140) = (   0.2692511   0.4091613   0.6328986  )
       141           O   tau( 141) = (   0.8571985   0.0116671   1.0487138  )
       142           O   tau( 142) = (   0.6428015   1.1621030   0.4258255  )
       143           O   tau( 143) = (   0.1428015   0.5985522   0.8199511  )
       144           O   tau( 144) = (   0.3571985   0.5752179   0.1970628  )
       145           H   tau( 145) = (   0.8628078   0.1035386   1.0853383  )
       146           H   tau( 146) = (   0.6371922   1.0702316   0.4624500  )
       147           H   tau( 147) = (   0.1371922   0.6904237   0.7833266  )
       148           H   tau( 148) = (   0.3628078   0.4833465   0.1604383  )
       149           H   tau( 149) = (   0.8156887   1.1333065   1.1217634  )
       150           H   tau( 150) = (   0.6843113   0.0404637   0.4988751  )
       151           H   tau( 151) = (   0.1843113   0.5464214   0.7469015  )
       152           H   tau( 152) = (   0.3156887   0.6273488   0.1240132  )

     number of k points=     8
                       cart. coord. in units 2pi/alat
        k(    1) = (   0.0000000   0.0000000   0.0000000), wk =   0.2500000
        k(    2) = (   0.0000000   0.0000000  -0.4013561), wk =   0.2500000
        k(    3) = (   0.0000000  -0.4259778   0.0000000), wk =   0.2500000
        k(    4) = (   0.0000000  -0.4259778  -0.4013561), wk =   0.2500000
        k(    5) = (  -0.5000000   0.0000000   0.0000000), wk =   0.2500000
        k(    6) = (  -0.5000000   0.0000000  -0.4013561), wk =   0.2500000
        k(    7) = (  -0.5000000  -0.4259778   0.0000000), wk =   0.2500000
        k(    8) = (  -0.5000000  -0.4259778  -0.4013561), wk =   0.2500000

     Dense  grid:  1313463 G-vectors     FFT dimensions: ( 120, 144, 150)

     Estimated max dynamical RAM per process >    1656.94MB

     Estimated total allocated dynamical RAM >   13255.50MB

     Check: negative/imaginary core charge=   -0.000002    0.000000

     Initial potential from superposition of free atoms

     starting charge  407.99716, renormalised to  408.00000
     Starting wfc are  368 randomized atomic wfcs
     Checking if some PAW data can be deallocated... 

     total cpu time spent up to now is      116.0 secs

     per-process dynamical memory:  1082.2 Mb

     Self-consistent Calculation

     iteration #  1     ecut=   100.00 Ry     beta=0.50
     Davidson diagonalization with overlap
     ethr =  1.00E-02,  avg # of iterations =  4.0

     total cpu time spent up to now is      489.8 secs

     total energy              =   -1869.62100695 Ry
     Harris-Foulkes estimate   =   -1878.11267580 Ry
     estimated scf accuracy    <      15.90984539 Ry

     iteration #  2     ecut=   100.00 Ry     beta=0.50
     Davidson diagonalization with overlap
     ethr =  3.90E-03,  avg # of iterations =  3.1

     total cpu time spent up to now is      681.5 secs

     total energy              =   -1871.18982401 Ry
     Harris-Foulkes estimate   =   -1872.04667973 Ry
     estimated scf accuracy    <       1.85142427 Ry

     iteration #  3     ecut=   100.00 Ry     beta=0.50
     Davidson diagonalization with overlap
     ethr =  4.54E-04,  avg # of iterations =  5.0

     total cpu time spent up to now is     1079.0 secs

     total energy              =   -1872.51511853 Ry
     Harris-Foulkes estimate   =   -1873.18229237 Ry
     estimated scf accuracy    <       1.80389214 Ry

     iteration #  4     ecut=   100.00 Ry     beta=0.50
     Davidson diagonalization with overlap
     ethr =  4.42E-04,  avg # of iterations =  2.9

     total cpu time spent up to now is     1248.6 secs

     total energy              =   -1872.30869657 Ry
     Harris-Foulkes estimate   =   -1872.63948562 Ry
     estimated scf accuracy    <       0.52137191 Ry

     iteration #  5     ecut=   100.00 Ry     beta=0.50
     Davidson diagonalization with overlap
     ethr =  1.28E-04,  avg # of iterations =  5.9

     total cpu time spent up to now is     1656.9 secs

     total energy              =   -1872.65514344 Ry
     Harris-Foulkes estimate   =   -1872.92379681 Ry
     estimated scf accuracy    <       0.85676960 Ry

     iteration #  6     ecut=   100.00 Ry     beta=0.50
     Davidson diagonalization with overlap
     ethr =  1.28E-04,  avg # of iterations =  2.4

     total cpu time spent up to now is     1827.9 secs

     total energy              =   -1872.52927389 Ry
     Harris-Foulkes estimate   =   -1872.68458038 Ry
     estimated scf accuracy    <       0.35522750 Ry

     iteration #  7     ecut=   100.00 Ry     beta=0.50
     Davidson diagonalization with overlap
     ethr =  8.71E-05,  avg # of iterations =  7.4

     total cpu time spent up to now is     2134.3 secs

     total energy              =   -1872.66065598 Ry
     Harris-Foulkes estimate   =   -1872.66489557 Ry
     estimated scf accuracy    <       0.01339773 Ry

     iteration #  8     ecut=   100.00 Ry     beta=0.50
     Davidson diagonalization with overlap
     ethr =  3.28E-06,  avg # of iterations = 10.2

     total cpu time spent up to now is     2384.7 secs

     total energy              =   -1872.66028382 Ry
     Harris-Foulkes estimate   =   -1872.66229768 Ry
     estimated scf accuracy    <       0.00433121 Ry

     iteration #  9     ecut=   100.00 Ry     beta=0.50
     Davidson diagonalization with overlap
     ethr =  1.06E-06,  avg # of iterations =  4.1

     total cpu time spent up to now is     2664.1 secs

     total energy              =   -1872.66223325 Ry
     Harris-Foulkes estimate   =   -1872.66242527 Ry
     estimated scf accuracy    <       0.00059128 Ry

     iteration # 10     ecut=   100.00 Ry     beta=0.50
     Davidson diagonalization with overlap
     ethr =  1.45E-07,  avg # of iterations =  2.0

     total cpu time spent up to now is     2834.1 secs

     total energy              =   -1872.66214144 Ry
     Harris-Foulkes estimate   =   -1872.66227992 Ry
     estimated scf accuracy    <       0.00021595 Ry

     iteration # 11     ecut=   100.00 Ry     beta=0.50
     Davidson diagonalization with overlap
     ethr =  5.29E-08,  avg # of iterations =  4.0

     total cpu time spent up to now is     3171.8 secs

     total energy              =   -1872.66228784 Ry
     Harris-Foulkes estimate   =   -1872.66240774 Ry
     estimated scf accuracy    <       0.00038852 Ry

     iteration # 12     ecut=   100.00 Ry     beta=0.50
     Davidson diagonalization with overlap
     ethr =  5.29E-08,  avg # of iterations =  1.0

     total cpu time spent up to now is     3338.7 secs

     total energy              =   -1872.66222349 Ry
     Harris-Foulkes estimate   =   -1872.66229676 Ry
     estimated scf accuracy    <       0.00017881 Ry

     iteration # 13     ecut=   100.00 Ry     beta=0.50
     Davidson diagonalization with overlap
     ethr =  4.38E-08,  avg # of iterations =  4.0

     total cpu time spent up to now is     3606.2 secs

     total energy              =   -1872.66229526 Ry
     Harris-Foulkes estimate   =   -1872.66229379 Ry
     estimated scf accuracy    <       0.00000685 Ry

     iteration # 14     ecut=   100.00 Ry     beta=0.50
     Davidson diagonalization with overlap
     ethr =  1.68E-09,  avg # of iterations =  3.5

     total cpu time spent up to now is     3803.9 secs

     total energy              =   -1872.66229104 Ry
     Harris-Foulkes estimate   =   -1872.66229624 Ry
     estimated scf accuracy    <       0.00001093 Ry

     iteration # 15     ecut=   100.00 Ry     beta=0.50
     Davidson diagonalization with overlap
     ethr =  1.68E-09,  avg # of iterations =  3.4

     total cpu time spent up to now is     3988.0 secs

     total energy              =   -1872.66229127 Ry
     Harris-Foulkes estimate   =   -1872.66229193 Ry
     estimated scf accuracy    <       0.00000183 Ry

     iteration # 16     ecut=   100.00 Ry     beta=0.50
     Davidson diagonalization with overlap
     ethr =  4.48E-10,  avg # of iterations =  4.0

     total cpu time spent up to now is     4305.3 secs

     total energy              =   -1872.66229242 Ry
     Harris-Foulkes estimate   =   -1872.66229247 Ry
     estimated scf accuracy    <       0.00000018 Ry

     iteration # 17     ecut=   100.00 Ry     beta=0.50
     Davidson diagonalization with overlap
     ethr =  4.43E-11,  avg # of iterations =  1.0

     total cpu time spent up to now is     4470.9 secs

     total energy              =   -1872.66229239 Ry
     Harris-Foulkes estimate   =   -1872.66229243 Ry
     estimated scf accuracy    <       0.00000009 Ry

     iteration # 18     ecut=   100.00 Ry     beta=0.50
     Davidson diagonalization with overlap
     ethr =  2.12E-11,  avg # of iterations =  4.0

     total cpu time spent up to now is     4760.8 secs

     total energy              =   -1872.66229242 Ry
     Harris-Foulkes estimate   =   -1872.66229243 Ry
     estimated scf accuracy    <       0.00000002 Ry

     iteration # 19     ecut=   100.00 Ry     beta=0.50
     Davidson diagonalization with overlap
     ethr =  5.73E-12,  avg # of iterations =  1.0

     total cpu time spent up to now is     4926.8 secs

     total energy              =   -1872.66229241 Ry
     Harris-Foulkes estimate   =   -1872.66229242 Ry
     estimated scf accuracy    <       0.00000001 Ry

     iteration # 20     ecut=   100.00 Ry     beta=0.50
     Davidson diagonalization with overlap
     ethr =  3.19E-12,  avg # of iterations =  4.0

     total cpu time spent up to now is     5195.6 secs

     End of self-consistent calculation

          k = 0.0000 0.0000 0.0000 (164167 PWs)   bands (ev):

   -22.5274 -22.5263 -22.5253 -22.5245 -20.6359 -20.6340 -20.6318 -20.6295
   -20.3463 -20.3438 -20.3371 -20.3354 -19.7923 -19.7904 -19.7688 -19.7681
   -19.0307 -19.0307 -19.0292 -19.0283 -16.7845 -16.7830 -16.7788 -16.7746
   -15.4888 -15.4860 -15.4824 -15.4789 -13.3894 -13.3850 -13.3764 -13.3685
   -13.2286 -13.2149 -13.2013 -13.2006 -12.7865 -12.7494 -12.7331 -12.7219
   -11.9653 -11.9293 -11.9221 -11.8971 -11.1088 -11.0948 -11.0633 -11.0375
   -11.0009 -10.9964 -10.9914 -10.9869 -10.0440 -10.0169  -9.9967  -9.9632
    -9.2001  -9.1908  -9.1427  -9.1378  -8.9689  -8.9069  -8.8791  -8.8363
    -8.2956  -8.2951  -8.2744  -8.2577  -7.9062  -7.8828  -7.8824  -7.8785
    -7.2354  -7.2318  -7.1272  -7.0965  -7.0012  -6.9653  -6.9626  -6.9464
    -6.7551  -6.6170  -6.6055  -6.5621  -6.5426  -6.4672  -6.4349  -6.4151
    -6.2281  -6.2236  -6.2131  -6.1594  -6.0766  -6.0620  -6.0249  -6.0008
    -5.9252  -5.9197  -5.8690  -5.8436  -5.6478  -5.6144  -5.5879  -5.5219
    -5.2414  -5.2222  -5.2095  -5.1066  -5.1024  -5.0540  -5.0394  -5.0314
    -4.9107  -4.9009  -4.8029  -4.7296  -4.7270  -4.6123  -4.5465  -4.5323
    -4.4388  -4.3670  -4.3322  -4.2922  -4.0955  -4.0948  -4.0709  -4.0702
    -4.0176  -3.9826  -3.9756  -3.9243  -3.8999  -3.8537  -3.8289  -3.7738
    -3.7509  -3.6947  -3.6582  -3.6542  -3.6183  -3.6025  -3.5608  -3.5392
    -3.5108  -3.4851  -3.4785  -3.4617  -3.3569  -3.3094  -3.3052  -3.2703
    -3.1535  -3.1411  -3.0908  -3.0658  -2.8423  -2.7937  -2.7857  -2.7528
    -2.7483  -2.7102  -2.7059  -2.6436  -2.6248  -2.6205  -2.6165  -2.5573
    -2.5288  -2.4281  -2.4072  -2.4038  -2.3091  -2.2871  -2.2739  -2.2450
    -1.9878  -1.8974  -1.8476  -1.8222  -1.7646  -1.7645  -1.7264  -1.7103
    -1.6237  -1.5285  -1.5280  -1.4632  -1.3524  -1.3259  -1.3068  -1.2977
    -1.0617  -1.0240  -0.8522  -0.8473  -0.4194  -0.4003  -0.3978  -0.3723
    -0.2230  -0.2018  -0.1873  -0.1620   2.6759   2.6795   2.6928   2.7553
     4.7360   5.2053   5.2257   5.2501   5.2636   5.3823   5.4882   5.5507
     5.7875   5.8007   5.8296   5.8732   5.8977   5.9640   6.1061   6.1766
     6.2336   6.2601   6.5271   6.6332   6.6392   6.6935   6.7699   6.7777
     6.8678   6.8776   6.9545   6.9742   7.1094   7.1895   7.2482   7.2676
     7.2896   7.3855   7.5376   7.5381

          k = 0.0000 0.0000-0.4014 (164158 PWs)   bands (ev):

   -22.5264 -22.5264 -22.5254 -22.5254 -20.6350 -20.6350 -20.6307 -20.6307
   -20.3418 -20.3418 -20.3396 -20.3396 -19.7806 -19.7806 -19.7791 -19.7791
   -19.0300 -19.0300 -19.0294 -19.0294 -16.7839 -16.7839 -16.7766 -16.7766
   -15.4856 -15.4856 -15.4824 -15.4824 -13.3874 -13.3874 -13.3723 -13.3723
   -13.2221 -13.2221 -13.2005 -13.2005 -12.7692 -12.7692 -12.7264 -12.7264
   -11.9481 -11.9481 -11.9092 -11.9092 -11.1039 -11.1039 -11.0474 -11.0474
   -10.9957 -10.9957 -10.9923 -10.9923 -10.0305 -10.0305  -9.9799  -9.9799
    -9.1706  -9.1706  -9.1663  -9.1663  -8.9327  -8.9327  -8.8611  -8.8611
    -8.2873  -8.2873  -8.2750  -8.2750  -7.9034  -7.9034  -7.8820  -7.8820
    -7.1909  -7.1909  -7.1773  -7.1773  -6.9598  -6.9598  -6.9440  -6.9440
    -6.6819  -6.6819  -6.5866  -6.5866  -6.4949  -6.4949  -6.4474  -6.4474
    -6.2162  -6.2162  -6.1935  -6.1935  -6.0625  -6.0625  -5.9472  -5.9472
    -5.9329  -5.9329  -5.9175  -5.9175  -5.6327  -5.6327  -5.5453  -5.5453
    -5.2270  -5.2270  -5.2002  -5.2002  -5.0556  -5.0556  -5.0219  -5.0219
    -4.8944  -4.8944  -4.7667  -4.7667  -4.6202  -4.6202  -4.5574  -4.5574
    -4.3843  -4.3843  -4.3513  -4.3513  -4.0950  -4.0950  -4.0878  -4.0878
    -3.9894  -3.9894  -3.9452  -3.9452  -3.9092  -3.9092  -3.7805  -3.7805
    -3.7043  -3.7043  -3.6627  -3.6627  -3.6071  -3.6071  -3.6037  -3.6037
    -3.5489  -3.5489  -3.4280  -3.4280  -3.3560  -3.3560  -3.2908  -3.2908
    -3.1356  -3.1356  -3.0661  -3.0661  -2.7925  -2.7925  -2.7635  -2.7635
    -2.7556  -2.7556  -2.6649  -2.6649  -2.6185  -2.6185  -2.5848  -2.5848
    -2.4832  -2.4832  -2.3980  -2.3980  -2.2964  -2.2964  -2.2537  -2.2537
    -1.9468  -1.9468  -1.8302  -1.8302  -1.7679  -1.7679  -1.7173  -1.7173
    -1.5698  -1.5698  -1.4695  -1.4695  -1.3302  -1.3302  -1.3198  -1.3198
    -0.9541  -0.9541  -0.9374  -0.9374  -0.4137  -0.4137  -0.3791  -0.3791
    -0.2101  -0.2101  -0.1930  -0.1930   2.6726   2.6726   2.7284   2.7284
     4.9560   4.9560   5.2153   5.2153   5.2621   5.2621   5.5914   5.5914
     5.8061   5.8061   5.8383   5.8383   5.8999   5.8999   6.1978   6.1978
     6.4112   6.4112   6.4812   6.4812   6.5534   6.5534   6.7519   6.7519
     6.9016   6.9016   6.9792   6.9792   7.1141   7.1141   7.1903   7.1903
     7.4194   7.4194   7.5324   7.5326

          k = 0.0000-0.4260 0.0000 (164158 PWs)   bands (ev):

   -22.5270 -22.5270 -22.5248 -22.5248 -20.6355 -20.6355 -20.6302 -20.6302
   -20.3450 -20.3450 -20.3362 -20.3362 -19.7914 -19.7914 -19.7684 -19.7684
   -19.0308 -19.0308 -19.0287 -19.0287 -16.7829 -16.7829 -16.7753 -16.7753
   -15.4914 -15.4914 -15.4851 -15.4851 -13.3939 -13.3939 -13.3769 -13.3769
   -13.2020 -13.2020 -13.1948 -13.1948 -12.7272 -12.7272 -12.7025 -12.7025
   -12.0058 -12.0058 -11.9686 -11.9686 -11.1012 -11.1012 -11.0754 -11.0754
   -10.9911 -10.9911 -10.9866 -10.9866  -9.9758  -9.9758  -9.9510  -9.9510
    -9.2098  -9.2098  -9.1546  -9.1546  -8.8632  -8.8632  -8.7839  -8.7839
    -8.3697  -8.3697  -8.3367  -8.3367  -7.9088  -7.9088  -7.9010  -7.9010
    -7.2415  -7.2415  -7.1271  -7.1271  -6.9579  -6.9579  -6.9076  -6.9076
    -6.6867  -6.6867  -6.6260  -6.6260  -6.4840  -6.4840  -6.4347  -6.4347
    -6.2402  -6.2402  -6.1898  -6.1898  -6.0965  -6.0965  -6.0623  -6.0623
    -5.9524  -5.9524  -5.8410  -5.8410  -5.5711  -5.5711  -5.5257  -5.5257
    -5.1883  -5.1883  -5.1386  -5.1386  -5.0443  -5.0443  -5.0111  -5.0111
    -4.8571  -4.8571  -4.7938  -4.7938  -4.6948  -4.6948  -4.4990  -4.4990
    -4.3978  -4.3978  -4.3377  -4.3377  -4.1410  -4.1410  -4.0666  -4.0666
    -3.9681  -3.9681  -3.9621  -3.9621  -3.8506  -3.8506  -3.8356  -3.8356
    -3.7764  -3.7764  -3.7198  -3.7198  -3.6170  -3.6170  -3.5647  -3.5647
    -3.5147  -3.5147  -3.4731  -3.4731  -3.3419  -3.3419  -3.3155  -3.3155
    -3.1435  -3.1435  -3.0848  -3.0848  -2.8022  -2.8022  -2.7603  -2.7603
    -2.7301  -2.7301  -2.6621  -2.6621  -2.5892  -2.5892  -2.5315  -2.5315
    -2.4578  -2.4578  -2.4178  -2.4178  -2.3061  -2.3061  -2.2518  -2.2518
    -1.9322  -1.9322  -1.8236  -1.8236  -1.7633  -1.7633  -1.7156  -1.7156
    -1.5950  -1.5950  -1.5012  -1.5012  -1.3376  -1.3376  -1.2982  -1.2982
    -1.0276  -1.0276  -0.8494  -0.8494  -0.4067  -0.4067  -0.4008  -0.4008
    -0.2184  -0.2184  -0.1766  -0.1766   2.6738   2.6738   2.7010   2.7010
     4.9597   4.9597   5.2238   5.2238   5.2601   5.2601   5.5277   5.5277
     5.8044   5.8044   5.9082   5.9082   5.9510   5.9510   6.1921   6.1921
     6.2625   6.2625   6.4291   6.4291   6.6205   6.6205   6.8481   6.8481
     6.9885   6.9885   7.0287   7.0287   7.0674   7.0674   7.2474   7.2474
     7.4472   7.4472   7.5516   7.5517

          k = 0.0000-0.4260-0.4014 (164156 PWs)   bands (ev):

   -22.5264 -22.5264 -22.5254 -22.5254 -20.6354 -20.6354 -20.6305 -20.6305
   -20.3406 -20.3406 -20.3406 -20.3406 -19.7799 -19.7799 -19.7798 -19.7798
   -19.0301 -19.0301 -19.0293 -19.0293 -16.7828 -16.7828 -16.7755 -16.7755
   -15.4889 -15.4889 -15.4876 -15.4876 -13.3923 -13.3923 -13.3786 -13.3786
   -13.2008 -13.2008 -13.1959 -13.1959 -12.7188 -12.7188 -12.7113 -12.7113
   -11.9884 -11.9884 -11.9862 -11.9862 -11.0977 -11.0977 -11.0782 -11.0782
   -10.9904 -10.9904 -10.9872 -10.9872  -9.9634  -9.9634  -9.9634  -9.9634
    -9.1879  -9.1879  -9.1783  -9.1783  -8.8478  -8.8478  -8.7965  -8.7965
    -8.3587  -8.3587  -8.3483  -8.3483  -7.9189  -7.9189  -7.9005  -7.9005
    -7.2034  -7.2034  -7.1835  -7.1835  -6.9294  -6.9294  -6.9133  -6.9133
    -6.6473  -6.6473  -6.6328  -6.6328  -6.5051  -6.5051  -6.4536  -6.4536
    -6.2403  -6.2403  -6.1918  -6.1918  -6.0652  -6.0652  -6.0588  -6.0588
    -5.9168  -5.9168  -5.9042  -5.9042  -5.5589  -5.5589  -5.5231  -5.5231
    -5.1795  -5.1795  -5.1645  -5.1645  -5.0607  -5.0607  -5.0051  -5.0051
    -4.8388  -4.8388  -4.7734  -4.7734  -4.6204  -4.6204  -4.5511  -4.5511
    -4.3877  -4.3877  -4.3757  -4.3757  -4.1398  -4.1398  -4.0884  -4.0884
    -3.9571  -3.9571  -3.9532  -3.9532  -3.8571  -3.8571  -3.8381  -3.8381
    -3.7264  -3.7264  -3.7094  -3.7094  -3.6601  -3.6601  -3.6361  -3.6361
    -3.5087  -3.5087  -3.4888  -3.4888  -3.3282  -3.3282  -3.3251  -3.3251
    -3.1152  -3.1152  -3.0995  -3.0995  -2.7759  -2.7759  -2.7585  -2.7585
    -2.7287  -2.7287  -2.6769  -2.6769  -2.5496  -2.5496  -2.5478  -2.5478
    -2.4754  -2.4754  -2.4126  -2.4126  -2.2997  -2.2997  -2.2590  -2.2590
    -1.9282  -1.9282  -1.8008  -1.8008  -1.7739  -1.7739  -1.7296  -1.7296
    -1.5510  -1.5510  -1.5095  -1.5095  -1.3295  -1.3295  -1.3110  -1.3110
    -0.9466  -0.9466  -0.9336  -0.9336  -0.4065  -0.4065  -0.3992  -0.3992
    -0.2062  -0.2062  -0.2039  -0.2039   2.6764   2.6764   2.6980   2.6980
     5.0867   5.0867   5.2222   5.2222   5.2364   5.2364   5.2961   5.2961
     5.8272   5.8272   5.8321   5.8321   6.1635   6.1635   6.1784   6.1784
     6.3389   6.3389   6.3799   6.3799   6.6736   6.6736   6.8403   6.8403
     6.8915   6.8915   6.9145   6.9145   7.1331   7.1331   7.2583   7.2583
     7.3851   7.3851   7.5345   7.5347

          k =-0.5000 0.0000 0.0000 (164260 PWs)   bands (ev):

   -22.5269 -22.5269 -22.5249 -22.5249 -20.6339 -20.6339 -20.6317 -20.6317
   -20.3450 -20.3450 -20.3363 -20.3363 -19.7914 -19.7914 -19.7684 -19.7684
   -19.0307 -19.0307 -19.0288 -19.0288 -16.7822 -16.7822 -16.7783 -16.7783
   -15.4896 -15.4896 -15.4784 -15.4784 -13.3874 -13.3874 -13.3726 -13.3726
   -13.2165 -13.2165 -13.2059 -13.2059 -12.7723 -12.7723 -12.7224 -12.7224
   -11.9437 -11.9437 -11.9136 -11.9136 -11.0984 -11.0984 -11.0519 -11.0519
   -11.0023 -11.0023 -10.9871 -10.9871 -10.0278 -10.0278  -9.9856  -9.9856
    -9.1952  -9.1952  -9.1398  -9.1398  -8.9260  -8.9260  -8.8711  -8.8711
    -8.3024  -8.3024  -8.2539  -8.2539  -7.9031  -7.9031  -7.8765  -7.8765
    -7.2431  -7.2431  -7.1186  -7.1186  -7.0059  -7.0059  -6.9159  -6.9159
    -6.6794  -6.6794  -6.5973  -6.5973  -6.4979  -6.4979  -6.4265  -6.4265
    -6.2224  -6.2224  -6.1784  -6.1784  -6.0466  -6.0466  -5.9970  -5.9970
    -5.9855  -5.9855  -5.8550  -5.8550  -5.6006  -5.6006  -5.5591  -5.5591
    -5.2747  -5.2747  -5.1575  -5.1575  -5.0809  -5.0809  -5.0239  -5.0239
    -4.8999  -4.8999  -4.7621  -4.7621  -4.6663  -4.6663  -4.4965  -4.4965
    -4.3670  -4.3670  -4.3315  -4.3315  -4.1035  -4.1035  -4.0736  -4.0736
    -3.9928  -3.9928  -3.9677  -3.9677  -3.8786  -3.8786  -3.8037  -3.8037
    -3.7200  -3.7200  -3.6895  -3.6895  -3.5893  -3.5893  -3.5734  -3.5734
    -3.5026  -3.5026  -3.4683  -3.4683  -3.3284  -3.3284  -3.2760  -3.2760
    -3.1622  -3.1622  -3.0765  -3.0765  -2.8018  -2.8018  -2.7673  -2.7673
    -2.7533  -2.7533  -2.6877  -2.6877  -2.6278  -2.6278  -2.5719  -2.5719
    -2.4822  -2.4822  -2.4123  -2.4123  -2.3138  -2.3138  -2.2616  -2.2616
    -1.8872  -1.8872  -1.8195  -1.8195  -1.7642  -1.7642  -1.7101  -1.7101
    -1.5904  -1.5904  -1.5132  -1.5132  -1.3479  -1.3479  -1.3021  -1.3021
    -1.0404  -1.0404  -0.8541  -0.8541  -0.4030  -0.4030  -0.3888  -0.3888
    -0.2128  -0.2128  -0.1659  -0.1659   2.6768   2.6768   2.7259   2.7259
     5.0581   5.0581   5.2420   5.2420   5.2531   5.2531   5.5901   5.5901
     5.6898   5.6898   5.8901   5.8901   5.9433   5.9433   6.0113   6.0113
     6.2382   6.2382   6.3537   6.3537   6.7060   6.7060   6.7959   6.7959
     6.8277   6.8277   7.0304   7.0304   7.2153   7.2153   7.3603   7.3603
     7.4361   7.4361   7.5037   7.5039

          k =-0.5000 0.0000-0.4014 (164172 PWs)   bands (ev):

   -22.5260 -22.5260 -22.5258 -22.5258 -20.6330 -20.6330 -20.6327 -20.6327
   -20.3409 -20.3409 -20.3405 -20.3405 -19.7801 -19.7801 -19.7796 -19.7796
   -19.0299 -19.0299 -19.0295 -19.0295 -16.7816 -16.7816 -16.7790 -16.7790
   -15.4883 -15.4883 -15.4796 -15.4796 -13.3873 -13.3873 -13.3726 -13.3726
   -13.2154 -13.2154 -13.2071 -13.2071 -12.7698 -12.7698 -12.7251 -12.7251
   -11.9325 -11.9325 -11.9251 -11.9251 -11.0976 -11.0976 -11.0528 -11.0528
   -11.0015 -11.0015 -10.9872 -10.9872 -10.0195 -10.0195  -9.9939  -9.9939
    -9.1683  -9.1683  -9.1677  -9.1677  -8.9069  -8.9069  -8.8881  -8.8881
    -8.2991  -8.2991  -8.2583  -8.2583  -7.9069  -7.9069  -7.8830  -7.8830
    -7.2059  -7.2059  -7.1772  -7.1772  -6.9623  -6.9623  -6.9342  -6.9342
    -6.6312  -6.6312  -6.6242  -6.6242  -6.4777  -6.4777  -6.4737  -6.4737
    -6.2008  -6.2008  -6.1847  -6.1847  -6.0344  -6.0344  -6.0090  -6.0090
    -5.9269  -5.9269  -5.9219  -5.9219  -5.5959  -5.5959  -5.5578  -5.5578
    -5.2827  -5.2827  -5.1430  -5.1430  -5.0899  -5.0899  -5.0512  -5.0512
    -4.8577  -4.8577  -4.7513  -4.7513  -4.5886  -4.5886  -4.5480  -4.5480
    -4.3687  -4.3687  -4.3563  -4.3563  -4.1285  -4.1285  -4.0938  -4.0938
    -3.9697  -3.9697  -3.9663  -3.9663  -3.8992  -3.8992  -3.7570  -3.7570
    -3.7195  -3.7195  -3.6835  -3.6835  -3.6138  -3.6138  -3.5829  -3.5829
    -3.5444  -3.5444  -3.4740  -3.4740  -3.3314  -3.3314  -3.2900  -3.2900
    -3.1598  -3.1598  -3.0534  -3.0534  -2.7923  -2.7923  -2.7678  -2.7678
    -2.7536  -2.7536  -2.6861  -2.6861  -2.6024  -2.6024  -2.5917  -2.5917
    -2.4754  -2.4754  -2.4179  -2.4179  -2.2842  -2.2842  -2.2773  -2.2773
    -1.8666  -1.8666  -1.8664  -1.8664  -1.7395  -1.7395  -1.7143  -1.7143
    -1.5525  -1.5525  -1.5183  -1.5183  -1.3554  -1.3554  -1.3027  -1.3027
    -0.9488  -0.9488  -0.9447  -0.9447  -0.4002  -0.4002  -0.3898  -0.3898
    -0.2055  -0.2055  -0.1894  -0.1894   2.6814   2.6814   2.7206   2.7206
     5.1712   5.1712   5.2489   5.2489   5.2739   5.2739   5.3251   5.3251
     5.7889   5.7889   5.8241   5.8241   5.9484   5.9484   6.1087   6.1087
     6.2048   6.2048   6.3772   6.3772   6.5849   6.5849   6.8298   6.8298
     6.9486   6.9486   7.0866   7.0866   7.1942   7.1942   7.2037   7.2037
     7.3225   7.3225   7.6753   7.6754

          k =-0.5000-0.4260 0.0000 (164272 PWs)   bands (ev):

   -22.5269 -22.5269 -22.5249 -22.5249 -20.6340 -20.6340 -20.6318 -20.6318
   -20.3450 -20.3450 -20.3362 -20.3362 -19.7914 -19.7914 -19.7684 -19.7684
   -19.0307 -19.0307 -19.0288 -19.0288 -16.7803 -16.7803 -16.7781 -16.7781
   -15.4913 -15.4913 -15.4852 -15.4852 -13.3889 -13.3889 -13.3811 -13.3811
   -13.2005 -13.2005 -13.1965 -13.1965 -12.7264 -12.7264 -12.7036 -12.7036
   -12.0049 -12.0049 -11.9683 -11.9683 -11.0978 -11.0978 -11.0812 -11.0812
   -10.9894 -10.9894 -10.9885 -10.9885  -9.9738  -9.9738  -9.9507  -9.9507
    -9.2091  -9.2091  -9.1553  -9.1553  -8.8515  -8.8515  -8.8015  -8.8015
    -8.3675  -8.3675  -8.3353  -8.3353  -7.9073  -7.9073  -7.9045  -7.9045
    -7.2441  -7.2441  -7.1290  -7.1290  -6.9498  -6.9498  -6.9329  -6.9329
    -6.6580  -6.6580  -6.5922  -6.5922  -6.5231  -6.5231  -6.4343  -6.4343
    -6.2295  -6.2295  -6.2014  -6.2014  -6.1034  -6.1034  -6.0423  -6.0423
    -5.9660  -5.9660  -5.8415  -5.8415  -5.5570  -5.5570  -5.5276  -5.5276
    -5.2125  -5.2125  -5.1519  -5.1519  -5.0319  -5.0319  -5.0207  -5.0207
    -4.8381  -4.8381  -4.8261  -4.8261  -4.6201  -4.6201  -4.4858  -4.4858
    -4.3921  -4.3921  -4.3420  -4.3420  -4.1367  -4.1367  -4.1093  -4.1093
    -3.9674  -3.9674  -3.9636  -3.9636  -3.8294  -3.8294  -3.8293  -3.8293
    -3.7967  -3.7967  -3.6840  -3.6840  -3.6293  -3.6293  -3.5630  -3.5630
    -3.5593  -3.5593  -3.4847  -3.4847  -3.3820  -3.3820  -3.2706  -3.2706
    -3.1393  -3.1393  -3.0907  -3.0907  -2.7751  -2.7751  -2.7746  -2.7746
    -2.7205  -2.7205  -2.6972  -2.6972  -2.5818  -2.5818  -2.5321  -2.5321
    -2.4622  -2.4622  -2.4235  -2.4235  -2.2913  -2.2913  -2.2885  -2.2885
    -1.8735  -1.8735  -1.8162  -1.8162  -1.7365  -1.7365  -1.7344  -1.7344
    -1.5982  -1.5982  -1.5148  -1.5148  -1.3322  -1.3322  -1.3176  -1.3176
    -1.0256  -1.0256  -0.8573  -0.8573  -0.4040  -0.4040  -0.4026  -0.4026
    -0.2132  -0.2132  -0.1714  -0.1714   2.6813   2.6813   2.6961   2.6961
     5.1565   5.1565   5.2411   5.2411   5.2494   5.2494   5.3740   5.3740
     5.7706   5.7706   5.8571   5.8571   5.9231   5.9231   6.0445   6.0445
     6.2731   6.2731   6.3584   6.3584   6.7050   6.7050   6.7665   6.7665
     6.9312   6.9312   7.0502   7.0502   7.2929   7.2929   7.3736   7.3736
     7.4523   7.4523   7.5108   7.5108

          k =-0.5000-0.4260-0.4014 (164120 PWs)   bands (ev):

   -22.5259 -22.5259 -22.5259 -22.5259 -20.6329 -20.6329 -20.6329 -20.6329
   -20.3406 -20.3406 -20.3406 -20.3406 -19.7799 -19.7799 -19.7799 -19.7799
   -19.0297 -19.0297 -19.0297 -19.0297 -16.7792 -16.7792 -16.7792 -16.7792
   -15.4882 -15.4882 -15.4882 -15.4882 -13.3850 -13.3850 -13.3850 -13.3850
   -13.1985 -13.1985 -13.1985 -13.1985 -12.7153 -12.7153 -12.7153 -12.7153
   -11.9866 -11.9866 -11.9866 -11.9866 -11.0895 -11.0895 -11.0895 -11.0895
   -10.9886 -10.9886 -10.9886 -10.9886  -9.9624  -9.9624  -9.9624  -9.9624
    -9.1829  -9.1829  -9.1829  -9.1829  -8.8246  -8.8246  -8.8246  -8.8246
    -8.3523  -8.3523  -8.3523  -8.3523  -7.9114  -7.9114  -7.9114  -7.9114
    -7.1950  -7.1950  -7.1950  -7.1950  -6.9269  -6.9269  -6.9269  -6.9269
    -6.6152  -6.6152  -6.6152  -6.6152  -6.4980  -6.4980  -6.4980  -6.4980
    -6.2067  -6.2067  -6.2067  -6.2067  -6.0731  -6.0731  -6.0731  -6.0731
    -5.9057  -5.9057  -5.9057  -5.9057  -5.5342  -5.5342  -5.5342  -5.5342
    -5.1989  -5.1989  -5.1989  -5.1989  -5.0297  -5.0297  -5.0297  -5.0297
    -4.7957  -4.7957  -4.7957  -4.7957  -4.5540  -4.5540  -4.5540  -4.5540
    -4.3805  -4.3805  -4.3805  -4.3805  -4.1330  -4.1330  -4.1330  -4.1330
    -3.9588  -3.9588  -3.9588  -3.9588  -3.8381  -3.8381  -3.8381  -3.8381
    -3.7244  -3.7244  -3.7244  -3.7244  -3.6197  -3.6197  -3.6197  -3.6197
    -3.5421  -3.5421  -3.5421  -3.5421  -3.3240  -3.3240  -3.3240  -3.3240
    -3.1054  -3.1054  -3.1054  -3.1054  -2.7660  -2.7660  -2.7660  -2.7660
    -2.7100  -2.7100  -2.7100  -2.7100  -2.5526  -2.5526  -2.5526  -2.5526
    -2.4437  -2.4437  -2.4437  -2.4437  -2.2859  -2.2859  -2.2859  -2.2859
    -1.8549  -1.8549  -1.8549  -1.8549  -1.7228  -1.7228  -1.7228  -1.7228
    -1.5455  -1.5455  -1.5455  -1.5455  -1.3264  -1.3264  -1.3264  -1.3264
    -0.9419  -0.9419  -0.9419  -0.9419  -0.4025  -0.4025  -0.4025  -0.4025
    -0.2002  -0.2002  -0.2002  -0.2002   2.6885   2.6885   2.6885   2.6885
     5.2328   5.2328   5.2328   5.2328   5.3183   5.3183   5.3183   5.3183
     5.7196   5.7196   5.7196   5.7196   5.9067   5.9067   5.9067   5.9067
     6.4826   6.4826   6.4826   6.4826   6.7720   6.7720   6.7720   6.7720
     6.9230   6.9230   6.9230   6.9230   7.3152   7.3152   7.3152   7.3152
     7.4305   7.4305   7.4305   7.4305

     highest occupied, lowest unoccupied level (ev):    -0.1620    2.6726

!    total energy              =   -1872.66229242 Ry
     Harris-Foulkes estimate   =   -1872.66229242 Ry
     estimated scf accuracy    <          2.5E-09 Ry

     total all-electron energy =     -7037.279502 Ry

     The total energy is the sum of the following terms:

     one-electron contribution =   -1319.47907517 Ry
     hartree contribution      =     803.72856805 Ry
     xc contribution           =    -418.57206374 Ry
     ewald contribution        =    -400.04956783 Ry
     Dispersion Correction     =      -0.61574364 Ry
     one-center paw contrib.   =    -537.67441008 Ry

     convergence has been achieved in  20 iterations

     Forces acting on atoms (cartesian axes, Ry/au):

     atom    1 type  1   force =     0.00007493   -0.00030182    0.00024854
     atom    2 type  1   force =    -0.00007493    0.00030182    0.00024854
     atom    3 type  1   force =    -0.00007493   -0.00030182   -0.00024854
     atom    4 type  1   force =     0.00007493    0.00030182   -0.00024854
     atom    5 type  3   force =    -0.00016536    0.00043303   -0.00041019
     atom    6 type  3   force =     0.00016536   -0.00043303   -0.00041019
     atom    7 type  3   force =     0.00016536    0.00043303    0.00041019
     atom    8 type  3   force =    -0.00016536   -0.00043303    0.00041019
     atom    9 type  3   force =    -0.00003670    0.00002420    0.00005187
     atom   10 type  3   force =     0.00003670   -0.00002420    0.00005187
     atom   11 type  3   force =     0.00003670    0.00002420   -0.00005187
     atom   12 type  3   force =    -0.00003670   -0.00002420   -0.00005187
     atom   13 type  1   force =     0.00011000   -0.00017922   -0.00049123
     atom   14 type  1   force =    -0.00011000    0.00017922   -0.00049123
     atom   15 type  1   force =    -0.00011000   -0.00017922    0.00049123
     atom   16 type  1   force =     0.00011000    0.00017922    0.00049123
     atom   17 type  3   force =    -0.00047792   -0.00032161   -0.00047181
     atom   18 type  3   force =     0.00047792    0.00032161   -0.00047181
     atom   19 type  3   force =     0.00047792   -0.00032161    0.00047181
     atom   20 type  3   force =    -0.00047792    0.00032161    0.00047181
     atom   21 type  3   force =     0.00031651    0.00006532    0.00005340
     atom   22 type  3   force =    -0.00031651   -0.00006532    0.00005340
     atom   23 type  3   force =    -0.00031651    0.00006532   -0.00005340
     atom   24 type  3   force =     0.00031651   -0.00006532   -0.00005340
     atom   25 type  1   force =    -0.00038381    0.00058439    0.00039925
     atom   26 type  1   force =     0.00038381   -0.00058439    0.00039925
     atom   27 type  1   force =     0.00038381    0.00058439   -0.00039925
     atom   28 type  1   force =    -0.00038381   -0.00058439   -0.00039925
     atom   29 type  3   force =    -0.00012236    0.00051268    0.00034297
     atom   30 type  3   force =     0.00012236   -0.00051268    0.00034297
     atom   31 type  3   force =     0.00012236    0.00051268   -0.00034297
     atom   32 type  3   force =    -0.00012236   -0.00051268   -0.00034297
     atom   33 type  1   force =    -0.00076996    0.00023538    0.00045555
     atom   34 type  1   force =     0.00076996   -0.00023538    0.00045555
     atom   35 type  1   force =     0.00076996    0.00023538   -0.00045555
     atom   36 type  1   force =    -0.00076996   -0.00023538   -0.00045555
     atom   37 type  1   force =    -0.00022028    0.00032845   -0.00063338
     atom   38 type  1   force =     0.00022028   -0.00032845   -0.00063338
     atom   39 type  1   force =     0.00022028    0.00032845    0.00063338
     atom   40 type  1   force =    -0.00022028   -0.00032845    0.00063338
     atom   41 type  1   force =     0.00033872   -0.00031332   -0.00029388
     atom   42 type  1   force =    -0.00033872    0.00031332   -0.00029388
     atom   43 type  1   force =    -0.00033872   -0.00031332    0.00029388
     atom   44 type  1   force =     0.00033872    0.00031332    0.00029388
     atom   45 type  1   force =     0.00012107    0.00021778   -0.00048023
     atom   46 type  1   force =    -0.00012107   -0.00021778   -0.00048023
     atom   47 type  1   force =    -0.00012107    0.00021778    0.00048023
     atom   48 type  1   force =     0.00012107   -0.00021778    0.00048023
     atom   49 type  3   force =     0.00047610    0.00055828    0.00000488
     atom   50 type  3   force =    -0.00047610   -0.00055828    0.00000488
     atom   51 type  3   force =    -0.00047610    0.00055828   -0.00000488
     atom   52 type  3   force =     0.00047610   -0.00055828   -0.00000488
     atom   53 type  3   force =    -0.00036685   -0.00066309   -0.00050877
     atom   54 type  3   force =     0.00036685    0.00066309   -0.00050877
     atom   55 type  3   force =     0.00036685   -0.00066309    0.00050877
     atom   56 type  3   force =    -0.00036685    0.00066309    0.00050877
     atom   57 type  3   force =    -0.00001369    0.00037451    0.00010922
     atom   58 type  3   force =     0.00001369   -0.00037451    0.00010922
     atom   59 type  3   force =     0.00001369    0.00037451   -0.00010922
     atom   60 type  3   force =    -0.00001369   -0.00037451   -0.00010922
     atom   61 type  1   force =     0.00002313    0.00028675    0.00003971
     atom   62 type  1   force =    -0.00002313   -0.00028675    0.00003971
     atom   63 type  1   force =    -0.00002313    0.00028675   -0.00003971
     atom   64 type  1   force =     0.00002313   -0.00028675   -0.00003971
     atom   65 type  1   force =     0.00034389   -0.00024180   -0.00003120
     atom   66 type  1   force =    -0.00034389    0.00024180   -0.00003120
     atom   67 type  1   force =    -0.00034389   -0.00024180    0.00003120
     atom   68 type  1   force =     0.00034389    0.00024180    0.00003120
     atom   69 type  3   force =     0.00004756   -0.00025865    0.00018856
     atom   70 type  3   force =    -0.00004756    0.00025865    0.00018856
     atom   71 type  3   force =    -0.00004756   -0.00025865   -0.00018856
     atom   72 type  3   force =     0.00004756    0.00025865   -0.00018856
     atom   73 type  3   force =     0.00007223    0.00035578    0.00028164
     atom   74 type  3   force =    -0.00007223   -0.00035578    0.00028164
     atom   75 type  3   force =    -0.00007223    0.00035578   -0.00028164
     atom   76 type  3   force =     0.00007223   -0.00035578   -0.00028164
     atom   77 type  3   force =     0.00033876    0.00025798    0.00056133
     atom   78 type  3   force =    -0.00033876   -0.00025798    0.00056133
     atom   79 type  3   force =    -0.00033876    0.00025798   -0.00056133
     atom   80 type  3   force =     0.00033876   -0.00025798   -0.00056133
     atom   81 type  1   force =    -0.00010821    0.00009790   -0.00017722
     atom   82 type  1   force =     0.00010821   -0.00009790   -0.00017722
     atom   83 type  1   force =     0.00010821    0.00009790    0.00017722
     atom   84 type  1   force =    -0.00010821   -0.00009790    0.00017722
     atom   85 type  3   force =    -0.00036734   -0.00012445    0.00054610
     atom   86 type  3   force =     0.00036734    0.00012445    0.00054610
     atom   87 type  3   force =     0.00036734   -0.00012445   -0.00054610
     atom   88 type  3   force =    -0.00036734    0.00012445   -0.00054610
     atom   89 type  3   force =     0.00024779    0.00009293    0.00050322
     atom   90 type  3   force =    -0.00024779   -0.00009293    0.00050322
     atom   91 type  3   force =    -0.00024779    0.00009293   -0.00050322
     atom   92 type  3   force =     0.00024779   -0.00009293   -0.00050322
     atom   93 type  3   force =    -0.00046171    0.00001189   -0.00011092
     atom   94 type  3   force =     0.00046171   -0.00001189   -0.00011092
     atom   95 type  3   force =     0.00046171    0.00001189    0.00011092
     atom   96 type  3   force =    -0.00046171   -0.00001189    0.00011092
     atom   97 type  4   force =     0.00059915    0.00037917    0.00117416
     atom   98 type  4   force =    -0.00059915   -0.00037917    0.00117416
     atom   99 type  4   force =    -0.00059915    0.00037917   -0.00117416
     atom  100 type  4   force =     0.00059915   -0.00037917   -0.00117416
     atom  101 type  2   force =    -0.00009639   -0.00061701   -0.00064770
     atom  102 type  2   force =     0.00009639    0.00061701   -0.00064770
     atom  103 type  2   force =     0.00009639   -0.00061701    0.00064770
     atom  104 type  2   force =    -0.00009639    0.00061701    0.00064770
     atom  105 type  2   force =    -0.00010355   -0.00034299   -0.00023393
     atom  106 type  2   force =     0.00010355    0.00034299   -0.00023393
     atom  107 type  2   force =     0.00010355   -0.00034299    0.00023393
     atom  108 type  2   force =    -0.00010355    0.00034299    0.00023393
     atom  109 type  3   force =     0.00072212    0.00034900   -0.00038675
     atom  110 type  3   force =    -0.00072212   -0.00034900   -0.00038675
     atom  111 type  3   force =    -0.00072212    0.00034900    0.00038675
     atom  112 type  3   force =     0.00072212   -0.00034900    0.00038675
     atom  113 type  1   force =     0.00024003   -0.00005014   -0.00001760
     atom  114 type  1   force =    -0.00024003    0.00005014   -0.00001760
     atom  115 type  1   force =    -0.00024003   -0.00005014    0.00001760
     atom  116 type  1   force =     0.00024003    0.00005014    0.00001760
     atom  117 type  4   force =    -0.00078920    0.00011268    0.00031231
     atom  118 type  4   force =     0.00078920   -0.00011268    0.00031231
     atom  119 type  4   force =     0.00078920    0.00011268   -0.00031231
     atom  120 type  4   force =    -0.00078920   -0.00011268   -0.00031231
     atom  121 type  1   force =     0.00021021    0.00058828   -0.00039011
     atom  122 type  1   force =    -0.00021021   -0.00058828   -0.00039011
     atom  123 type  1   force =    -0.00021021    0.00058828    0.00039011
     atom  124 type  1   force =     0.00021021   -0.00058828    0.00039011
     atom  125 type  3   force =     0.00015014    0.00011716    0.00020141
     atom  126 type  3   force =    -0.00015014   -0.00011716    0.00020141
     atom  127 type  3   force =    -0.00015014    0.00011716   -0.00020141
     atom  128 type  3   force =     0.00015014   -0.00011716   -0.00020141
     atom  129 type  3   force =    -0.00004094    0.00008944   -0.00025516
     atom  130 type  3   force =     0.00004094   -0.00008944   -0.00025516
     atom  131 type  3   force =     0.00004094    0.00008944    0.00025516
     atom  132 type  3   force =    -0.00004094   -0.00008944    0.00025516
     atom  133 type  3   force =     0.00068585   -0.00037406   -0.00002968
     atom  134 type  3   force =    -0.00068585    0.00037406   -0.00002968
     atom  135 type  3   force =    -0.00068585   -0.00037406    0.00002968
     atom  136 type  3   force =     0.00068585    0.00037406    0.00002968
     atom  137 type  4   force =     0.00048183    0.00020135    0.00056809
     atom  138 type  4   force =    -0.00048183   -0.00020135    0.00056809
     atom  139 type  4   force =    -0.00048183    0.00020135   -0.00056809
     atom  140 type  4   force =     0.00048183   -0.00020135   -0.00056809
     atom  141 type  4   force =    -0.00014841   -0.00009407    0.00025982
     atom  142 type  4   force =     0.00014841    0.00009407    0.00025982
     atom  143 type  4   force =     0.00014841   -0.00009407   -0.00025982
     atom  144 type  4   force =    -0.00014841    0.00009407   -0.00025982
     atom  145 type  3   force =     0.00063088   -0.00029448   -0.00017599
     atom  146 type  3   force =    -0.00063088    0.00029448   -0.00017599
     atom  147 type  3   force =    -0.00063088   -0.00029448    0.00017599
     atom  148 type  3   force =     0.00063088    0.00029448    0.00017599
     atom  149 type  3   force =     0.00012157    0.00036957    0.00015662
     atom  150 type  3   force =    -0.00012157   -0.00036957    0.00015662
     atom  151 type  3   force =    -0.00012157    0.00036957   -0.00015662
     atom  152 type  3   force =     0.00012157   -0.00036957   -0.00015662

     Total force =     0.007834     Total SCF correction =     0.000081


     Computing stress (Cartesian axis) and pressure

          total   stress  (Ry/bohr**3)                   (kbar)     P=   -5.41
  -0.00004386   0.00000000   0.00000000         -6.45      0.00      0.00
   0.00000000  -0.00003336   0.00000000          0.00     -4.91      0.00
   0.00000000   0.00000000  -0.00003312          0.00      0.00     -4.87


     Writing output data file scf.save
 
     init_run     :    111.80s CPU    115.29s WALL (       1 calls)
     electrons    :   4945.93s CPU   5079.79s WALL (       1 calls)
     forces       :     51.64s CPU     52.03s WALL (       1 calls)
     stress       :    260.59s CPU    261.25s WALL (       1 calls)

     Called by init_run:
     wfcinit      :    102.88s CPU    106.14s WALL (       1 calls)
     potinit      :      3.02s CPU      3.07s WALL (       1 calls)

     Called by electrons:
     c_bands      :   4489.97s CPU   4605.48s WALL (      20 calls)
     sum_band     :    431.57s CPU    446.91s WALL (      20 calls)
     v_of_rho     :      3.81s CPU      4.11s WALL (      21 calls)
     newd         :     10.53s CPU     13.27s WALL (      21 calls)
     PAW_pot      :      8.85s CPU      8.87s WALL (      21 calls)
     mix_rho      :      1.03s CPU      1.09s WALL (      20 calls)

     Called by c_bands:
     init_us_2    :     21.21s CPU     21.28s WALL (     344 calls)
     cegterg      :   4412.01s CPU   4527.44s WALL (     160 calls)

     Called by sum_band:
     sum_band:bec :      0.20s CPU      0.20s WALL (     160 calls)
     addusdens    :     10.54s CPU     13.19s WALL (      20 calls)

     Called by *egterg:
     h_psi        :   2241.54s CPU   2327.78s WALL (     783 calls)
     s_psi        :    597.74s CPU    597.84s WALL (     783 calls)
     g_psi        :      9.62s CPU      9.61s WALL (     615 calls)
     cdiaghg      :    195.90s CPU    195.92s WALL (     775 calls)

     Called by h_psi:
     h_psi:pot    :   2227.36s CPU   2313.37s WALL (     783 calls)
     h_psi:calbec :    589.18s CPU    589.81s WALL (     783 calls)
     vloc_psi     :   1040.13s CPU   1125.42s WALL (     783 calls)
     add_vuspsi   :    598.05s CPU    598.13s WALL (     783 calls)

     General routines
     calbec       :    842.74s CPU    843.57s WALL (     983 calls)
     fft          :      2.71s CPU      3.21s WALL (     297 calls)
     fftw         :   1072.66s CPU   1170.02s WALL (  263022 calls)
 
     Parallel routines
     fft_scatter  :    210.13s CPU    305.07s WALL (  263319 calls)
 
     PWSCF        :     1h29m CPU        1h33m WALL

 
   This run was terminated on:  22:22:33  22Dec2017            

=------------------------------------------------------------------------------=
   JOB DONE.
=------------------------------------------------------------------------------=
