
     Program PWSCF v.6.1 (svn rev. 13369) starts on  5Nov2017 at 18:48:57 

     This program is part of the open-source Quantum ESPRESSO suite
     for quantum simulation of materials; please cite
         "P. Giannozzi et al., J. Phys.:Condens. Matter 21 395502 (2009);
          URL http://www.quantum-espresso.org", 
     in publications or presentations arising from this work. More details at
     http://www.quantum-espresso.org/quote

     Parallel version (MPI), running on     8 processors
     R & G space division:  proc/nbgrp/npool/nimage =       8
     Waiting for input...
     Reading input from standard input

     Current dimensions of program PWSCF are:
     Max number of different atomic species (ntypx) = 10
     Max number of k-points (npk) =  40000
     Max angular momentum in pseudopotentials (lmaxx) =  3
               file C.pbe-n-kjpaw_psl.0.1.UPF: wavefunction(s)  2P renormalized
               file N.pbe-n-kjpaw_psl.0.1.UPF: wavefunction(s)  2P renormalized
               file H.pbe-kjpaw_psl.0.1.UPF: wavefunction(s)  1S renormalized
               file O.pbe-n-kjpaw_psl.0.1.UPF: wavefunction(s)  2P renormalized

     -------------------------------------
     Parameters for Dispersion Correction:
     -------------------------------------
       atom      VdW radius       C_6     

        C          2.744         60.710
        N          2.640         42.670
        H          1.892          4.857
        O          2.536         24.284

     Subspace diagonalization in iterative solution of the eigenvalue problem:
     a serial algorithm will be used

 
     Parallelization info
     --------------------
     sticks:   dense  smooth     PW     G-vecs:    dense   smooth      PW
     Min        1227    1227    325               114845   114845   15546
     Max        1228    1228    326               114847   114847   15549
     Sum        9817    9817   2601               918765   918765  124385
 


     bravais-lattice index     =            0
     lattice parameter (alat)  =      27.3840  a.u.
     unit-cell volume          =    6801.4712 (a.u.)^3
     number of atoms/cell      =           92
     number of atomic types    =            4
     number of electrons       =       352.00
     number of Kohn-Sham states=          211
     kinetic-energy cutoff     =     100.0000  Ry
     charge density cutoff     =     400.0000  Ry
     convergence threshold     =      1.0E-08
     mixing beta               =       0.5000
     number of iterations used =            8  plain     mixing
     Exchange-correlation      =  SLA  PW   PBX  PBC ( 1  4  3  4 0 0)

     celldm(1)=  27.384021  celldm(2)=   0.000000  celldm(3)=   0.000000
     celldm(4)=   0.000000  celldm(5)=   0.000000  celldm(6)=   0.000000

     crystal axes: (cart. coord. in units of alat)
               a(1) = (   1.000000   0.000000   0.000000 )  
               a(2) = (   0.000000   0.411911   0.000000 )  
               a(3) = (  -0.090052   0.000000   0.804096 )  

     reciprocal axes: (cart. coord. in units 2 pi/alat)
               b(1) = (  1.000000  0.000000  0.111991 )  
               b(2) = (  0.000000  2.427710  0.000000 )  
               b(3) = (  0.000000  0.000000  1.243632 )  


     PseudoPot. # 1 for  C read from file:
     /scratch/ahofstet/pseudo/C.pbe-n-kjpaw_psl.0.1.UPF
     MD5 check sum: 430fe95172b1e11ef3f8ed03bac87931
     Pseudo is Projector augmented-wave + core cor, Zval =  4.0
     Generated using "atomic" code by A. Dal Corso  v.5.0.99 svn rev. 10869
     Shape of augmentation charge: BESSEL
     Using radial grid of 1073 points,  4 beta functions with: 
                l(1) =   0
                l(2) =   0
                l(3) =   1
                l(4) =   1
     Q(r) pseudized with 0 coefficients 


     PseudoPot. # 2 for  N read from file:
     /scratch/ahofstet/pseudo/N.pbe-n-kjpaw_psl.0.1.UPF
     MD5 check sum: f73187c8b701007e77325f868c9291d7
     Pseudo is Projector augmented-wave + core cor, Zval =  5.0
     Generated using "atomic" code by A. Dal Corso  v.5.0.99 svn rev. 10869
     Shape of augmentation charge: PSQ
     Using radial grid of 1085 points,  4 beta functions with: 
                l(1) =   0
                l(2) =   0
                l(3) =   1
                l(4) =   1
     Q(r) pseudized with 0 coefficients 


     PseudoPot. # 3 for  H read from file:
     /scratch/ahofstet/pseudo/H.pbe-kjpaw_psl.0.1.UPF
     MD5 check sum: 94e484f906d9e9773b2f6e52662335b2
     Pseudo is Projector augmented-wave, Zval =  1.0
     Generated using "atomic" code by A. Dal Corso  v.5.0.99 svn rev. 10869
     Shape of augmentation charge: PSQ
     Using radial grid of  929 points,  2 beta functions with: 
                l(1) =   0
                l(2) =   0
     Q(r) pseudized with 0 coefficients 


     PseudoPot. # 4 for  O read from file:
     /scratch/ahofstet/pseudo/O.pbe-n-kjpaw_psl.0.1.UPF
     MD5 check sum: 3f94a2996a3169367d6eb21d9b593f20
     Pseudo is Projector augmented-wave + core cor, Zval =  6.0
     Generated using "atomic" code by A. Dal Corso  v.5.0.99 svn rev. 10869
     Shape of augmentation charge: BESSEL
     Using radial grid of 1095 points,  4 beta functions with: 
                l(1) =   0
                l(2) =   0
                l(3) =   1
                l(4) =   1
     Q(r) pseudized with 0 coefficients 


     atomic species   valence    mass     pseudopotential
        C              4.00    12.01070      C( 1.00)
        N              5.00    14.00670      N( 1.00)
        H              1.00     1.00794      H( 1.00)
        O              6.00    15.99940      O( 1.00)

      2 Sym. Ops., with inversion, found



   Cartesian axes

     site n.     atom                  positions (alat units)
         1           N   tau(   1) = (   0.2065269   0.1798234   0.1353262  )
         2           N   tau(   2) = (   0.2034160   0.3857794   0.6687603  )
         3           N   tau(   3) = (   0.7034214   0.2320874   0.6687699  )
         4           N   tau(   4) = (   0.7065323   0.0261314   0.1353358  )
         5           N   tau(   5) = (   0.2557751   0.1060807   0.1672702  )
         6           N   tau(   6) = (   0.1541601   0.3120509   0.6367912  )
         7           N   tau(   7) = (   0.6541732   0.3058301   0.6368260  )
         8           N   tau(   8) = (   0.7557882   0.0998599   0.1673049  )
         9           C   tau(   9) = (   0.3428968   0.1252862   0.1467884  )
        10           C   tau(  10) = (   0.0670371   0.3312617   0.6572559  )
        11           C   tau(  11) = (   0.5670514   0.2866246   0.6573077  )
        12           C   tau(  12) = (   0.8429112   0.0806491   0.1468402  )
        13           C   tau(  13) = (   0.3487535   0.2117851   0.1017537  )
        14           C   tau(  14) = (   0.0611724   0.0058358   0.7023094  )
        15           C   tau(  15) = (   0.5611947   0.2001257   0.7023424  )
        16           C   tau(  16) = (   0.8487759   0.4060750   0.1017867  )
        17           C   tau(  17) = (   0.2588232   0.2451296   0.0951654  )
        18           C   tau(  18) = (   0.1511118   0.0391753   0.7089244  )
        19           C   tau(  19) = (   0.6511250   0.1667812   0.7089307  )
        20           C   tau(  20) = (   0.7588365   0.3727355   0.0951717  )
        21           N   tau(  21) = (   0.4299806   0.2612765   0.0796329  )
        22           N   tau(  22) = (  -0.0200573   0.0553169   0.7244412  )
        23           N   tau(  23) = (   0.4799677   0.1506344   0.7244633  )
        24           N   tau(  24) = (   0.9300056   0.3565940   0.0796549  )
        25           O   tau(  25) = (   0.4225854   0.3370353   0.0403803  )
        26           O   tau(  26) = (  -0.0126510   0.1310810   0.7637185  )
        27           O   tau(  27) = (   0.4873628   0.0748755   0.7637159  )
        28           O   tau(  28) = (   0.9225993   0.2808298   0.0403776  )
        29           O   tau(  29) = (   0.5053948   0.2267963   0.1027114  )
        30           O   tau(  30) = (   0.9045337   0.0208529   0.7013725  )
        31           O   tau(  31) = (   0.4045535   0.1851145   0.7013847  )
        32           O   tau(  32) = (   0.0054146   0.3910579   0.1027236  )
        33           N   tau(  33) = (   0.0980370   0.1865963   0.2573075  )
        34           N   tau(  34) = (   0.3119416   0.3925669   0.5468179  )
        35           N   tau(  35) = (   0.8119113   0.2253145   0.5467886  )
        36           N   tau(  36) = (   0.5980066   0.0193439   0.2572782  )
        37           N   tau(  37) = (   0.1334655   0.2580496   0.3076318  )
        38           N   tau(  38) = (   0.2765170   0.0521110   0.4964952  )
        39           N   tau(  39) = (   0.7764828   0.1538612   0.4964644  )
        40           N   tau(  40) = (   0.6334313   0.3597998   0.3076009  )
        41           C   tau(  41) = (   0.1129157   0.2378387   0.3947882  )
        42           C   tau(  42) = (   0.2970566   0.0319005   0.4093318  )
        43           C   tau(  43) = (   0.7970325   0.1740722   0.4093079  )
        44           C   tau(  44) = (   0.6128916   0.3800104   0.3947643  )
        45           C   tau(  45) = (   0.0664421   0.1520150   0.3992358  )
        46           C   tau(  46) = (   0.3435139   0.3579770   0.4048770  )
        47           C   tau(  47) = (   0.8435062   0.2598958   0.4048603  )
        48           C   tau(  48) = (   0.5664344   0.0539338   0.3992191  )
        49           C   tau(  49) = (   0.0583237   0.1204035   0.3090411  )
        50           C   tau(  50) = (   0.3516435   0.3263607   0.4950749  )
        51           C   tau(  51) = (   0.8516246   0.2915074   0.4950551  )
        52           C   tau(  52) = (   0.5583048   0.0855501   0.3090213  )
        53           N   tau(  53) = (   0.0336775   0.1052714   0.4791641  )
        54           N   tau(  54) = (   0.3762666   0.3112264   0.3249512  )
        55           N   tau(  55) = (   0.8762708   0.3066394   0.3249320  )
        56           N   tau(  56) = (   0.5336817   0.1006845   0.4791449  )
        57           O   tau(  57) = (   0.0219136   0.1514538   0.5504626  )
        58           O   tau(  58) = (   0.3880230   0.3574197   0.2536426  )
        59           O   tau(  59) = (   0.8880346   0.2604571   0.2536335  )
        60           O   tau(  60) = (   0.5219253   0.0544911   0.5504535  )
        61           O   tau(  61) = (   0.0181609   0.0213437   0.4734576  )
        62           O   tau(  62) = (   0.3917816   0.2273098   0.3306472  )
        63           O   tau(  63) = (   0.8917874   0.3905671   0.3306385  )
        64           O   tau(  64) = (   0.5181667   0.1846011   0.4734489  )
        65           C   tau(  65) = (   0.1090942   0.1855430   0.1578709  )
        66           C   tau(  66) = (   0.3008616   0.3914999   0.6462462  )
        67           C   tau(  67) = (   0.8008541   0.2263678   0.6462252  )
        68           C   tau(  68) = (   0.6090867   0.0204110   0.1578499  )
        69           H   tau(  69) = (   0.3977334   0.0780492   0.1651962  )
        70           H   tau(  70) = (   0.0122006   0.2840257   0.6388262  )
        71           H   tau(  71) = (   0.5122148   0.3338616   0.6388999  )
        72           H   tau(  72) = (   0.8977476   0.1278851   0.1652699  )
        73           H   tau(  73) = (   0.2313016   0.3085563   0.0669425  )
        74           H   tau(  74) = (   0.1786243   0.1025931   0.7371613  )
        75           H   tau(  75) = (   0.6786467   0.1033546   0.7371537  )
        76           H   tau(  76) = (   0.7313240   0.3093177   0.0669348  )
        77           H   tau(  77) = (   0.1323848   0.2829284   0.4514713  )
        78           H   tau(  78) = (   0.2775878   0.0769924   0.3526581  )
        79           H   tau(  79) = (   0.7775635   0.1289825   0.3526248  )
        80           H   tau(  80) = (   0.6323604   0.3349185   0.4514380  )
        81           H   tau(  81) = (   0.0255583   0.0593251   0.2809282  )
        82           H   tau(  82) = (   0.3844167   0.2652918   0.5231798  )
        83           H   tau(  83) = (   0.8843899   0.3525857   0.5231679  )
        84           H   tau(  84) = (   0.5255316   0.1466191   0.2809163  )
        85           H   tau(  85) = (   0.0813502   0.2491327   0.1276508  )
        86           H   tau(  86) = (   0.3285980   0.0431746   0.6764853  )
        87           H   tau(  87) = (   0.8285980   0.1627782   0.6764453  )
        88           H   tau(  88) = (   0.5813503   0.3687362   0.1276108  )
        89           H   tau(  89) = (   0.0727717   0.1250932   0.1306928  )
        90           H   tau(  90) = (   0.3371715   0.3310437   0.6734280  )
        91           H   tau(  91) = (   0.8371766   0.2868177   0.6734033  )
        92           H   tau(  92) = (   0.5727767   0.0808671   0.1306681  )

     number of k points=     8
                       cart. coord. in units 2pi/alat
        k(    1) = (   0.0000000   0.0000000   0.0000000), wk =   0.1666667
        k(    2) = (   0.0000000   0.0000000  -0.6218162), wk =   0.1666667
        k(    3) = (   0.0000000   0.8092366   0.0000000), wk =   0.3333333
        k(    4) = (   0.0000000   0.8092366  -0.6218162), wk =   0.3333333
        k(    5) = (  -0.5000000   0.0000000  -0.0559956), wk =   0.1666667
        k(    6) = (  -0.5000000   0.0000000  -0.6778118), wk =   0.1666667
        k(    7) = (  -0.5000000   0.8092366  -0.0559956), wk =   0.3333333
        k(    8) = (  -0.5000000   0.8092366  -0.6778118), wk =   0.3333333

     Dense  grid:   918765 G-vectors     FFT dimensions: ( 180,  72, 144)

     Estimated max dynamical RAM per process >    1006.42MB

     Estimated total allocated dynamical RAM >    8051.33MB

     Check: negative/imaginary core charge=   -0.000002    0.000000

     Initial potential from superposition of free atoms

     starting charge  351.99841, renormalised to  352.00000
     Starting wfc are  296 randomized atomic wfcs
     Checking if some PAW data can be deallocated... 

     total cpu time spent up to now is       44.7 secs

     per-process dynamical memory:   691.6 Mb

     Self-consistent Calculation

     iteration #  1     ecut=   100.00 Ry     beta=0.50
     Davidson diagonalization with overlap
     ethr =  1.00E-02,  avg # of iterations =  3.0

     total cpu time spent up to now is      164.8 secs

     total energy              =   -1884.90662125 Ry
     Harris-Foulkes estimate   =   -1889.45668963 Ry
     estimated scf accuracy    <       8.58944176 Ry

     iteration #  2     ecut=   100.00 Ry     beta=0.50
     Davidson diagonalization with overlap
     ethr =  2.44E-03,  avg # of iterations =  3.0

     total cpu time spent up to now is      244.1 secs

     total energy              =   -1886.04295711 Ry
     Harris-Foulkes estimate   =   -1886.91249235 Ry
     estimated scf accuracy    <       1.85380800 Ry

     iteration #  3     ecut=   100.00 Ry     beta=0.50
     Davidson diagonalization with overlap
     ethr =  5.27E-04,  avg # of iterations =  8.8

     total cpu time spent up to now is      363.6 secs

     total energy              =   -1886.53596087 Ry
     Harris-Foulkes estimate   =   -1886.70312135 Ry
     estimated scf accuracy    <       0.40666088 Ry

     iteration #  4     ecut=   100.00 Ry     beta=0.50
     Davidson diagonalization with overlap
     ethr =  1.16E-04,  avg # of iterations =  5.0

     total cpu time spent up to now is      438.8 secs

     total energy              =   -1886.58348903 Ry
     Harris-Foulkes estimate   =   -1886.60918017 Ry
     estimated scf accuracy    <       0.06396966 Ry

     iteration #  5     ecut=   100.00 Ry     beta=0.50
     Davidson diagonalization with overlap
     ethr =  1.82E-05,  avg # of iterations =  8.8

     total cpu time spent up to now is      565.5 secs

     total energy              =   -1886.59864901 Ry
     Harris-Foulkes estimate   =   -1886.61702228 Ry
     estimated scf accuracy    <       0.05022233 Ry

     iteration #  6     ecut=   100.00 Ry     beta=0.50
     Davidson diagonalization with overlap
     ethr =  1.43E-05,  avg # of iterations =  2.0

     total cpu time spent up to now is      634.9 secs

     total energy              =   -1886.60709330 Ry
     Harris-Foulkes estimate   =   -1886.60893026 Ry
     estimated scf accuracy    <       0.00531616 Ry

     iteration #  7     ecut=   100.00 Ry     beta=0.50
     Davidson diagonalization with overlap
     ethr =  1.51E-06,  avg # of iterations =  5.8

     total cpu time spent up to now is      723.5 secs

     total energy              =   -1886.60835450 Ry
     Harris-Foulkes estimate   =   -1886.60850639 Ry
     estimated scf accuracy    <       0.00049892 Ry

     iteration #  8     ecut=   100.00 Ry     beta=0.50
     Davidson diagonalization with overlap
     ethr =  1.42E-07,  avg # of iterations =  4.0

     total cpu time spent up to now is      834.0 secs

     total energy              =   -1886.60852109 Ry
     Harris-Foulkes estimate   =   -1886.60862495 Ry
     estimated scf accuracy    <       0.00030610 Ry

     iteration #  9     ecut=   100.00 Ry     beta=0.50
     Davidson diagonalization with overlap
     ethr =  8.70E-08,  avg # of iterations =  2.5

     total cpu time spent up to now is      904.2 secs

     total energy              =   -1886.60856247 Ry
     Harris-Foulkes estimate   =   -1886.60858978 Ry
     estimated scf accuracy    <       0.00007719 Ry

     iteration # 10     ecut=   100.00 Ry     beta=0.50
     Davidson diagonalization with overlap
     ethr =  2.19E-08,  avg # of iterations =  3.0

     total cpu time spent up to now is      981.5 secs

     total energy              =   -1886.60858005 Ry
     Harris-Foulkes estimate   =   -1886.60858258 Ry
     estimated scf accuracy    <       0.00000810 Ry

     iteration # 11     ecut=   100.00 Ry     beta=0.50
     Davidson diagonalization with overlap
     ethr =  2.30E-09,  avg # of iterations =  3.0

     total cpu time spent up to now is     1076.5 secs

     total energy              =   -1886.60858261 Ry
     Harris-Foulkes estimate   =   -1886.60858317 Ry
     estimated scf accuracy    <       0.00000175 Ry

     iteration # 12     ecut=   100.00 Ry     beta=0.50
     Davidson diagonalization with overlap
     ethr =  4.97E-10,  avg # of iterations =  2.5

     total cpu time spent up to now is     1143.9 secs

     total energy              =   -1886.60858276 Ry
     Harris-Foulkes estimate   =   -1886.60858288 Ry
     estimated scf accuracy    <       0.00000032 Ry

     iteration # 13     ecut=   100.00 Ry     beta=0.50
     Davidson diagonalization with overlap
     ethr =  8.98E-11,  avg # of iterations =  4.0

     total cpu time spent up to now is     1257.3 secs

     total energy              =   -1886.60858290 Ry
     Harris-Foulkes estimate   =   -1886.60858296 Ry
     estimated scf accuracy    <       0.00000017 Ry

     iteration # 14     ecut=   100.00 Ry     beta=0.50
     Davidson diagonalization with overlap
     ethr =  4.94E-11,  avg # of iterations =  2.0

     total cpu time spent up to now is     1325.1 secs

     total energy              =   -1886.60858292 Ry
     Harris-Foulkes estimate   =   -1886.60858293 Ry
     estimated scf accuracy    <       0.00000004 Ry

     iteration # 15     ecut=   100.00 Ry     beta=0.50
     Davidson diagonalization with overlap
     ethr =  1.22E-11,  avg # of iterations =  3.0

     total cpu time spent up to now is     1401.0 secs

     End of self-consistent calculation

          k = 0.0000 0.0000 0.0000 (114811 PWs)   bands (ev):

   -24.0895 -24.0887 -24.0307 -24.0299 -23.9432 -23.9429 -23.9232 -23.9230
   -20.5626 -20.5612 -20.5580 -20.5578 -19.9649 -19.9634 -19.9567 -19.9564
   -19.5687 -19.5680 -19.5639 -19.5634 -19.4634 -19.4630 -19.4239 -19.4233
   -15.5910 -15.5779 -15.5778 -15.5758 -14.2944 -14.2868 -14.2827 -14.2749
   -14.2512 -14.2418 -14.2187 -14.2127 -14.0500 -14.0495 -14.0414 -14.0295
   -12.3496 -12.2981 -12.2863 -12.2592 -11.3267 -11.3182 -11.3064 -11.2763
   -10.4079 -10.2723 -10.2366 -10.1457  -8.8047  -8.7924  -8.7804  -8.7529
    -8.1409  -8.0927  -8.0516  -8.0470  -8.0071  -7.9618  -7.8635  -7.7641
    -7.7451  -7.6918  -7.6837  -7.6237  -7.4811  -7.4134  -7.2946  -7.2230
    -7.0768  -7.0481  -6.9723  -6.8764  -6.7713  -6.7678  -6.4631  -6.4530
    -6.4130  -6.3329  -6.3065  -6.3052  -6.2302  -6.1950  -6.1833  -6.1544
    -6.1537  -6.0832  -6.0827  -6.0805  -5.9029  -5.8704  -5.8506  -5.8505
    -5.8092  -5.7404  -5.5933  -5.5712  -4.9655  -4.9570  -4.9134  -4.8706
    -4.6784  -4.5937  -4.5860  -4.5490  -4.5211  -4.5181  -4.4926  -4.4624
    -3.9477  -3.9188  -3.8936  -3.8907  -3.7993  -3.7394  -3.7253  -3.6441
    -3.6177  -3.5122  -3.5079  -3.4541  -3.2387  -3.2330  -3.2169  -3.1517
    -1.1359  -1.1182  -1.1042  -1.0716  -1.0586  -1.0576  -1.0392  -1.0246
    -0.9841  -0.9536  -0.9431  -0.9314  -0.8386  -0.7952  -0.7492  -0.7233
    -0.6591  -0.5970  -0.5645  -0.5164  -0.5160  -0.5039  -0.4746  -0.4616
    -0.4221  -0.3876  -0.3788  -0.3350  -0.2989  -0.2361  -0.2001  -0.1917
    -0.1334  -0.1230  -0.0622  -0.0600  -0.0593  -0.0248   0.0038   0.0352
     0.0704   0.0938   0.1415   0.1700   0.3386   0.3406   0.3691   0.3812
     3.3668   3.3715   3.3894   3.4148   3.5486   3.5555   3.6820   3.7096
     5.2006   5.3424   5.4055   5.4541   5.5733   5.6345   5.7043   5.8428
     7.0376   7.0513   7.0584   7.0923   7.2473   7.2776   7.3121   7.3186
     7.3897   7.4856   7.5842   7.6187   7.9729   7.9929   8.0611   8.3228
     8.4909   8.5235   8.5786

          k = 0.0000 0.0000-0.6218 (114794 PWs)   bands (ev):

   -24.0893 -24.0884 -24.0313 -24.0305 -23.9417 -23.9415 -23.9243 -23.9240
   -20.5610 -20.5608 -20.5594 -20.5585 -19.9626 -19.9608 -19.9593 -19.9587
   -19.5686 -19.5679 -19.5640 -19.5635 -19.4635 -19.4630 -19.4239 -19.4233
   -15.5863 -15.5831 -15.5800 -15.5740 -14.2969 -14.2838 -14.2788 -14.2779
   -14.2423 -14.2395 -14.2275 -14.2138 -14.0502 -14.0497 -14.0416 -14.0300
   -12.3331 -12.3150 -12.2808 -12.2661 -11.3210 -11.3201 -11.3058 -11.2837
   -10.3470 -10.3001 -10.2200 -10.2000  -8.7997  -8.7981  -8.7833  -8.7509
    -8.1403  -8.0748  -8.0606  -8.0397  -7.9878  -7.9621  -7.8584  -7.7789
    -7.7396  -7.7130  -7.7042  -7.5539  -7.5420  -7.3353  -7.2992  -7.2939
    -7.1330  -7.0573  -6.9333  -6.8217  -6.7410  -6.6644  -6.5505  -6.5152
    -6.4084  -6.3164  -6.3150  -6.3064  -6.2367  -6.2289  -6.1980  -6.1705
    -6.1164  -6.0893  -6.0815  -6.0753  -5.9084  -5.9016  -5.8875  -5.8291
    -5.7881  -5.6880  -5.6023  -5.5771  -5.0406  -4.9526  -4.8925  -4.8317
    -4.6623  -4.6244  -4.5879  -4.5545  -4.5296  -4.4817  -4.4722  -4.4640
    -3.9360  -3.9097  -3.9008  -3.8211  -3.7952  -3.7331  -3.7248  -3.6848
    -3.5930  -3.5521  -3.5185  -3.4869  -3.2486  -3.2216  -3.1906  -3.1806
    -1.1775  -1.1267  -1.1060  -1.0963  -1.0485  -1.0319  -1.0092  -0.9948
    -0.9802  -0.9663  -0.9624  -0.8988  -0.8278  -0.7862  -0.7600  -0.7526
    -0.6301  -0.6216  -0.5758  -0.5379  -0.5227  -0.5045  -0.5035  -0.4295
    -0.4181  -0.3892  -0.3643  -0.3174  -0.2701  -0.2445  -0.2235  -0.1751
    -0.1452  -0.1420  -0.0884  -0.0282  -0.0071  -0.0004   0.0025   0.0346
     0.0514   0.0789   0.0937   0.1757   0.3430   0.3612   0.3632   0.3800
     3.3415   3.3630   3.4178   3.4252   3.5346   3.5598   3.6747   3.7113
     5.2309   5.3860   5.3968   5.4178   5.5938   5.5999   5.6718   5.8605
     6.9390   7.0670   7.1104   7.1713   7.2678   7.3014   7.3016   7.3107
     7.3377   7.4860   7.5167   7.5976   7.8871   7.9929   8.1016   8.4049
     8.4171   8.4196   8.4587

          k = 0.0000 0.8092 0.0000 (114910 PWs)   bands (ev):

   -24.0874 -24.0866 -24.0320 -24.0313 -23.9401 -23.9398 -23.9253 -23.9251
   -20.5611 -20.5598 -20.5590 -20.5574 -19.9627 -19.9610 -19.9587 -19.9574
   -19.5699 -19.5693 -19.5647 -19.5641 -19.4653 -19.4647 -19.4254 -19.4249
   -15.5910 -15.5864 -15.5761 -15.5734 -14.2959 -14.2928 -14.2860 -14.2822
   -14.2503 -14.2386 -14.2335 -14.2242 -14.0720 -14.0659 -14.0251 -14.0176
   -12.3242 -12.3213 -12.3093 -12.2723 -11.3344 -11.3043 -11.2770 -11.2756
   -10.3085 -10.2467 -10.2323 -10.1760  -8.8079  -8.7916  -8.7795  -8.7711
    -8.1016  -8.0730  -8.0419  -8.0300  -7.9626  -7.9322  -7.8732  -7.8309
    -7.7080  -7.7023  -7.6503  -7.6342  -7.4220  -7.3582  -7.3205  -7.3000
    -6.9725  -6.9563  -6.9151  -6.8384  -6.7360  -6.7328  -6.4859  -6.4742
    -6.4379  -6.3662  -6.3289  -6.3186  -6.2961  -6.2652  -6.2446  -6.2155
    -6.1570  -6.1243  -6.0651  -6.0486  -5.9420  -5.9112  -5.8903  -5.8466
    -5.8112  -5.8031  -5.5807  -5.5435  -4.9964  -4.9625  -4.9340  -4.9027
    -4.6594  -4.6486  -4.6161  -4.5947  -4.5289  -4.5100  -4.4928  -4.4863
    -3.9471  -3.9320  -3.8690  -3.8632  -3.8053  -3.7400  -3.7097  -3.6649
    -3.5609  -3.5056  -3.4835  -3.4670  -3.1970  -3.1820  -3.1670  -3.1458
    -1.2121  -1.1563  -1.1108  -1.0802  -1.0461  -1.0374  -0.9992  -0.9888
    -0.9666  -0.9643  -0.9276  -0.9219  -0.8382  -0.8130  -0.7545  -0.7534
    -0.6629  -0.6555  -0.5765  -0.5687  -0.5398  -0.5324  -0.5297  -0.4727
    -0.3765  -0.3594  -0.2757  -0.2696  -0.2257  -0.1977  -0.1947  -0.1339
    -0.1241  -0.0921  -0.0283  -0.0271   0.0028   0.0097   0.0249   0.0397
     0.0431   0.0761   0.0863   0.1103   0.3404   0.3511   0.3807   0.3971
     3.2932   3.3001   3.3256   3.3353   3.5045   3.5226   3.6392   3.6459
     5.1800   5.2804   5.2837   5.3288   5.4705   5.4882   5.6141   5.6824
     7.1432   7.2212   7.2397   7.2432   7.3082   7.3235   7.4036   7.4262
     7.5774   7.7514   7.7635   7.8939   8.0024   8.0913   8.2489   8.2706
     8.5167   8.5365   8.6014

          k = 0.0000 0.8092-0.6218 (114928 PWs)   bands (ev):

   -24.0872 -24.0865 -24.0324 -24.0317 -23.9388 -23.9386 -23.9263 -23.9261
   -20.5606 -20.5599 -20.5589 -20.5580 -19.9616 -19.9602 -19.9594 -19.9587
   -19.5699 -19.5694 -19.5646 -19.5640 -19.4653 -19.4648 -19.4253 -19.4249
   -15.5895 -15.5886 -15.5760 -15.5734 -14.2961 -14.2907 -14.2847 -14.2835
   -14.2474 -14.2388 -14.2349 -14.2236 -14.0727 -14.0663 -14.0260 -14.0185
   -12.3271 -12.3203 -12.2942 -12.2846 -11.3368 -11.2998 -11.2859 -11.2721
   -10.2834 -10.2596 -10.2139 -10.2069  -8.8049  -8.7953  -8.7806  -8.7713
    -8.1235  -8.0863  -8.0469  -8.0259  -7.9430  -7.9198  -7.8612  -7.8239
    -7.7085  -7.6906  -7.6729  -7.6247  -7.4669  -7.3425  -7.2765  -7.2648
    -7.0439  -6.9475  -6.9380  -6.7528  -6.7474  -6.7261  -6.5071  -6.5037
    -6.4883  -6.4322  -6.2998  -6.2537  -6.2235  -6.2230  -6.2164  -6.1944
    -6.1800  -6.1610  -6.1408  -6.1303  -5.9072  -5.8905  -5.8801  -5.8686
    -5.7938  -5.7602  -5.5997  -5.5642  -5.0314  -4.9345  -4.9279  -4.8852
    -4.6556  -4.6470  -4.6126  -4.6106  -4.5190  -4.5161  -4.4967  -4.4884
    -3.9564  -3.9556  -3.9022  -3.8981  -3.7788  -3.7435  -3.6343  -3.6255
    -3.5497  -3.5368  -3.4885  -3.4829  -3.1948  -3.1781  -3.1549  -3.1526
    -1.1639  -1.1470  -1.1273  -1.1136  -1.0256  -1.0211  -1.0174  -0.9942
    -0.9883  -0.9771  -0.9303  -0.9270  -0.8473  -0.8156  -0.7696  -0.7494
    -0.6438  -0.6369  -0.5979  -0.5557  -0.5385  -0.5354  -0.5034  -0.4997
    -0.3569  -0.3245  -0.2640  -0.2578  -0.2247  -0.2219  -0.1981  -0.1659
    -0.1262  -0.1029  -0.0509  -0.0495  -0.0027  -0.0023   0.0290   0.0437
     0.0548   0.0962   0.1104   0.1171   0.3372   0.3494   0.3809   0.3944
     3.2967   3.2987   3.3353   3.3355   3.5030   3.5231   3.6319   3.6455
     5.1962   5.2753   5.3029   5.3113   5.4667   5.4793   5.6035   5.6913
     7.1603   7.1772   7.1965   7.3011   7.3166   7.3320   7.4078   7.4506
     7.5711   7.7688   7.7746   7.8682   7.9782   8.0589   8.2565   8.2576
     8.4571   8.4982   8.5892

          k =-0.5000 0.0000-0.0560 (114842 PWs)   bands (ev):

   -24.0894 -24.0888 -24.0307 -24.0299 -23.9431 -23.9429 -23.9232 -23.9230
   -20.5621 -20.5619 -20.5580 -20.5578 -19.9642 -19.9641 -19.9566 -19.9565
   -19.5687 -19.5680 -19.5639 -19.5634 -19.4634 -19.4630 -19.4238 -19.4234
   -15.5857 -15.5856 -15.5756 -15.5756 -14.2881 -14.2876 -14.2819 -14.2813
   -14.2468 -14.2467 -14.2155 -14.2154 -14.0507 -14.0507 -14.0345 -14.0344
   -12.3203 -12.3201 -12.2775 -12.2773 -11.3240 -11.3240 -11.2895 -11.2895
   -10.3406 -10.3406 -10.1920 -10.1920  -8.7897  -8.7896  -8.7751  -8.7749
    -8.1206  -8.1205  -8.0437  -8.0436  -7.9917  -7.9917  -7.8163  -7.8159
    -7.7164  -7.7163  -7.6334  -7.6330  -7.4645  -7.4643  -7.2710  -7.2707
    -7.0352  -7.0352  -6.9358  -6.9358  -6.7671  -6.7668  -6.4468  -6.4467
    -6.3998  -6.3996  -6.2919  -6.2918  -6.2248  -6.2247  -6.1566  -6.1565
    -6.1468  -6.1467  -6.0570  -6.0569  -5.8868  -5.8867  -5.8477  -5.8477
    -5.7803  -5.7801  -5.5799  -5.5799  -4.9517  -4.9516  -4.8977  -4.8976
    -4.6341  -4.6340  -4.5822  -4.5821  -4.4970  -4.4967  -4.4828  -4.4825
    -3.9323  -3.9319  -3.8960  -3.8957  -3.8041  -3.8040  -3.6938  -3.6937
    -3.5431  -3.5430  -3.4704  -3.4702  -3.2311  -3.2311  -3.1794  -3.1794
    -1.1280  -1.1280  -1.0956  -1.0955  -1.0639  -1.0636  -1.0013  -1.0011
    -0.9916  -0.9916  -0.9367  -0.9364  -0.8135  -0.8135  -0.7399  -0.7397
    -0.5895  -0.5892  -0.5647  -0.5647  -0.5293  -0.5291  -0.4682  -0.4681
    -0.4237  -0.4233  -0.3341  -0.3340  -0.2695  -0.2693  -0.1845  -0.1844
    -0.1346  -0.1346  -0.0674  -0.0673  -0.0202  -0.0202   0.0281   0.0282
     0.0433   0.0437   0.1685   0.1687   0.3427   0.3428   0.3735   0.3735
     3.3581   3.3583   3.4203   3.4206   3.5446   3.5447   3.6979   3.6981
     5.2607   5.2609   5.4291   5.4291   5.6103   5.6105   5.7767   5.7771
     7.0402   7.0402   7.1264   7.1264   7.2040   7.2042   7.3406   7.3407
     7.3627   7.3630   7.6480   7.6480   8.0168   8.0168   8.2854   8.2855
     8.4376   8.4378   8.6056

          k =-0.5000 0.0000-0.6778 (114690 PWs)   bands (ev):

   -24.0892 -24.0885 -24.0313 -24.0306 -23.9417 -23.9415 -23.9243 -23.9240
   -20.5609 -20.5609 -20.5590 -20.5589 -19.9620 -19.9616 -19.9591 -19.9587
   -19.5685 -19.5679 -19.5640 -19.5635 -19.4635 -19.4630 -19.4238 -19.4234
   -15.5829 -15.5828 -15.5789 -15.5788 -14.2887 -14.2882 -14.2801 -14.2796
   -14.2413 -14.2413 -14.2207 -14.2206 -14.0510 -14.0510 -14.0348 -14.0347
   -12.3054 -12.3049 -12.2935 -12.2930 -11.3235 -11.3235 -11.2911 -11.2911
   -10.2890 -10.2889 -10.2463 -10.2461  -8.7936  -8.7935  -8.7718  -8.7717
    -8.1117  -8.1117  -8.0467  -8.0466  -7.9799  -7.9797  -7.8189  -7.8185
    -7.7129  -7.7129  -7.6554  -7.6549  -7.4538  -7.4536  -7.2307  -7.2304
    -7.1419  -7.1419  -6.8394  -6.8393  -6.7367  -6.7364  -6.5073  -6.5072
    -6.4252  -6.4251  -6.2585  -6.2584  -6.2335  -6.2333  -6.1724  -6.1724
    -6.1102  -6.1101  -6.0904  -6.0904  -5.9040  -5.9040  -5.8603  -5.8603
    -5.7411  -5.7410  -5.5851  -5.5851  -5.0020  -5.0020  -4.8498  -4.8498
    -4.6243  -4.6242  -4.5927  -4.5927  -4.5184  -4.5181  -4.4518  -4.4516
    -3.9341  -3.9340  -3.8371  -3.8371  -3.8045  -3.8043  -3.7218  -3.7217
    -3.5460  -3.5458  -3.4974  -3.4972  -3.2158  -3.2157  -3.1954  -3.1954
    -1.1586  -1.1585  -1.0900  -1.0897  -1.0634  -1.0633  -0.9940  -0.9937
    -0.9692  -0.9687  -0.9265  -0.9263  -0.8024  -0.8024  -0.7640  -0.7638
    -0.5759  -0.5759  -0.5685  -0.5684  -0.5478  -0.5477  -0.4901  -0.4901
    -0.4162  -0.4161  -0.3029  -0.3028  -0.2435  -0.2431  -0.2291  -0.2288
    -0.1230  -0.1228  -0.0917  -0.0913   0.0186   0.0188   0.0224   0.0229
     0.0596   0.0596   0.1406   0.1408   0.3497   0.3498   0.3700   0.3700
     3.3666   3.3667   3.4064   3.4066   3.5473   3.5474   3.6957   3.6959
     5.2953   5.2955   5.4086   5.4087   5.5902   5.5904   5.7832   5.7836
     6.9845   6.9848   7.2063   7.2066   7.2317   7.2318   7.2915   7.2915
     7.3826   7.3828   7.6066   7.6068   7.9337   7.9340   8.2864   8.2865
     8.4599   8.4609   8.4852

          k =-0.5000 0.8092-0.0560 (114892 PWs)   bands (ev):

   -24.0873 -24.0867 -24.0320 -24.0313 -23.9400 -23.9398 -23.9253 -23.9251
   -20.5605 -20.5604 -20.5584 -20.5582 -19.9619 -19.9618 -19.9581 -19.9580
   -19.5699 -19.5693 -19.5647 -19.5641 -19.4652 -19.4648 -19.4253 -19.4250
   -15.5854 -15.5853 -15.5782 -15.5781 -14.2923 -14.2918 -14.2871 -14.2865
   -14.2464 -14.2462 -14.2265 -14.2263 -14.0691 -14.0690 -14.0213 -14.0212
   -12.3199 -12.3195 -12.2948 -12.2945 -11.3150 -11.3149 -11.2801 -11.2800
   -10.2793 -10.2792 -10.2038 -10.2037  -8.7929  -8.7927  -8.7796  -8.7794
    -8.0717  -8.0717  -8.0556  -8.0556  -7.9514  -7.9513  -7.8426  -7.8424
    -7.6938  -7.6937  -7.6606  -7.6602  -7.3964  -7.3962  -7.2885  -7.2883
    -7.0027  -7.0026  -6.8594  -6.8594  -6.7235  -6.7234  -6.4789  -6.4788
    -6.4359  -6.4357  -6.3132  -6.3131  -6.2673  -6.2672  -6.2183  -6.2182
    -6.1329  -6.1329  -6.0744  -6.0742  -5.9158  -5.9157  -5.8628  -5.8627
    -5.8240  -5.8239  -5.5605  -5.5605  -4.9604  -4.9603  -4.9319  -4.9318
    -4.6525  -4.6523  -4.6095  -4.6093  -4.5238  -4.5236  -4.4861  -4.4859
    -3.9130  -3.9129  -3.8814  -3.8812  -3.7676  -3.7675  -3.7086  -3.7085
    -3.5349  -3.5348  -3.4707  -3.4706  -3.1824  -3.1824  -3.1625  -3.1625
    -1.1927  -1.1925  -1.0861  -1.0860  -1.0420  -1.0416  -0.9995  -0.9992
    -0.9610  -0.9608  -0.9230  -0.9227  -0.8289  -0.8288  -0.7509  -0.7506
    -0.6515  -0.6513  -0.5884  -0.5881  -0.5402  -0.5399  -0.4997  -0.4995
    -0.3386  -0.3385  -0.2771  -0.2770  -0.2436  -0.2434  -0.1583  -0.1581
    -0.0801  -0.0797  -0.0411  -0.0408   0.0056   0.0060   0.0289   0.0290
     0.0412   0.0416   0.1126   0.1128   0.3457   0.3459   0.3919   0.3920
     3.2959   3.2960   3.3298   3.3300   3.5150   3.5151   3.6416   3.6417
     5.2199   5.2202   5.3126   5.3126   5.4839   5.4841   5.6470   5.6474
     7.1738   7.1739   7.2503   7.2505   7.3143   7.3145   7.4180   7.4183
     7.6345   7.6347   7.8406   7.8407   8.1171   8.1173   8.2792   8.2795
     8.4503   8.4505   8.6470

          k =-0.5000 0.8092-0.6778 (114886 PWs)   bands (ev):

   -24.0872 -24.0865 -24.0324 -24.0317 -23.9388 -23.9386 -23.9263 -23.9261
   -20.5600 -20.5599 -20.5589 -20.5587 -19.9609 -19.9606 -19.9593 -19.9591
   -19.5699 -19.5694 -19.5646 -19.5640 -19.4653 -19.4648 -19.4253 -19.4249
   -15.5841 -15.5840 -15.5799 -15.5797 -14.2911 -14.2907 -14.2870 -14.2865
   -14.2421 -14.2419 -14.2302 -14.2301 -14.0697 -14.0696 -14.0222 -14.0221
   -12.3154 -12.3148 -12.2988 -12.2982 -11.3155 -11.3154 -11.2816 -11.2816
   -10.2509 -10.2507 -10.2322 -10.2321  -8.7954  -8.7952  -8.7779  -8.7777
    -8.0999  -8.0998  -8.0452  -8.0451  -7.9350  -7.9349  -7.8369  -7.8366
    -7.6941  -7.6940  -7.6625  -7.6623  -7.3901  -7.3900  -7.2732  -7.2730
    -7.0313  -7.0312  -6.8281  -6.8278  -6.7265  -6.7263  -6.5079  -6.5078
    -6.4612  -6.4611  -6.2839  -6.2837  -6.2299  -6.2298  -6.2042  -6.2041
    -6.1660  -6.1659  -6.1145  -6.1145  -5.9091  -5.9090  -5.8712  -5.8712
    -5.7775  -5.7773  -5.5832  -5.5831  -4.9906  -4.9905  -4.8961  -4.8960
    -4.6496  -4.6494  -4.6130  -4.6128  -4.5143  -4.5141  -4.4963  -4.4961
    -3.9416  -3.9413  -3.9124  -3.9122  -3.7357  -3.7356  -3.6728  -3.6727
    -3.5208  -3.5207  -3.4958  -3.4957  -3.1845  -3.1845  -3.1555  -3.1554
    -1.1554  -1.1554  -1.1240  -1.1238  -1.0179  -1.0178  -1.0094  -1.0093
    -0.9798  -0.9794  -0.9295  -0.9293  -0.8313  -0.8313  -0.7601  -0.7598
    -0.6287  -0.6286  -0.5929  -0.5926  -0.5357  -0.5355  -0.5029  -0.5028
    -0.3282  -0.3280  -0.2703  -0.2702  -0.2223  -0.2220  -0.1917  -0.1915
    -0.0979  -0.0977  -0.0517  -0.0514  -0.0066  -0.0063   0.0367   0.0369
     0.0547   0.0551   0.1353   0.1354   0.3459   0.3461   0.3823   0.3823
     3.2996   3.2997   3.3341   3.3343   3.5113   3.5114   3.6392   3.6393
     5.2375   5.2378   5.3002   5.3003   5.4759   5.4762   5.6493   5.6498
     7.1690   7.1694   7.2486   7.2490   7.3164   7.3166   7.4328   7.4331
     7.6390   7.6392   7.8539   7.8539   8.0244   8.0246   8.3193   8.3196
     8.4631   8.4633   8.6198

     highest occupied, lowest unoccupied level (ev):     0.3971    3.2932

!    total energy              =   -1886.60858292 Ry
     Harris-Foulkes estimate   =   -1886.60858292 Ry
     estimated scf accuracy    <          5.5E-09 Ry

     total all-electron energy =     -7196.724824 Ry

     The total energy is the sum of the following terms:

     one-electron contribution =   -1074.46621634 Ry
     hartree contribution      =     673.34612838 Ry
     xc contribution           =    -380.24092954 Ry
     ewald contribution        =    -567.49771395 Ry
     Dispersion Correction     =      -0.39696686 Ry
     one-center paw contrib.   =    -537.35288460 Ry

     convergence has been achieved in  15 iterations

     Forces acting on atoms (cartesian axes, Ry/au):

     atom    1 type  2   force =    -0.00354806    0.00231210   -0.00146763
     atom    2 type  2   force =     0.00339811    0.00244914    0.00156429
     atom    3 type  2   force =     0.00354806   -0.00231210    0.00146763
     atom    4 type  2   force =    -0.00339811   -0.00244914   -0.00156429
     atom    5 type  2   force =     0.00343904   -0.00107081   -0.00498143
     atom    6 type  2   force =    -0.00333147   -0.00107727    0.00495231
     atom    7 type  2   force =    -0.00343904    0.00107081    0.00498143
     atom    8 type  2   force =     0.00333147    0.00107727   -0.00495231
     atom    9 type  1   force =    -0.00038263    0.00256434    0.00015122
     atom   10 type  1   force =     0.00028821    0.00245447   -0.00016142
     atom   11 type  1   force =     0.00038263   -0.00256434   -0.00015122
     atom   12 type  1   force =    -0.00028821   -0.00245447    0.00016142
     atom   13 type  1   force =    -0.00109432   -0.00177630    0.00121758
     atom   14 type  1   force =     0.00130927   -0.00168416   -0.00119049
     atom   15 type  1   force =     0.00109432    0.00177630   -0.00121758
     atom   16 type  1   force =    -0.00130927    0.00168416    0.00119049
     atom   17 type  1   force =     0.00285195   -0.00507076    0.00477839
     atom   18 type  1   force =    -0.00298289   -0.00530496   -0.00488417
     atom   19 type  1   force =    -0.00285195    0.00507076   -0.00477839
     atom   20 type  1   force =     0.00298289    0.00530496    0.00488417
     atom   21 type  2   force =     0.00035044    0.00039456   -0.00322539
     atom   22 type  2   force =    -0.00000602    0.00093326    0.00354739
     atom   23 type  2   force =    -0.00035044   -0.00039456    0.00322539
     atom   24 type  2   force =     0.00000602   -0.00093326   -0.00354739
     atom   25 type  4   force =     0.00053934   -0.00229439    0.00240766
     atom   26 type  4   force =    -0.00057514   -0.00267297   -0.00260733
     atom   27 type  4   force =    -0.00053934    0.00229439   -0.00240766
     atom   28 type  4   force =     0.00057514    0.00267297    0.00260733
     atom   29 type  4   force =     0.00052880    0.00100317    0.00038573
     atom   30 type  4   force =    -0.00079852    0.00084974   -0.00048914
     atom   31 type  4   force =    -0.00052880   -0.00100317   -0.00038573
     atom   32 type  4   force =     0.00079852   -0.00084974    0.00048914
     atom   33 type  2   force =    -0.00001444   -0.00238300   -0.00218677
     atom   34 type  2   force =     0.00011876   -0.00255844    0.00193920
     atom   35 type  2   force =     0.00001444    0.00238300    0.00218677
     atom   36 type  2   force =    -0.00011876    0.00255844   -0.00193920
     atom   37 type  2   force =    -0.00535209    0.00004320    0.00313172
     atom   38 type  2   force =     0.00538200    0.00003050   -0.00323427
     atom   39 type  2   force =     0.00535209   -0.00004320   -0.00313172
     atom   40 type  2   force =    -0.00538200   -0.00003050    0.00323427
     atom   41 type  1   force =     0.00081449    0.00018535    0.00021436
     atom   42 type  1   force =    -0.00080754    0.00007374   -0.00000423
     atom   43 type  1   force =    -0.00081449   -0.00018535   -0.00021436
     atom   44 type  1   force =     0.00080754   -0.00007374    0.00000423
     atom   45 type  1   force =    -0.00004421   -0.00031677   -0.00030839
     atom   46 type  1   force =     0.00005228   -0.00031712    0.00050032
     atom   47 type  1   force =     0.00004421    0.00031677    0.00030839
     atom   48 type  1   force =    -0.00005228    0.00031712   -0.00050032
     atom   49 type  1   force =     0.00364032    0.00367031    0.00233653
     atom   50 type  1   force =    -0.00380404    0.00401024   -0.00239307
     atom   51 type  1   force =    -0.00364032   -0.00367031   -0.00233653
     atom   52 type  1   force =     0.00380404   -0.00401024    0.00239307
     atom   53 type  2   force =    -0.00134078    0.00166776   -0.00052516
     atom   54 type  2   force =     0.00135024    0.00215364    0.00014444
     atom   55 type  2   force =     0.00134078   -0.00166776    0.00052516
     atom   56 type  2   force =    -0.00135024   -0.00215364   -0.00014444
     atom   57 type  4   force =     0.00002552    0.00065573   -0.00060274
     atom   58 type  4   force =    -0.00008051    0.00047544    0.00087734
     atom   59 type  4   force =    -0.00002552   -0.00065573    0.00060274
     atom   60 type  4   force =     0.00008051   -0.00047544   -0.00087734
     atom   61 type  4   force =     0.00213689   -0.00115951    0.00151693
     atom   62 type  4   force =    -0.00209278   -0.00146703   -0.00148153
     atom   63 type  4   force =    -0.00213689    0.00115951   -0.00151693
     atom   64 type  4   force =     0.00209278    0.00146703    0.00148153
     atom   65 type  1   force =    -0.00018761    0.00146992   -0.00002648
     atom   66 type  1   force =     0.00010592    0.00145698    0.00008357
     atom   67 type  1   force =     0.00018761   -0.00146992    0.00002648
     atom   68 type  1   force =    -0.00010592   -0.00145698   -0.00008357
     atom   69 type  3   force =    -0.00054127   -0.00003183   -0.00084484
     atom   70 type  3   force =     0.00060591    0.00003278    0.00086505
     atom   71 type  3   force =     0.00054127    0.00003183    0.00084484
     atom   72 type  3   force =    -0.00060591   -0.00003278   -0.00086505
     atom   73 type  3   force =    -0.00155759    0.00349624    0.00260471
     atom   74 type  3   force =     0.00161014    0.00357934   -0.00255589
     atom   75 type  3   force =     0.00155759   -0.00349624   -0.00260471
     atom   76 type  3   force =    -0.00161014   -0.00357934    0.00255589
     atom   77 type  3   force =    -0.00053886   -0.00094666   -0.00100364
     atom   78 type  3   force =     0.00051469   -0.00088353    0.00092176
     atom   79 type  3   force =     0.00053886    0.00094666    0.00100364
     atom   80 type  3   force =    -0.00051469    0.00088353   -0.00092176
     atom   81 type  3   force =     0.00183427   -0.00230390   -0.00154587
     atom   82 type  3   force =    -0.00179445   -0.00242694    0.00160927
     atom   83 type  3   force =    -0.00183427    0.00230390    0.00154587
     atom   84 type  3   force =     0.00179445    0.00242694   -0.00160927
     atom   85 type  3   force =    -0.00056563   -0.00026907   -0.00042849
     atom   86 type  3   force =     0.00054939   -0.00028441    0.00042105
     atom   87 type  3   force =     0.00056563    0.00026907    0.00042849
     atom   88 type  3   force =    -0.00054939    0.00028441   -0.00042105
     atom   89 type  3   force =    -0.00053538    0.00041524    0.00025012
     atom   90 type  3   force =     0.00053917    0.00042124   -0.00026036
     atom   91 type  3   force =     0.00053538   -0.00041524   -0.00025012
     atom   92 type  3   force =    -0.00053917   -0.00042124    0.00026036

     Total force =     0.034285     Total SCF correction =     0.000181


     Computing stress (Cartesian axis) and pressure

          total   stress  (Ry/bohr**3)                   (kbar)     P=   -2.75
  -0.00001549   0.00000001  -0.00000737         -2.28      0.00     -1.08
   0.00000001  -0.00002241  -0.00000012          0.00     -3.30     -0.02
  -0.00000737  -0.00000012  -0.00001816         -1.08     -0.02     -2.67


     Writing output data file scf.save
 
     init_run     :     41.97s CPU     44.07s WALL (       1 calls)
     electrons    :   1285.16s CPU   1356.48s WALL (       1 calls)
     forces       :     20.58s CPU     20.81s WALL (       1 calls)
     stress       :    155.07s CPU    155.46s WALL (       1 calls)

     Called by init_run:
     wfcinit      :     31.79s CPU     33.71s WALL (       1 calls)
     potinit      :      3.46s CPU      3.51s WALL (       1 calls)

     Called by electrons:
     c_bands      :   1151.21s CPU   1212.05s WALL (      15 calls)
     sum_band     :    122.55s CPU    131.59s WALL (      15 calls)
     v_of_rho     :      1.72s CPU      1.92s WALL (      16 calls)
     newd         :      4.16s CPU      5.31s WALL (      16 calls)
     PAW_pot      :      5.15s CPU      5.16s WALL (      16 calls)
     mix_rho      :      0.45s CPU      0.49s WALL (      15 calls)

     Called by c_bands:
     init_us_2    :      8.75s CPU      8.79s WALL (     264 calls)
     cegterg      :   1118.78s CPU   1179.59s WALL (     120 calls)

     Called by sum_band:
     sum_band:bec :      0.08s CPU      0.08s WALL (     120 calls)
     addusdens    :      4.43s CPU      5.54s WALL (      15 calls)

     Called by *egterg:
     h_psi        :    635.24s CPU    682.71s WALL (     610 calls)
     s_psi        :    125.03s CPU    125.04s WALL (     610 calls)
     g_psi        :      4.22s CPU      4.22s WALL (     482 calls)
     cdiaghg      :     76.79s CPU     76.80s WALL (     602 calls)

     Called by h_psi:
     h_psi:pot    :    629.23s CPU    676.58s WALL (     610 calls)
     h_psi:calbec :    117.70s CPU    118.02s WALL (     610 calls)
     vloc_psi     :    386.47s CPU    433.48s WALL (     610 calls)
     add_vuspsi   :    125.06s CPU    125.08s WALL (     610 calls)

     General routines
     calbec       :    171.58s CPU    172.04s WALL (     770 calls)
     fft          :      1.04s CPU      1.42s WALL (     232 calls)
     fftw         :    412.13s CPU    465.16s WALL (  167864 calls)
 
     Parallel routines
     fft_scatter  :     91.71s CPU    137.15s WALL (  168096 calls)
 
     PWSCF        : 25m14.08s CPU    27m22.46s WALL

 
   This run was terminated on:  19:16:20   5Nov2017            

=------------------------------------------------------------------------------=
   JOB DONE.
=------------------------------------------------------------------------------=
