
     Program PWSCF v.6.1 (svn rev. 13369) starts on  7Dec2017 at  5:46: 5 

     This program is part of the open-source Quantum ESPRESSO suite
     for quantum simulation of materials; please cite
         "P. Giannozzi et al., J. Phys.:Condens. Matter 21 395502 (2009);
          URL http://www.quantum-espresso.org", 
     in publications or presentations arising from this work. More details at
     http://www.quantum-espresso.org/quote

     Parallel version (MPI), running on     8 processors
     R & G space division:  proc/nbgrp/npool/nimage =       8
     Waiting for input...
     Reading input from standard input

     Current dimensions of program PWSCF are:
     Max number of different atomic species (ntypx) = 10
     Max number of k-points (npk) =  40000
     Max angular momentum in pseudopotentials (lmaxx) =  3
               file C.pbe-n-kjpaw_psl.0.1.UPF: wavefunction(s)  2P renormalized
               file N.pbe-n-kjpaw_psl.0.1.UPF: wavefunction(s)  2P renormalized
               file H.pbe-kjpaw_psl.0.1.UPF: wavefunction(s)  1S renormalized
               file O.pbe-n-kjpaw_psl.0.1.UPF: wavefunction(s)  2P renormalized

     -------------------------------------
     Parameters for Dispersion Correction:
     -------------------------------------
       atom      VdW radius       C_6     

        C          2.744         60.710
        N          2.640         42.670
        H          1.892          4.857
        O          2.536         24.284

     Subspace diagonalization in iterative solution of the eigenvalue problem:
     a serial algorithm will be used

 
     Parallelization info
     --------------------
     sticks:   dense  smooth     PW     G-vecs:    dense   smooth      PW
     Min        1247    1247    328               119928   119928   16097
     Max        1248    1248    329               119931   119931   16101
     Sum        9981    9981   2627               959441   959441  128791
 


     bravais-lattice index     =            0
     lattice parameter (alat)  =      15.6375  a.u.
     unit-cell volume          =    7102.3881 (a.u.)^3
     number of atoms/cell      =          116
     number of atomic types    =            4
     number of electrons       =       336.00
     number of Kohn-Sham states=          201
     kinetic-energy cutoff     =     100.0000  Ry
     charge density cutoff     =     400.0000  Ry
     convergence threshold     =      1.0E-08
     mixing beta               =       0.5000
     number of iterations used =            8  plain     mixing
     Exchange-correlation      =  SLA  PW   PBX  PBC ( 1  4  3  4 0 0)

     celldm(1)=  15.637484  celldm(2)=   0.000000  celldm(3)=   0.000000
     celldm(4)=   0.000000  celldm(5)=   0.000000  celldm(6)=   0.000000

     crystal axes: (cart. coord. in units of alat)
               a(1) = (   1.000000   0.000000   0.000000 )  
               a(2) = (   0.000000   1.283867   0.000000 )  
               a(3) = (  -0.200491   0.000000   1.446717 )  

     reciprocal axes: (cart. coord. in units 2 pi/alat)
               b(1) = (  1.000000  0.000000  0.138584 )  
               b(2) = (  0.000000  0.778897  0.000000 )  
               b(3) = (  0.000000  0.000000  0.691220 )  


     PseudoPot. # 1 for  C read from file:
     /scratch/ahofstet/pseudo/C.pbe-n-kjpaw_psl.0.1.UPF
     MD5 check sum: 430fe95172b1e11ef3f8ed03bac87931
     Pseudo is Projector augmented-wave + core cor, Zval =  4.0
     Generated using "atomic" code by A. Dal Corso  v.5.0.99 svn rev. 10869
     Shape of augmentation charge: BESSEL
     Using radial grid of 1073 points,  4 beta functions with: 
                l(1) =   0
                l(2) =   0
                l(3) =   1
                l(4) =   1
     Q(r) pseudized with 0 coefficients 


     PseudoPot. # 2 for  N read from file:
     /scratch/ahofstet/pseudo/N.pbe-n-kjpaw_psl.0.1.UPF
     MD5 check sum: f73187c8b701007e77325f868c9291d7
     Pseudo is Projector augmented-wave + core cor, Zval =  5.0
     Generated using "atomic" code by A. Dal Corso  v.5.0.99 svn rev. 10869
     Shape of augmentation charge: PSQ
     Using radial grid of 1085 points,  4 beta functions with: 
                l(1) =   0
                l(2) =   0
                l(3) =   1
                l(4) =   1
     Q(r) pseudized with 0 coefficients 


     PseudoPot. # 3 for  H read from file:
     /scratch/ahofstet/pseudo/H.pbe-kjpaw_psl.0.1.UPF
     MD5 check sum: 94e484f906d9e9773b2f6e52662335b2
     Pseudo is Projector augmented-wave, Zval =  1.0
     Generated using "atomic" code by A. Dal Corso  v.5.0.99 svn rev. 10869
     Shape of augmentation charge: PSQ
     Using radial grid of  929 points,  2 beta functions with: 
                l(1) =   0
                l(2) =   0
     Q(r) pseudized with 0 coefficients 


     PseudoPot. # 4 for  O read from file:
     /scratch/ahofstet/pseudo/O.pbe-n-kjpaw_psl.0.1.UPF
     MD5 check sum: 3f94a2996a3169367d6eb21d9b593f20
     Pseudo is Projector augmented-wave + core cor, Zval =  6.0
     Generated using "atomic" code by A. Dal Corso  v.5.0.99 svn rev. 10869
     Shape of augmentation charge: BESSEL
     Using radial grid of 1095 points,  4 beta functions with: 
                l(1) =   0
                l(2) =   0
                l(3) =   1
                l(4) =   1
     Q(r) pseudized with 0 coefficients 


     atomic species   valence    mass     pseudopotential
        C              4.00    12.01070      C( 1.00)
        N              5.00    14.00670      N( 1.00)
        H              1.00     1.00794      H( 1.00)
        O              6.00    15.99940      O( 1.00)

      4 Sym. Ops., with inversion, found ( 2 have fractional translation)



   Cartesian axes

     site n.     atom                  positions (alat units)
         1           C   tau(   1) = (  -0.0489414   0.1619698   0.4858103  )
         2           C   tau(   2) = (   0.9486957   0.8039033   0.2375484  )
         3           C   tau(   3) = (   0.8484501   1.1218973   0.9609072  )
         4           C   tau(   4) = (  -0.1491870   0.4799638   1.2091690  )
         5           C   tau(   5) = (   0.9177457   0.0281331   0.3623448  )
         6           C   tau(   6) = (  -0.0179914   0.6700667   0.3610139  )
         7           C   tau(   7) = (  -0.1182370   1.2557339   1.0843727  )
         8           C   tau(   8) = (   0.8175001   0.6138004   1.0857035  )
         9           C   tau(   9) = (   0.2893276   1.2576432   0.1750196  )
        10           C   tau(  10) = (   0.6104267   0.6157097   0.5483392  )
        11           C   tau(  11) = (   0.5101811   0.0262238   1.2716979  )
        12           C   tau(  12) = (   0.1890820   0.6681574   0.8983783  )
        13           C   tau(  13) = (   0.0806370   0.1414016   0.1384635  )
        14           C   tau(  14) = (   0.8191173   0.7833351   0.5848953  )
        15           C   tau(  15) = (   0.7188717   1.1424655   1.3082540  )
        16           C   tau(  16) = (  -0.0196086   0.5005319   0.8618222  )
        17           C   tau(  17) = (   0.4332777   0.3284049   0.0796074  )
        18           C   tau(  18) = (   0.4664767   0.9703384   0.6437513  )
        19           C   tau(  19) = (   0.3662311   0.9554622   1.3671101  )
        20           C   tau(  20) = (   0.3330320   0.3135287   0.8029662  )
        21           C   tau(  21) = (   0.3214534   0.4225419   1.3941114  )
        22           C   tau(  22) = (   0.3778097   1.0644754   0.7759648  )
        23           C   tau(  23) = (   0.4780553   0.8613252   0.0526061  )
        24           C   tau(  24) = (   0.4216991   0.2193916   0.6707526  )
        25           C   tau(  25) = (   0.3244456   0.4428935   0.1767184  )
        26           C   tau(  26) = (   0.5753087   1.0848271   0.5466404  )
        27           C   tau(  27) = (   0.4750631   0.8409735   1.2699991  )
        28           C   tau(  28) = (   0.2242000   0.1990400   0.9000771  )
        29           C   tau(  29) = (   0.5560224   0.2476615   0.1916245  )
        30           C   tau(  30) = (   0.3437320   0.8895950   0.5317342  )
        31           C   tau(  31) = (   0.2434863   1.0362056   1.2550930  )
        32           C   tau(  32) = (   0.4557768   0.3942721   0.9149833  )
        33           N   tau(  33) = (   0.0468108   0.0189084   0.2457014  )
        34           N   tau(  34) = (   0.8529436   0.6608419   0.4776574  )
        35           N   tau(  35) = (   0.7526979   1.2649587   1.2010161  )
        36           N   tau(  36) = (  -0.0534349   0.6230252   0.9690601  )
        37           N   tau(  37) = (   0.1780021   1.2029980   0.2728034  )
        38           N   tau(  38) = (   0.7217522   0.5610645   0.4505553  )
        39           N   tau(  39) = (   0.6215066   0.0808690   1.1739140  )
        40           N   tau(  40) = (   0.0777565   0.7228026   0.9961622  )
        41           N   tau(  41) = (   0.2390353   0.1079697   0.0915078  )
        42           N   tau(  42) = (   0.6607191   0.7499033   0.6318509  )
        43           N   tau(  43) = (   0.5604734   1.1758973   1.3552097  )
        44           N   tau(  44) = (   0.1387896   0.5339638   0.8148666  )
        45           N   tau(  45) = (   0.1385264   0.2001646   1.4375233  )
        46           N   tau(  46) = (   0.5607367   0.8420982   0.7325530  )
        47           N   tau(  47) = (   0.6609823   1.0837024   0.0091942  )
        48           N   tau(  48) = (   0.2387720   0.4417689   0.7141645  )
        49           O   tau(  49) = (   0.8433049   0.1651712   0.6033217  )
        50           O   tau(  50) = (   0.0564495   0.8071047   0.1200370  )
        51           O   tau(  51) = (  -0.0437962   1.1186959   0.8433958  )
        52           O   tau(  52) = (   0.7430593   0.4767624   1.3266804  )
        53           O   tau(  53) = (   0.0661497   0.2544590   0.4722188  )
        54           O   tau(  54) = (   0.8336046   0.8963925   0.2511399  )
        55           O   tau(  55) = (   0.7333590   1.0294081   0.9744986  )
        56           O   tau(  56) = (  -0.0340959   0.3874746   1.1955776  )
        57           O   tau(  57) = (  -0.0121173   0.2506777   0.0935697  )
        58           O   tau(  58) = (   0.9118716   0.8926112   0.6297891  )
        59           O   tau(  59) = (   0.8116260   1.0331894   1.3531478  )
        60           O   tau(  60) = (  -0.1123629   0.3912559   0.8169284  )
        61           H   tau(  61) = (   0.8033565   0.0555864   0.3006733  )
        62           H   tau(  62) = (   0.0963978   0.6975200   0.4226854  )
        63           H   tau(  63) = (  -0.0038478   1.2282806   1.1460442  )
        64           H   tau(  64) = (   0.7031109   0.5863471   1.0240321  )
        65           H   tau(  65) = (   0.9055298   1.1944011   0.4225287  )
        66           H   tau(  66) = (  -0.0057754   0.5524676   0.3008300  )
        67           H   tau(  67) = (  -0.1060211   0.0894660   1.0241887  )
        68           H   tau(  68) = (   0.8052841   0.7313995   1.1458875  )
        69           H   tau(  69) = (   0.4086372   1.2054219   0.1574300  )
        70           H   tau(  70) = (   0.4911172   0.5634883   0.5659287  )
        71           H   tau(  71) = (   0.3908715   0.0784452   1.2892875  )
        72           H   tau(  72) = (   0.3083915   0.7203787   0.8807887  )
        73           H   tau(  73) = (   0.5933262   0.5191684   0.0033077  )
        74           H   tau(  74) = (   0.3064281   1.1611019   0.7200510  )
        75           H   tau(  75) = (   0.2061825   0.7646987   1.4434098  )
        76           H   tau(  76) = (   0.4930806   0.1227652   0.7266664  )
        77           H   tau(  77) = (   0.2352906   0.4778707   1.3095481  )
        78           H   tau(  78) = (   0.4639725   1.1198042   0.8605281  )
        79           H   tau(  79) = (   0.5642181   0.8059964   0.1371693  )
        80           H   tau(  80) = (   0.3355362   0.1640629   0.5861894  )
        81           H   tau(  81) = (   0.4046775   0.3448984   1.3259464  )
        82           H   tau(  82) = (   0.2945856   0.9868319   0.8441298  )
        83           H   tau(  83) = (   0.3948312   0.9389687   0.1207710  )
        84           H   tau(  84) = (   0.5049232   0.2970351   0.6025877  )
        85           H   tau(  85) = (   0.2390040   0.5066573   0.0975670  )
        86           H   tau(  86) = (   0.6607504   1.1485908   0.6257918  )
        87           H   tau(  87) = (   0.5605047   0.7772098   1.3491505  )
        88           H   tau(  88) = (   0.1387583   0.1352762   0.8209257  )
        89           H   tau(  89) = (   0.4001871   0.5339157   0.2369887  )
        90           H   tau(  90) = (   0.4995673   1.1758493   0.4863701  )
        91           H   tau(  91) = (   0.3993216   0.7499513   1.2097288  )
        92           H   tau(  92) = (   0.2999414   0.1080178   0.9603474  )
        93           H   tau(  93) = (   0.2562983   0.3774706   0.2701344  )
        94           H   tau(  94) = (   0.6434561   1.0194041   0.4532244  )
        95           H   tau(  95) = (   0.5432105   0.9063965   1.1765831  )
        96           H   tau(  96) = (   0.1560526   0.2644629   0.9934931  )
        97           H   tau(  97) = (   0.6329351   0.3403623   0.2475012  )
        98           H   tau(  98) = (   0.2668192   0.9822959   0.4758576  )
        99           H   tau(  99) = (   0.1665736   0.9435047   1.1992163  )
       100           H   tau( 100) = (   0.5326895   0.3015712   0.9708599  )
       101           H   tau( 101) = (   0.6330684   0.1640178   0.1230862  )
       102           H   tau( 102) = (   0.2666860   0.8059513   0.6002726  )
       103           H   tau( 103) = (   0.1664403   1.1198493   1.3236313  )
       104           H   tau( 104) = (   0.5328228   0.4779158   0.8464449  )
       105           H   tau( 105) = (   0.4960102   0.1809618   0.2896516  )
       106           H   tau( 106) = (   0.4037442   0.8228953   0.4337072  )
       107           H   tau( 107) = (   0.3034986   1.1029053   1.1570659  )
       108           H   tau( 108) = (   0.3957645   0.4609718   1.0130103  )
       109           H   tau( 109) = (   0.0645039   0.2557329   1.3537422  )
       110           H   tau( 110) = (   0.6347591   0.8976664   0.8163340  )
       111           H   tau( 111) = (   0.7350048   1.0281342   0.0929753  )
       112           H   tau( 112) = (   0.1647496   0.3862006   0.6303835  )
       113           H   tau( 113) = (   0.8688552   0.2576592   0.6809652  )
       114           H   tau( 114) = (   0.0308991   0.8995927   0.0423936  )
       115           H   tau( 115) = (  -0.0693465   1.0262079   0.7657523  )
       116           H   tau( 116) = (   0.7686096   0.3842744   1.4043239  )

     number of k points=     8
                       cart. coord. in units 2pi/alat
        k(    1) = (   0.0000000   0.0000000   0.0000000), wk =   0.1666667
        k(    2) = (   0.0000000   0.0000000  -0.3456100), wk =   0.1666667
        k(    3) = (   0.0000000  -0.3894484   0.0000000), wk =   0.1666667
        k(    4) = (   0.0000000  -0.3894484  -0.3456100), wk =   0.1666667
        k(    5) = (   0.3333333   0.0000000   0.0461945), wk =   0.3333333
        k(    6) = (   0.3333333   0.0000000  -0.2994155), wk =   0.3333333
        k(    7) = (   0.3333333  -0.3894484   0.0461945), wk =   0.3333333
        k(    8) = (   0.3333333  -0.3894484  -0.2994155), wk =   0.3333333

     Dense  grid:   959441 G-vectors     FFT dimensions: ( 100, 128, 150)

     Estimated max dynamical RAM per process >    1008.87MB

     Estimated total allocated dynamical RAM >    8070.93MB

     Check: negative/imaginary core charge=   -0.000002    0.000000

     Initial potential from superposition of free atoms

     starting charge  335.99800, renormalised to  336.00000
     Starting wfc are  296 randomized atomic wfcs
     Checking if some PAW data can be deallocated... 

     total cpu time spent up to now is       63.3 secs

     per-process dynamical memory:   688.7 Mb

     Self-consistent Calculation

     iteration #  1     ecut=   100.00 Ry     beta=0.50
     Davidson diagonalization with overlap
     ethr =  1.00E-02,  avg # of iterations =  3.6

     total cpu time spent up to now is      250.6 secs

     total energy              =   -1605.89348219 Ry
     Harris-Foulkes estimate   =   -1612.11170578 Ry
     estimated scf accuracy    <      11.76088960 Ry

     iteration #  2     ecut=   100.00 Ry     beta=0.50
     Davidson diagonalization with overlap
     ethr =  3.50E-03,  avg # of iterations =  3.2

     total cpu time spent up to now is      353.4 secs

     total energy              =   -1607.26166738 Ry
     Harris-Foulkes estimate   =   -1607.84892404 Ry
     estimated scf accuracy    <       1.31398230 Ry

     iteration #  3     ecut=   100.00 Ry     beta=0.50
     Davidson diagonalization with overlap
     ethr =  3.91E-04,  avg # of iterations =  7.6

     total cpu time spent up to now is      564.4 secs

     total energy              =   -1608.08960524 Ry
     Harris-Foulkes estimate   =   -1608.45280369 Ry
     estimated scf accuracy    <       0.95809229 Ry

     iteration #  4     ecut=   100.00 Ry     beta=0.50
     Davidson diagonalization with overlap
     ethr =  2.85E-04,  avg # of iterations =  2.0

     total cpu time spent up to now is      654.8 secs

     total energy              =   -1607.99011944 Ry
     Harris-Foulkes estimate   =   -1608.15577531 Ry
     estimated scf accuracy    <       0.27919816 Ry

     iteration #  5     ecut=   100.00 Ry     beta=0.50
     Davidson diagonalization with overlap
     ethr =  8.31E-05,  avg # of iterations =  5.1

     total cpu time spent up to now is      847.0 secs

     total energy              =   -1608.18120297 Ry
     Harris-Foulkes estimate   =   -1608.31756946 Ry
     estimated scf accuracy    <       0.44198874 Ry

     iteration #  6     ecut=   100.00 Ry     beta=0.50
     Davidson diagonalization with overlap
     ethr =  8.31E-05,  avg # of iterations =  1.0

     total cpu time spent up to now is      934.5 secs

     total energy              =   -1608.09769159 Ry
     Harris-Foulkes estimate   =   -1608.19248154 Ry
     estimated scf accuracy    <       0.20273996 Ry

     iteration #  7     ecut=   100.00 Ry     beta=0.50
     Davidson diagonalization with overlap
     ethr =  6.03E-05,  avg # of iterations =  4.0

     total cpu time spent up to now is     1073.0 secs

     total energy              =   -1608.17975925 Ry
     Harris-Foulkes estimate   =   -1608.18167436 Ry
     estimated scf accuracy    <       0.01193219 Ry

     iteration #  8     ecut=   100.00 Ry     beta=0.50
     Davidson diagonalization with overlap
     ethr =  3.55E-06,  avg # of iterations =  6.9

     total cpu time spent up to now is     1180.2 secs

     total energy              =   -1608.17620623 Ry
     Harris-Foulkes estimate   =   -1608.18070156 Ry
     estimated scf accuracy    <       0.00797761 Ry

     iteration #  9     ecut=   100.00 Ry     beta=0.50
     Davidson diagonalization with overlap
     ethr =  2.37E-06,  avg # of iterations =  4.8

     total cpu time spent up to now is     1316.5 secs

     total energy              =   -1608.17869710 Ry
     Harris-Foulkes estimate   =   -1608.17892026 Ry
     estimated scf accuracy    <       0.00052774 Ry

     iteration # 10     ecut=   100.00 Ry     beta=0.50
     Davidson diagonalization with overlap
     ethr =  1.57E-07,  avg # of iterations =  4.1

     total cpu time spent up to now is     1433.8 secs

     total energy              =   -1608.17876313 Ry
     Harris-Foulkes estimate   =   -1608.17881432 Ry
     estimated scf accuracy    <       0.00009110 Ry

     iteration # 11     ecut=   100.00 Ry     beta=0.50
     Davidson diagonalization with overlap
     ethr =  2.71E-08,  avg # of iterations =  4.0

     total cpu time spent up to now is     1594.9 secs

     total energy              =   -1608.17881600 Ry
     Harris-Foulkes estimate   =   -1608.17883843 Ry
     estimated scf accuracy    <       0.00004686 Ry

     iteration # 12     ecut=   100.00 Ry     beta=0.50
     Davidson diagonalization with overlap
     ethr =  1.39E-08,  avg # of iterations =  3.0

     total cpu time spent up to now is     1689.3 secs

     total energy              =   -1608.17881719 Ry
     Harris-Foulkes estimate   =   -1608.17882052 Ry
     estimated scf accuracy    <       0.00000613 Ry

     iteration # 13     ecut=   100.00 Ry     beta=0.50
     Davidson diagonalization with overlap
     ethr =  1.83E-09,  avg # of iterations =  4.0

     total cpu time spent up to now is     1873.3 secs

     total energy              =   -1608.17882613 Ry
     Harris-Foulkes estimate   =   -1608.17882893 Ry
     estimated scf accuracy    <       0.00001061 Ry

     iteration # 14     ecut=   100.00 Ry     beta=0.50
     Davidson diagonalization with overlap
     ethr =  1.83E-09,  avg # of iterations =  1.0

     total cpu time spent up to now is     1960.9 secs

     total energy              =   -1608.17882411 Ry
     Harris-Foulkes estimate   =   -1608.17882630 Ry
     estimated scf accuracy    <       0.00000553 Ry

     iteration # 15     ecut=   100.00 Ry     beta=0.50
     Davidson diagonalization with overlap
     ethr =  1.65E-09,  avg # of iterations =  4.2

     total cpu time spent up to now is     2085.6 secs

     total energy              =   -1608.17882566 Ry
     Harris-Foulkes estimate   =   -1608.17882566 Ry
     estimated scf accuracy    <       0.00000003 Ry

     iteration # 16     ecut=   100.00 Ry     beta=0.50
     Davidson diagonalization with overlap
     ethr =  9.95E-12,  avg # of iterations =  4.2

     total cpu time spent up to now is     2295.8 secs

     total energy              =   -1608.17882571 Ry
     Harris-Foulkes estimate   =   -1608.17882573 Ry
     estimated scf accuracy    <       0.00000005 Ry

     iteration # 17     ecut=   100.00 Ry     beta=0.50
     Davidson diagonalization with overlap
     ethr =  9.95E-12,  avg # of iterations =  2.0

     total cpu time spent up to now is     2386.1 secs

     total energy              =   -1608.17882570 Ry
     Harris-Foulkes estimate   =   -1608.17882571 Ry
     estimated scf accuracy    <       0.00000002 Ry

     iteration # 18     ecut=   100.00 Ry     beta=0.50
     Davidson diagonalization with overlap
     ethr =  5.15E-12,  avg # of iterations =  4.0

     total cpu time spent up to now is     2553.3 secs

     End of self-consistent calculation

          k = 0.0000 0.0000 0.0000 (119907 PWs)   bands (ev):

   -21.7077 -21.6745 -21.6216 -21.6018 -21.4556 -21.4370 -21.3547 -21.3463
   -19.6170 -19.6027 -19.6006 -19.5884 -19.2412 -19.2402 -19.2005 -19.1944
   -18.8810 -18.8756 -18.8196 -18.8155 -15.7457 -15.7335 -15.7219 -15.6986
   -14.7509 -14.7011 -14.6976 -14.6734 -13.1454 -13.0945 -13.0888 -13.0840
   -12.3628 -12.3604 -12.3501 -12.3348 -10.7664 -10.6974 -10.6859 -10.6245
   -10.6222 -10.6176 -10.5946 -10.5905 -10.0647 -10.0464 -10.0410 -10.0148
    -9.7217  -9.7112  -9.5857  -9.5717  -8.7498  -8.7489  -8.5240  -8.4890
    -8.0482  -7.9104  -7.8530  -7.7984  -7.2383  -7.1218  -7.0414  -6.9164
    -6.8099  -6.7520  -6.7406  -6.7247  -6.4779  -6.4248  -6.4242  -6.3237
    -6.1243  -6.0804  -5.9882  -5.9719  -5.7332  -5.7026  -5.6242  -5.5734
    -5.5432  -5.5260  -5.5027  -5.3170  -5.2102  -5.1838  -5.1755  -5.1534
    -5.0227  -4.9175  -4.8468  -4.7305  -4.6895  -4.6140  -4.5461  -4.4715
    -4.4594  -4.3720  -4.3323  -4.2712  -4.2454  -4.1666  -4.1566  -4.0456
    -3.6262  -3.5023  -3.4563  -3.4434  -3.3302  -3.2745  -3.2633  -3.1992
    -3.1958  -3.1087  -3.0750  -3.0624  -3.0352  -2.9508  -2.9424  -2.8717
    -2.8663  -2.7444  -2.7120  -2.7008  -2.6959  -2.6512  -2.5938  -2.5899
    -2.4231  -2.4022  -2.3764  -2.3671  -2.0470  -2.0004  -1.9596  -1.9077
    -1.9013  -1.8729  -1.7896  -1.7781  -1.6894  -1.6864  -1.6373  -1.5483
    -1.5479  -1.5048  -1.4764  -1.4269  -1.4193  -1.3579  -1.3479  -1.2677
    -0.7222  -0.6965  -0.6883  -0.6531  -0.6132  -0.5218  -0.4177  -0.4005
     0.1444   0.2570   0.3326   0.3495   0.5086   0.5180   0.6829   0.7419
     4.9182   4.9271   5.0523   5.0724   5.2631   5.2778   5.2874   5.3144
     5.8215   5.9525   5.9628   5.9877   6.0348   6.8014   6.8213   7.0722
     7.1669   7.2085   7.2897   7.3951   7.4423   7.5816   7.7279   7.7326
     7.7401   7.8964   7.9394   7.9939   8.0785   8.1014   8.2637   8.2725
     8.3415

          k = 0.0000 0.0000-0.3456 (119898 PWs)   bands (ev):

   -21.6720 -21.6720 -21.6454 -21.6454 -21.3932 -21.3932 -21.3892 -21.3892
   -19.6099 -19.6099 -19.5944 -19.5944 -19.2229 -19.2229 -19.2186 -19.2186
   -18.8486 -18.8486 -18.8439 -18.8439 -15.7340 -15.7340 -15.7163 -15.7163
   -14.7258 -14.7258 -14.6855 -14.6855 -13.1248 -13.1248 -13.0812 -13.0812
   -12.3664 -12.3664 -12.3378 -12.3378 -10.7287 -10.7287 -10.6465 -10.6465
   -10.6220 -10.6220 -10.6068 -10.6068 -10.0435 -10.0435 -10.0364 -10.0364
    -9.6588  -9.6588  -9.6476  -9.6476  -8.6361  -8.6361  -8.6195  -8.6195
    -7.9718  -7.9718  -7.8257  -7.8257  -7.1756  -7.1756  -7.0326  -7.0326
    -6.7384  -6.7384  -6.6572  -6.6572  -6.4791  -6.4791  -6.4195  -6.4195
    -6.0601  -6.0601  -6.0227  -6.0227  -5.7065  -5.7065  -5.6257  -5.6257
    -5.5448  -5.5448  -5.3905  -5.3905  -5.2044  -5.2044  -5.1487  -5.1487
    -4.9469  -4.9469  -4.8363  -4.8363  -4.5791  -4.5791  -4.5551  -4.5551
    -4.4295  -4.4295  -4.3015  -4.3015  -4.1916  -4.1916  -4.0977  -4.0977
    -3.5702  -3.5702  -3.4372  -3.4372  -3.3150  -3.3150  -3.2038  -3.2038
    -3.1741  -3.1741  -3.1249  -3.1249  -2.9575  -2.9575  -2.9066  -2.9066
    -2.7740  -2.7740  -2.7265  -2.7265  -2.6971  -2.6971  -2.5479  -2.5479
    -2.4191  -2.4191  -2.3788  -2.3788  -1.9957  -1.9957  -1.9730  -1.9730
    -1.8250  -1.8250  -1.8135  -1.8135  -1.6804  -1.6804  -1.5884  -1.5884
    -1.5404  -1.5404  -1.4499  -1.4499  -1.4228  -1.4228  -1.2955  -1.2955
    -0.7160  -0.7160  -0.6670  -0.6670  -0.5220  -0.5220  -0.4615  -0.4615
     0.2458   0.2458   0.3112   0.3112   0.5108   0.5108   0.7134   0.7134
     4.9231   4.9231   5.0613   5.0613   5.2538   5.2538   5.3240   5.3240
     5.8800   5.8800   5.9797   5.9797   6.2983   6.2983   6.9319   6.9319
     7.2417   7.2417   7.3519   7.3519   7.6496   7.6496   7.7307   7.7307
     7.8448   7.8448   7.8986   7.8987   8.1229   8.1229   8.2134   8.2134
     8.3399

          k = 0.0000-0.3894 0.0000 (119928 PWs)   bands (ev):

   -21.6935 -21.6935 -21.6091 -21.6091 -21.4472 -21.4472 -21.3498 -21.3498
   -19.6123 -19.6123 -19.5920 -19.5920 -19.2411 -19.2411 -19.1971 -19.1971
   -18.8783 -18.8783 -18.8175 -18.8175 -15.7433 -15.7433 -15.7067 -15.7067
   -14.7301 -14.7301 -14.6814 -14.6814 -13.1267 -13.1267 -13.0792 -13.0792
   -12.3550 -12.3550 -12.3494 -12.3494 -10.7363 -10.7363 -10.6674 -10.6674
   -10.6309 -10.6309 -10.5634 -10.5634 -10.0682 -10.0682 -10.0162 -10.0162
    -9.7183  -9.7183  -9.5771  -9.5771  -8.7518  -8.7518  -8.5022  -8.5022
    -7.9641  -7.9641  -7.8514  -7.8514  -7.2013  -7.2013  -6.9634  -6.9634
    -6.7737  -6.7737  -6.7192  -6.7192  -6.4458  -6.4458  -6.3770  -6.3770
    -6.1295  -6.1295  -5.9592  -5.9592  -5.7165  -5.7165  -5.6332  -5.6332
    -5.5690  -5.5690  -5.3391  -5.3391  -5.2181  -5.2181  -5.1239  -5.1239
    -4.9982  -4.9982  -4.7617  -4.7617  -4.6950  -4.6950  -4.5183  -4.5183
    -4.4462  -4.4462  -4.2488  -4.2488  -4.2035  -4.2035  -4.0974  -4.0974
    -3.5073  -3.5073  -3.4284  -3.4284  -3.3196  -3.3196  -3.2411  -3.2411
    -3.1852  -3.1852  -3.1126  -3.1126  -2.9452  -2.9452  -2.8997  -2.8997
    -2.8428  -2.8428  -2.7711  -2.7711  -2.6993  -2.6993  -2.4916  -2.4916
    -2.4143  -2.4143  -2.3834  -2.3834  -2.0429  -2.0429  -1.9303  -1.9303
    -1.8576  -1.8576  -1.7754  -1.7754  -1.6775  -1.6775  -1.6022  -1.6022
    -1.5732  -1.5732  -1.4509  -1.4509  -1.3536  -1.3536  -1.3165  -1.3165
    -0.7098  -0.7098  -0.6739  -0.6739  -0.5687  -0.5687  -0.3967  -0.3967
     0.1961   0.1961   0.3513   0.3513   0.5149   0.5149   0.7062   0.7062
     4.9771   4.9771   5.0088   5.0088   5.2636   5.2636   5.3031   5.3031
     5.8490   5.8490   5.9874   5.9874   6.3277   6.3277   6.9208   6.9208
     7.2157   7.2157   7.4080   7.4080   7.4982   7.4982   7.6537   7.6537
     7.9184   7.9184   7.9886   7.9886   8.1131   8.1131   8.2739   8.2739
     8.4208

          k = 0.0000-0.3894-0.3456 (119908 PWs)   bands (ev):

   -21.6701 -21.6701 -21.6475 -21.6475 -21.3916 -21.3916 -21.3906 -21.3906
   -19.6099 -19.6099 -19.5944 -19.5944 -19.2249 -19.2249 -19.2167 -19.2167
   -18.8470 -18.8470 -18.8455 -18.8455 -15.7358 -15.7358 -15.7146 -15.7146
   -14.7194 -14.7194 -14.6919 -14.6919 -13.1222 -13.1222 -13.0837 -13.0837
   -12.3608 -12.3608 -12.3434 -12.3434 -10.7129 -10.7129 -10.6726 -10.6726
   -10.6489 -10.6489 -10.5697 -10.5697 -10.0511 -10.0511 -10.0277 -10.0277
    -9.6730  -9.6730  -9.6337  -9.6337  -8.6302  -8.6302  -8.6253  -8.6253
    -7.9328  -7.9328  -7.8722  -7.8722  -7.1712  -7.1712  -7.0473  -7.0473
    -6.6887  -6.6887  -6.6879  -6.6879  -6.4551  -6.4551  -6.4334  -6.4334
    -6.1012  -6.1012  -6.0016  -6.0016  -5.7205  -5.7205  -5.6156  -5.6156
    -5.5070  -5.5070  -5.4320  -5.4320  -5.1580  -5.1580  -5.1505  -5.1505
    -4.9460  -4.9460  -4.8709  -4.8709  -4.5831  -4.5831  -4.5722  -4.5722
    -4.4629  -4.4629  -4.2396  -4.2396  -4.1636  -4.1636  -4.1268  -4.1268
    -3.4907  -3.4907  -3.4521  -3.4521  -3.3203  -3.3203  -3.2183  -3.2183
    -3.1903  -3.1903  -3.1299  -3.1299  -2.9600  -2.9600  -2.8833  -2.8833
    -2.8458  -2.8458  -2.7626  -2.7626  -2.6888  -2.6888  -2.4965  -2.4965
    -2.4389  -2.4389  -2.3737  -2.3737  -2.0075  -2.0075  -1.9477  -1.9477
    -1.8232  -1.8232  -1.8204  -1.8204  -1.6579  -1.6579  -1.6399  -1.6399
    -1.5167  -1.5167  -1.4837  -1.4837  -1.3540  -1.3540  -1.3200  -1.3200
    -0.6998  -0.6998  -0.6784  -0.6784  -0.5100  -0.5100  -0.4764  -0.4764
     0.2609   0.2609   0.3013   0.3013   0.5170   0.5170   0.7038   0.7038
     4.9798   4.9798   5.0038   5.0038   5.2585   5.2585   5.3179   5.3179
     5.8728   5.8728   5.9634   5.9634   6.4244   6.4244   6.7012   6.7012
     7.3217   7.3217   7.3583   7.3583   7.4814   7.4814   7.6952   7.6952
     7.9542   7.9542   8.0311   8.0311   8.1727   8.1727   8.2168   8.2169
     8.3400

          k = 0.3333 0.0000 0.0462 (119968 PWs)   bands (ev):

   -21.7068 -21.6752 -21.6206 -21.6026 -21.4554 -21.4373 -21.3542 -21.3469
   -19.6173 -19.6035 -19.6004 -19.5878 -19.2412 -19.2407 -19.2001 -19.1947
   -18.8865 -18.8712 -18.8218 -18.8137 -15.7453 -15.7282 -15.7194 -15.6960
   -14.7476 -14.7076 -14.6939 -14.6810 -13.1469 -13.1195 -13.1054 -13.0928
   -12.3435 -12.3404 -12.3143 -12.3127 -10.7834 -10.7071 -10.7001 -10.6430
   -10.6349 -10.6066 -10.6059 -10.5831 -10.0669 -10.0400 -10.0371 -10.0145
    -9.7187  -9.7103  -9.6035  -9.5794  -8.7495  -8.7357  -8.5122  -8.4938
    -8.0656  -7.8837  -7.8654  -7.8129  -7.2295  -7.0753  -7.0083  -6.9420
    -6.8159  -6.7680  -6.7220  -6.6916  -6.5096  -6.4475  -6.4293  -6.4288
    -6.1444  -6.0389  -6.0259  -5.9649  -5.7237  -5.6525  -5.6410  -5.5700
    -5.5448  -5.4666  -5.4331  -5.3401  -5.2048  -5.1830  -5.1643  -5.1531
    -5.0276  -4.9389  -4.8277  -4.8032  -4.7209  -4.6165  -4.5385  -4.4852
    -4.4630  -4.3538  -4.3527  -4.2787  -4.2062  -4.1394  -4.0982  -4.0375
    -3.5565  -3.5292  -3.5096  -3.4043  -3.2880  -3.2637  -3.2579  -3.2118
    -3.1949  -3.1635  -3.1575  -3.0957  -3.0304  -2.9078  -2.8712  -2.8595
    -2.8430  -2.7682  -2.7460  -2.7427  -2.7156  -2.6208  -2.5985  -2.5970
    -2.4109  -2.3945  -2.3726  -2.3594  -2.0473  -2.0063  -1.9826  -1.9636
    -1.9305  -1.8691  -1.7803  -1.7488  -1.7144  -1.6729  -1.6376  -1.5566
    -1.5526  -1.5141  -1.4972  -1.4189  -1.3753  -1.3073  -1.2719  -1.2696
    -0.7519  -0.7408  -0.7369  -0.6467  -0.5999  -0.5588  -0.4004  -0.3883
     0.1197   0.2307   0.3289   0.3506   0.5728   0.5803   0.6651   0.6996
     4.9235   4.9418   5.0239   5.0406   5.2703   5.2899   5.3042   5.3497
     5.8568   5.9214   5.9243   5.9651   6.2520   6.7866   6.8261   6.9461
     6.9519   7.2053   7.2494   7.3569   7.4266   7.5934   7.6030   7.6692
     7.7221   7.8270   7.9550   8.0214   8.0476   8.0829   8.1789   8.1873
     8.3532

          k = 0.3333 0.0000-0.2994 (119867 PWs)   bands (ev):

   -21.6712 -21.6709 -21.6462 -21.6459 -21.3932 -21.3928 -21.3897 -21.3892
   -19.6105 -19.6103 -19.5942 -19.5940 -19.2237 -19.2233 -19.2183 -19.2182
   -18.8538 -18.8514 -18.8416 -18.8396 -15.7334 -15.7321 -15.7129 -15.7113
   -14.7259 -14.7181 -14.6973 -14.6885 -13.1321 -13.1233 -13.1084 -13.1005
   -12.3384 -12.3349 -12.3235 -12.3141 -10.7503 -10.7439 -10.6650 -10.6584
   -10.6266 -10.6196 -10.6084 -10.5984 -10.0537 -10.0515 -10.0267 -10.0233
    -9.6754  -9.6602  -9.6496  -9.6428  -8.6300  -8.6265  -8.6225  -8.6207
    -8.0084  -7.9564  -7.8213  -7.8165  -7.1446  -7.1442  -7.0530  -7.0090
    -6.7630  -6.7092  -6.6863  -6.6462  -6.4937  -6.4759  -6.4630  -6.4562
    -6.1458  -6.1212  -6.0058  -5.9437  -5.6774  -5.6624  -5.6208  -5.5839
    -5.5448  -5.5161  -5.3995  -5.3567  -5.2313  -5.1874  -5.1233  -5.0825
    -5.0072  -4.9798  -4.8847  -4.8844  -4.6314  -4.6170  -4.5405  -4.5273
    -4.4018  -4.3822  -4.3481  -4.2802  -4.1910  -4.1450  -4.0745  -4.0604
    -3.5773  -3.5195  -3.4706  -3.4443  -3.2988  -3.2658  -3.2413  -3.2286
    -3.2026  -3.1562  -3.1495  -3.1020  -2.9895  -2.9278  -2.8802  -2.8644
    -2.8197  -2.7942  -2.7657  -2.7100  -2.7086  -2.6596  -2.6019  -2.5759
    -2.4255  -2.3907  -2.3692  -2.3516  -2.0577  -1.9950  -1.9640  -1.9583
    -1.8466  -1.8429  -1.8086  -1.7902  -1.7181  -1.6516  -1.6056  -1.5852
    -1.5615  -1.5282  -1.4902  -1.4780  -1.3458  -1.3367  -1.2806  -1.2736
    -0.7507  -0.7310  -0.6977  -0.6840  -0.5324  -0.4921  -0.4770  -0.4709
     0.2011   0.2272   0.3106   0.3174   0.5607   0.6061   0.6558   0.6982
     4.9289   4.9369   5.0239   5.0370   5.2657   5.2756   5.3311   5.3486
     5.8823   5.8900   5.9389   5.9639   6.3802   6.6041   6.8344   6.8616
     6.9851   7.2274   7.2923   7.4009   7.4449   7.4474   7.6742   7.7033
     7.7760   7.8269   7.8706   7.9420   8.0356   8.0423   8.2824   8.3145
     8.3983

          k = 0.3333-0.3894 0.0462 (119962 PWs)   bands (ev):

   -21.6931 -21.6931 -21.6093 -21.6093 -21.4472 -21.4472 -21.3499 -21.3499
   -19.6127 -19.6127 -19.5917 -19.5917 -19.2412 -19.2412 -19.1972 -19.1972
   -18.8794 -18.8794 -18.8172 -18.8172 -15.7411 -15.7411 -15.7035 -15.7035
   -14.7287 -14.7287 -14.6863 -14.6863 -13.1476 -13.1476 -13.0840 -13.0840
   -12.3355 -12.3355 -12.3207 -12.3207 -10.7474 -10.7474 -10.6797 -10.6797
   -10.6371 -10.6371 -10.5683 -10.5683 -10.0539 -10.0539 -10.0260 -10.0260
    -9.7140  -9.7140  -9.5901  -9.5901  -8.7437  -8.7437  -8.4994  -8.4994
    -7.9762  -7.9762  -7.8501  -7.8501  -7.1662  -7.1662  -6.9619  -6.9619
    -6.7615  -6.7615  -6.7442  -6.7442  -6.4828  -6.4828  -6.3992  -6.3992
    -6.1019  -6.1019  -5.9869  -5.9869  -5.6829  -5.6829  -5.6287  -5.6287
    -5.5430  -5.5430  -5.3586  -5.3586  -5.1855  -5.1855  -5.1142  -5.1142
    -5.0243  -5.0243  -4.7665  -4.7665  -4.7086  -4.7086  -4.5162  -4.5162
    -4.4341  -4.4341  -4.2941  -4.2941  -4.1551  -4.1551  -4.0824  -4.0824
    -3.5045  -3.5045  -3.4474  -3.4474  -3.3047  -3.3047  -3.2256  -3.2256
    -3.1883  -3.1883  -3.1552  -3.1552  -2.9596  -2.9596  -2.8448  -2.8448
    -2.8098  -2.8098  -2.7566  -2.7566  -2.7175  -2.7175  -2.5472  -2.5472
    -2.4029  -2.4029  -2.3728  -2.3728  -2.0698  -2.0698  -1.9537  -1.9537
    -1.8634  -1.8634  -1.7727  -1.7727  -1.6977  -1.6977  -1.5898  -1.5898
    -1.5527  -1.5527  -1.4409  -1.4409  -1.3814  -1.3814  -1.2286  -1.2286
    -0.7740  -0.7740  -0.6707  -0.6707  -0.5793  -0.5793  -0.3912  -0.3912
     0.1862   0.1862   0.3206   0.3206   0.5922   0.5922   0.6783   0.6783
     4.9738   4.9738   4.9944   4.9944   5.2810   5.2810   5.3130   5.3130
     5.8500   5.8500   5.9576   5.9576   6.5043   6.5043   6.9719   6.9719
     7.0724   7.0724   7.2858   7.2858   7.3440   7.3440   7.6975   7.6975
     7.7519   7.7519   7.9134   7.9134   8.1142   8.1142   8.2463   8.2464
     8.3814

          k = 0.3333-0.3894-0.2994 (119956 PWs)   bands (ev):

   -21.6692 -21.6692 -21.6481 -21.6481 -21.3921 -21.3921 -21.3902 -21.3902
   -19.6104 -19.6104 -19.5940 -19.5940 -19.2255 -19.2255 -19.2163 -19.2163
   -18.8525 -18.8525 -18.8407 -18.8407 -15.7348 -15.7348 -15.7102 -15.7102
   -14.7145 -14.7145 -14.7003 -14.7003 -13.1437 -13.1437 -13.0877 -13.0877
   -12.3331 -12.3331 -12.3230 -12.3230 -10.7280 -10.7280 -10.6874 -10.6874
   -10.6506 -10.6506 -10.5694 -10.5694 -10.0531 -10.0531 -10.0246 -10.0246
    -9.6739  -9.6739  -9.6398  -9.6398  -8.6270  -8.6270  -8.6209  -8.6209
    -7.9315  -7.9315  -7.8817  -7.8817  -7.1343  -7.1343  -7.0411  -7.0411
    -6.7557  -6.7557  -6.6391  -6.6391  -6.4754  -6.4754  -6.4634  -6.4634
    -6.1027  -6.1027  -6.0119  -6.0119  -5.6866  -5.6866  -5.5983  -5.5983
    -5.5027  -5.5027  -5.4128  -5.4128  -5.1914  -5.1914  -5.1077  -5.1077
    -4.9669  -4.9669  -4.8900  -4.8900  -4.6206  -4.6206  -4.5492  -4.5492
    -4.4217  -4.4217  -4.2896  -4.2896  -4.1408  -4.1408  -4.0926  -4.0926
    -3.4994  -3.4994  -3.4542  -3.4542  -3.3034  -3.3034  -3.2421  -3.2421
    -3.1877  -3.1877  -3.1257  -3.1257  -2.9900  -2.9900  -2.8498  -2.8498
    -2.8115  -2.8115  -2.7536  -2.7536  -2.7057  -2.7057  -2.5374  -2.5374
    -2.4085  -2.4085  -2.3761  -2.3761  -2.0672  -2.0672  -1.9305  -1.9305
    -1.8317  -1.8317  -1.8143  -1.8143  -1.6850  -1.6850  -1.6083  -1.6083
    -1.5425  -1.5425  -1.4668  -1.4668  -1.3687  -1.3687  -1.2346  -1.2346
    -0.7611  -0.7611  -0.6804  -0.6804  -0.5073  -0.5073  -0.4767  -0.4767
     0.2324   0.2324   0.2917   0.2917   0.5908   0.5908   0.6757   0.6757
     4.9743   4.9743   4.9938   4.9938   5.2730   5.2730   5.3269   5.3269
     5.8559   5.8559   5.9517   5.9517   6.6035   6.6035   6.7973   6.7973
     7.1016   7.1016   7.1906   7.1906   7.5044   7.5044   7.6269   7.6269
     7.8206   7.8206   7.9402   7.9402   8.0582   8.0582   8.2044   8.2044
     8.3849

     highest occupied, lowest unoccupied level (ev):     0.7419    4.9182

!    total energy              =   -1608.17882571 Ry
     Harris-Foulkes estimate   =   -1608.17882572 Ry
     estimated scf accuracy    <          8.2E-09 Ry

     total all-electron energy =     -6063.573356 Ry

     The total energy is the sum of the following terms:

     one-electron contribution =   -1024.98619321 Ry
     hartree contribution      =     637.53410890 Ry
     xc contribution           =    -348.95044849 Ry
     ewald contribution        =    -411.86508207 Ry
     Dispersion Correction     =      -0.51402253 Ry
     one-center paw contrib.   =    -459.39718831 Ry

     convergence has been achieved in  18 iterations

     Forces acting on atoms (cartesian axes, Ry/au):

     atom    1 type  1   force =     0.00065137   -0.00020314    0.00021073
     atom    2 type  1   force =    -0.00065137   -0.00020314   -0.00021073
     atom    3 type  1   force =    -0.00065137    0.00020314   -0.00021073
     atom    4 type  1   force =     0.00065137    0.00020314    0.00021073
     atom    5 type  1   force =     0.00036409   -0.00028649   -0.00029967
     atom    6 type  1   force =    -0.00036409   -0.00028649    0.00029967
     atom    7 type  1   force =    -0.00036409    0.00028649    0.00029967
     atom    8 type  1   force =     0.00036409    0.00028649   -0.00029967
     atom    9 type  1   force =     0.00071938   -0.00022804    0.00041754
     atom   10 type  1   force =    -0.00071938   -0.00022804   -0.00041754
     atom   11 type  1   force =    -0.00071938    0.00022804   -0.00041754
     atom   12 type  1   force =     0.00071938    0.00022804    0.00041754
     atom   13 type  1   force =    -0.00003898    0.00074450   -0.00074360
     atom   14 type  1   force =     0.00003898    0.00074450    0.00074360
     atom   15 type  1   force =     0.00003898   -0.00074450    0.00074360
     atom   16 type  1   force =    -0.00003898   -0.00074450   -0.00074360
     atom   17 type  1   force =     0.00004092   -0.00022482   -0.00064529
     atom   18 type  1   force =    -0.00004092   -0.00022482    0.00064529
     atom   19 type  1   force =    -0.00004092    0.00022482    0.00064529
     atom   20 type  1   force =     0.00004092    0.00022482   -0.00064529
     atom   21 type  1   force =     0.00005920    0.00034746   -0.00041031
     atom   22 type  1   force =    -0.00005920    0.00034746    0.00041031
     atom   23 type  1   force =    -0.00005920   -0.00034746    0.00041031
     atom   24 type  1   force =     0.00005920   -0.00034746   -0.00041031
     atom   25 type  1   force =     0.00037086   -0.00019941    0.00032160
     atom   26 type  1   force =    -0.00037086   -0.00019941   -0.00032160
     atom   27 type  1   force =    -0.00037086    0.00019941   -0.00032160
     atom   28 type  1   force =     0.00037086    0.00019941    0.00032160
     atom   29 type  1   force =     0.00004409   -0.00027513    0.00069902
     atom   30 type  1   force =    -0.00004409   -0.00027513   -0.00069902
     atom   31 type  1   force =    -0.00004409    0.00027513   -0.00069902
     atom   32 type  1   force =     0.00004409    0.00027513    0.00069902
     atom   33 type  2   force =     0.00057782    0.00085903    0.00018144
     atom   34 type  2   force =    -0.00057782    0.00085903   -0.00018144
     atom   35 type  2   force =    -0.00057782   -0.00085903   -0.00018144
     atom   36 type  2   force =     0.00057782   -0.00085903    0.00018144
     atom   37 type  2   force =    -0.00054345    0.00049067   -0.00052982
     atom   38 type  2   force =     0.00054345    0.00049067    0.00052982
     atom   39 type  2   force =     0.00054345   -0.00049067    0.00052982
     atom   40 type  2   force =    -0.00054345   -0.00049067   -0.00052982
     atom   41 type  2   force =     0.00001952    0.00017599    0.00038091
     atom   42 type  2   force =    -0.00001952    0.00017599   -0.00038091
     atom   43 type  2   force =    -0.00001952   -0.00017599   -0.00038091
     atom   44 type  2   force =     0.00001952   -0.00017599    0.00038091
     atom   45 type  2   force =     0.00038774    0.00116367   -0.00069705
     atom   46 type  2   force =    -0.00038774    0.00116367    0.00069705
     atom   47 type  2   force =    -0.00038774   -0.00116367    0.00069705
     atom   48 type  2   force =     0.00038774   -0.00116367   -0.00069705
     atom   49 type  4   force =     0.00027386    0.00054474   -0.00016880
     atom   50 type  4   force =    -0.00027386    0.00054474    0.00016880
     atom   51 type  4   force =    -0.00027386   -0.00054474    0.00016880
     atom   52 type  4   force =     0.00027386   -0.00054474   -0.00016880
     atom   53 type  4   force =    -0.00060053    0.00016510    0.00036175
     atom   54 type  4   force =     0.00060053    0.00016510   -0.00036175
     atom   55 type  4   force =     0.00060053   -0.00016510   -0.00036175
     atom   56 type  4   force =    -0.00060053   -0.00016510    0.00036175
     atom   57 type  4   force =     0.00051214   -0.00052754   -0.00037117
     atom   58 type  4   force =    -0.00051214   -0.00052754    0.00037117
     atom   59 type  4   force =    -0.00051214    0.00052754    0.00037117
     atom   60 type  4   force =     0.00051214    0.00052754   -0.00037117
     atom   61 type  3   force =    -0.00021029   -0.00011918    0.00001429
     atom   62 type  3   force =     0.00021029   -0.00011918   -0.00001429
     atom   63 type  3   force =     0.00021029    0.00011918   -0.00001429
     atom   64 type  3   force =    -0.00021029    0.00011918    0.00001429
     atom   65 type  3   force =     0.00010583   -0.00013280   -0.00051540
     atom   66 type  3   force =    -0.00010583   -0.00013280    0.00051540
     atom   67 type  3   force =    -0.00010583    0.00013280    0.00051540
     atom   68 type  3   force =     0.00010583    0.00013280   -0.00051540
     atom   69 type  3   force =     0.00036974   -0.00005383   -0.00015608
     atom   70 type  3   force =    -0.00036974   -0.00005383    0.00015608
     atom   71 type  3   force =    -0.00036974    0.00005383    0.00015608
     atom   72 type  3   force =     0.00036974    0.00005383   -0.00015608
     atom   73 type  3   force =     0.00059647    0.00013810    0.00012394
     atom   74 type  3   force =    -0.00059647    0.00013810   -0.00012394
     atom   75 type  3   force =    -0.00059647   -0.00013810   -0.00012394
     atom   76 type  3   force =     0.00059647   -0.00013810    0.00012394
     atom   77 type  3   force =    -0.00051633   -0.00026077   -0.00062975
     atom   78 type  3   force =     0.00051633   -0.00026077    0.00062975
     atom   79 type  3   force =     0.00051633    0.00026077    0.00062975
     atom   80 type  3   force =    -0.00051633    0.00026077   -0.00062975
     atom   81 type  3   force =    -0.00028216   -0.00025977    0.00031026
     atom   82 type  3   force =     0.00028216   -0.00025977   -0.00031026
     atom   83 type  3   force =     0.00028216    0.00025977   -0.00031026
     atom   84 type  3   force =    -0.00028216    0.00025977    0.00031026
     atom   85 type  3   force =    -0.00032686   -0.00047551   -0.00025756
     atom   86 type  3   force =     0.00032686   -0.00047551    0.00025756
     atom   87 type  3   force =     0.00032686    0.00047551    0.00025756
     atom   88 type  3   force =    -0.00032686    0.00047551   -0.00025756
     atom   89 type  3   force =     0.00010728    0.00004690    0.00055658
     atom   90 type  3   force =    -0.00010728    0.00004690   -0.00055658
     atom   91 type  3   force =    -0.00010728   -0.00004690   -0.00055658
     atom   92 type  3   force =     0.00010728   -0.00004690    0.00055658
     atom   93 type  3   force =     0.00029762    0.00026066   -0.00063048
     atom   94 type  3   force =    -0.00029762    0.00026066    0.00063048
     atom   95 type  3   force =    -0.00029762   -0.00026066    0.00063048
     atom   96 type  3   force =     0.00029762   -0.00026066   -0.00063048
     atom   97 type  3   force =    -0.00022858   -0.00038091   -0.00014355
     atom   98 type  3   force =     0.00022858   -0.00038091    0.00014355
     atom   99 type  3   force =     0.00022858    0.00038091    0.00014355
     atom  100 type  3   force =    -0.00022858    0.00038091   -0.00014355
     atom  101 type  3   force =     0.00026150   -0.00018737   -0.00004145
     atom  102 type  3   force =    -0.00026150   -0.00018737    0.00004145
     atom  103 type  3   force =    -0.00026150    0.00018737    0.00004145
     atom  104 type  3   force =     0.00026150    0.00018737   -0.00004145
     atom  105 type  3   force =    -0.00048429    0.00013597    0.00039110
     atom  106 type  3   force =     0.00048429    0.00013597   -0.00039110
     atom  107 type  3   force =     0.00048429   -0.00013597   -0.00039110
     atom  108 type  3   force =    -0.00048429   -0.00013597    0.00039110
     atom  109 type  3   force =    -0.00022548   -0.00002274    0.00039852
     atom  110 type  3   force =     0.00022548   -0.00002274   -0.00039852
     atom  111 type  3   force =     0.00022548    0.00002274   -0.00039852
     atom  112 type  3   force =    -0.00022548    0.00002274    0.00039852
     atom  113 type  3   force =     0.00027669   -0.00013287   -0.00001813
     atom  114 type  3   force =    -0.00027669   -0.00013287    0.00001813
     atom  115 type  3   force =    -0.00027669    0.00013287    0.00001813
     atom  116 type  3   force =     0.00027669    0.00013287   -0.00001813

     Total force =     0.007524     Total SCF correction =     0.000111


     Computing stress (Cartesian axis) and pressure

          total   stress  (Ry/bohr**3)                   (kbar)     P=   -6.44
  -0.00005152   0.00000000   0.00000566         -7.58      0.00      0.83
   0.00000000  -0.00005121   0.00000000          0.00     -7.53      0.00
   0.00000566   0.00000000  -0.00002860          0.83      0.00     -4.21


     Writing output data file scf.save
 
     init_run     :     60.54s CPU     62.62s WALL (       1 calls)
     electrons    :   2404.88s CPU   2490.15s WALL (       1 calls)
     forces       :     31.53s CPU     31.78s WALL (       1 calls)
     stress       :    137.54s CPU    137.97s WALL (       1 calls)

     Called by init_run:
     wfcinit      :     48.85s CPU     50.77s WALL (       1 calls)
     potinit      :      4.16s CPU      4.19s WALL (       1 calls)

     Called by electrons:
     c_bands      :   2185.65s CPU   2258.94s WALL (      18 calls)
     sum_band     :    200.37s CPU    210.62s WALL (      18 calls)
     v_of_rho     :      2.45s CPU      2.68s WALL (      19 calls)
     newd         :      6.84s CPU      8.33s WALL (      19 calls)
     PAW_pot      :      8.84s CPU      8.85s WALL (      19 calls)
     mix_rho      :      0.63s CPU      0.67s WALL (      18 calls)

     Called by c_bands:
     init_us_2    :     11.38s CPU     11.43s WALL (     312 calls)
     cegterg      :   2142.71s CPU   2215.94s WALL (     144 calls)

     Called by sum_band:
     sum_band:bec :      0.12s CPU      0.12s WALL (     144 calls)
     addusdens    :      6.74s CPU      8.23s WALL (      18 calls)

     Called by *egterg:
     h_psi        :   1083.24s CPU   1141.04s WALL (     703 calls)
     s_psi        :    278.77s CPU    278.83s WALL (     703 calls)
     g_psi        :      5.49s CPU      5.49s WALL (     551 calls)
     cdiaghg      :    118.19s CPU    118.22s WALL (     695 calls)

     Called by h_psi:
     h_psi:pot    :   1075.14s CPU   1132.83s WALL (     703 calls)
     h_psi:calbec :    271.09s CPU    271.50s WALL (     703 calls)
     vloc_psi     :    525.39s CPU    582.60s WALL (     703 calls)
     add_vuspsi   :    278.66s CPU    278.72s WALL (     703 calls)

     General routines
     calbec       :    385.73s CPU    386.31s WALL (     887 calls)
     fft          :      1.71s CPU      2.11s WALL (     271 calls)
     fftw         :    550.99s CPU    614.70s WALL (  201204 calls)
 
     Parallel routines
     fft_scatter  :    120.03s CPU    177.52s WALL (  201475 calls)
 
     PWSCF        : 44m 7.54s CPU    46m21.81s WALL

 
   This run was terminated on:   6:32:27   7Dec2017            

=------------------------------------------------------------------------------=
   JOB DONE.
=------------------------------------------------------------------------------=
