
     Program PWSCF v.6.1 (svn rev. 13369) starts on  5Nov2017 at 18:40:48 

     This program is part of the open-source Quantum ESPRESSO suite
     for quantum simulation of materials; please cite
         "P. Giannozzi et al., J. Phys.:Condens. Matter 21 395502 (2009);
          URL http://www.quantum-espresso.org", 
     in publications or presentations arising from this work. More details at
     http://www.quantum-espresso.org/quote

     Parallel version (MPI), running on     8 processors
     R & G space division:  proc/nbgrp/npool/nimage =       8
     Waiting for input...
     Reading input from standard input

     Current dimensions of program PWSCF are:
     Max number of different atomic species (ntypx) = 10
     Max number of k-points (npk) =  40000
     Max angular momentum in pseudopotentials (lmaxx) =  3
               file C.pbe-n-kjpaw_psl.0.1.UPF: wavefunction(s)  2P renormalized
               file N.pbe-n-kjpaw_psl.0.1.UPF: wavefunction(s)  2P renormalized
               file H.pbe-kjpaw_psl.0.1.UPF: wavefunction(s)  1S renormalized
               file O.pbe-n-kjpaw_psl.0.1.UPF: wavefunction(s)  2P renormalized

     -------------------------------------
     Parameters for Dispersion Correction:
     -------------------------------------
       atom      VdW radius       C_6     

        C          2.744         60.710
        N          2.640         42.670
        H          1.892          4.857
        O          2.536         24.284

     Subspace diagonalization in iterative solution of the eigenvalue problem:
     a serial algorithm will be used

 
     Parallelization info
     --------------------
     sticks:   dense  smooth     PW     G-vecs:    dense   smooth      PW
     Min        1178    1178    310                98328    98328   13292
     Max        1179    1179    311                98331    98331   13294
     Sum        9431    9431   2483               786639   786639  106347
 


     bravais-lattice index     =            0
     lattice parameter (alat)  =      15.2703  a.u.
     unit-cell volume          =    5821.8311 (a.u.)^3
     number of atoms/cell      =           96
     number of atomic types    =            4
     number of electrons       =       320.00
     number of Kohn-Sham states=          192
     kinetic-energy cutoff     =     100.0000  Ry
     charge density cutoff     =     400.0000  Ry
     convergence threshold     =      1.0E-08
     mixing beta               =       0.5000
     number of iterations used =            8  plain     mixing
     Exchange-correlation      =  SLA  PW   PBX  PBC ( 1  4  3  4 0 0)

     celldm(1)=  15.270310  celldm(2)=   0.000000  celldm(3)=   0.000000
     celldm(4)=   0.000000  celldm(5)=   0.000000  celldm(6)=   0.000000

     crystal axes: (cart. coord. in units of alat)
               a(1) = (   1.000000   0.000000   0.000000 )  
               a(2) = (   0.000000   1.269593   0.000000 )  
               a(3) = (   0.000000   0.000000   1.287809 )  

     reciprocal axes: (cart. coord. in units 2 pi/alat)
               b(1) = (  1.000000  0.000000  0.000000 )  
               b(2) = (  0.000000  0.787654  0.000000 )  
               b(3) = (  0.000000  0.000000  0.776513 )  


     PseudoPot. # 1 for  C read from file:
     /scratch/ahofstet/pseudo/C.pbe-n-kjpaw_psl.0.1.UPF
     MD5 check sum: 430fe95172b1e11ef3f8ed03bac87931
     Pseudo is Projector augmented-wave + core cor, Zval =  4.0
     Generated using "atomic" code by A. Dal Corso  v.5.0.99 svn rev. 10869
     Shape of augmentation charge: BESSEL
     Using radial grid of 1073 points,  4 beta functions with: 
                l(1) =   0
                l(2) =   0
                l(3) =   1
                l(4) =   1
     Q(r) pseudized with 0 coefficients 


     PseudoPot. # 2 for  N read from file:
     /scratch/ahofstet/pseudo/N.pbe-n-kjpaw_psl.0.1.UPF
     MD5 check sum: f73187c8b701007e77325f868c9291d7
     Pseudo is Projector augmented-wave + core cor, Zval =  5.0
     Generated using "atomic" code by A. Dal Corso  v.5.0.99 svn rev. 10869
     Shape of augmentation charge: PSQ
     Using radial grid of 1085 points,  4 beta functions with: 
                l(1) =   0
                l(2) =   0
                l(3) =   1
                l(4) =   1
     Q(r) pseudized with 0 coefficients 


     PseudoPot. # 3 for  H read from file:
     /scratch/ahofstet/pseudo/H.pbe-kjpaw_psl.0.1.UPF
     MD5 check sum: 94e484f906d9e9773b2f6e52662335b2
     Pseudo is Projector augmented-wave, Zval =  1.0
     Generated using "atomic" code by A. Dal Corso  v.5.0.99 svn rev. 10869
     Shape of augmentation charge: PSQ
     Using radial grid of  929 points,  2 beta functions with: 
                l(1) =   0
                l(2) =   0
     Q(r) pseudized with 0 coefficients 


     PseudoPot. # 4 for  O read from file:
     /scratch/ahofstet/pseudo/O.pbe-n-kjpaw_psl.0.1.UPF
     MD5 check sum: 3f94a2996a3169367d6eb21d9b593f20
     Pseudo is Projector augmented-wave + core cor, Zval =  6.0
     Generated using "atomic" code by A. Dal Corso  v.5.0.99 svn rev. 10869
     Shape of augmentation charge: BESSEL
     Using radial grid of 1095 points,  4 beta functions with: 
                l(1) =   0
                l(2) =   0
                l(3) =   1
                l(4) =   1
     Q(r) pseudized with 0 coefficients 


     atomic species   valence    mass     pseudopotential
        C              4.00    12.01070      C( 1.00)
        N              5.00    14.00670      N( 1.00)
        H              1.00     1.00794      H( 1.00)
        O              6.00    15.99940      O( 1.00)

     No symmetry found
          (note:  1 additional sym.ops. were found but ignored
           their fractional translations are incommensurate with FFT grid)


   Cartesian axes

     site n.     atom                  positions (alat units)
         1           N   tau(   1) = (   0.6952445   0.1230602   0.7986928  )
         2           N   tau(   2) = (   0.3047555   1.1465328   0.1547882  )
         3           N   tau(   3) = (   0.8048570   0.7578583   0.1547891  )
         4           N   tau(   4) = (   0.1951430   0.5117347   0.7986937  )
         5           C   tau(   5) = (   0.6278001   0.0386597   0.6688204  )
         6           C   tau(   6) = (   0.3721999   1.2309333   0.0249158  )
         7           C   tau(   7) = (   0.8722863   0.6734409   0.0249289  )
         8           C   tau(   8) = (   0.1277137   0.5961521   0.6688335  )
         9           H   tau(   9) = (   0.5328926   1.2166158   0.7065994  )
        10           H   tau(  10) = (   0.4671074   0.0529771   0.0626947  )
        11           H   tau(  11) = (   0.9671712   0.5817930   0.0626849  )
        12           H   tau(  12) = (   0.0328288   0.6878000   0.7065895  )
        13           N   tau(  13) = (   0.9871818   1.1122830   0.8240314  )
        14           N   tau(  14) = (   0.0128182   0.1573099   0.1801268  )
        15           N   tau(  15) = (   0.5128703   0.4775004   0.1801295  )
        16           N   tau(  16) = (   0.4871297   0.7920926   0.8240341  )
        17           O   tau(  17) = (   0.8464714   0.9368786   0.6510729  )
        18           O   tau(  18) = (   0.1535286   0.3327144   0.0071682  )
        19           O   tau(  19) = (   0.6535322   0.3020707   0.0071604  )
        20           O   tau(  20) = (   0.3464678   0.9675223   0.6510650  )
        21           C   tau(  21) = (   0.8158803   0.2517909   0.7653862  )
        22           C   tau(  22) = (   0.1841197   1.0178021   0.1214816  )
        23           C   tau(  23) = (   0.6842325   0.8865873   0.1214878  )
        24           C   tau(  24) = (   0.3157675   0.3830057   0.7653924  )
        25           H   tau(  25) = (   0.8212468   0.3336466   0.8737367  )
        26           H   tau(  26) = (   0.1787532   0.9359463   0.2298321  )
        27           H   tau(  27) = (   0.6788563   0.9684445   0.2298345  )
        28           H   tau(  28) = (   0.3211437   0.3011484   0.8737391  )
        29           H   tau(  29) = (   0.7786565   0.3213020   0.6542057  )
        30           H   tau(  30) = (   0.2213435   0.9482910   0.0103011  )
        31           H   tau(  31) = (   0.7214340   0.9560983   0.0103003  )
        32           H   tau(  32) = (   0.2785660   0.3134947   0.6542049  )
        33           O   tau(  33) = (   0.7530499   1.2648655   1.0624762  )
        34           O   tau(  34) = (   0.2469501   0.0047275   0.4185716  )
        35           O   tau(  35) = (   0.7470155   0.6300812   0.4185648  )
        36           O   tau(  36) = (   0.2529845   0.6395118   1.0624694  )
        37           C   tau(  37) = (   0.6411513   0.0898561   0.9660427  )
        38           C   tau(  38) = (   0.3588487   1.1797368   0.3221381  )
        39           C   tau(  39) = (   0.8589415   0.7246520   0.3221410  )
        40           C   tau(  40) = (   0.1410585   0.5449410   0.9660456  )
        41           H   tau(  41) = (   0.5193208   0.0293696   0.9634575  )
        42           H   tau(  42) = (   0.4806792   1.2402234   0.3195529  )
        43           H   tau(  43) = (   0.9807624   0.6641536   0.3195726  )
        44           H   tau(  44) = (   0.0192376   0.6054394   0.9634772  )
        45           H   tau(  45) = (   0.6334931   0.2055291   1.0376696  )
        46           H   tau(  46) = (   0.3665069   1.0640638   0.3937650  )
        47           H   tau(  47) = (   0.8665846   0.8403271   0.3937677  )
        48           H   tau(  48) = (   0.1334154   0.4292659   1.0376723  )
        49           O   tau(  49) = (   0.7466226   1.0921747   0.9999936  )
        50           O   tau(  50) = (   0.2533774   0.1774183   0.3560890  )
        51           O   tau(  51) = (   0.7534380   0.4573899   0.3560852  )
        52           O   tau(  52) = (   0.2465620   0.8122031   0.9999898  )
        53           C   tau(  53) = (   0.1133355   1.2378444   0.8389443  )
        54           C   tau(  54) = (   0.8866645   0.0317486   0.1950396  )
        55           C   tau(  55) = (   0.3867250   0.6030712   0.1950439  )
        56           C   tau(  56) = (   0.6132750   0.6665217   0.8389485  )
        57           H   tau(  57) = (   0.1869210   1.2396075   0.7244607  )
        58           H   tau(  58) = (   0.8130790   0.0299854   0.0805561  )
        59           H   tau(  59) = (   0.3131348   0.6048263   0.0805617  )
        60           H   tau(  60) = (   0.6868652   0.6647667   0.7244663  )
        61           H   tau(  61) = (   0.1920534   1.2115037   0.9467134  )
        62           H   tau(  62) = (   0.8079466   0.0580893   0.3028088  )
        63           H   tau(  63) = (   0.3079992   0.5767313   0.3028093  )
        64           H   tau(  64) = (   0.6920008   0.6928617   0.9467139  )
        65           O   tau(  65) = (   0.0521532   0.1288761   0.8765234  )
        66           O   tau(  66) = (   0.9478468   1.1407169   0.2326188  )
        67           O   tau(  67) = (   0.4479112   0.7636961   0.2326165  )
        68           O   tau(  68) = (   0.5520888   0.5058969   0.8765211  )
        69           C   tau(  69) = (   0.9466170   1.0497262   0.6722183  )
        70           C   tau(  70) = (   0.0533830   0.2198668   0.0283136  )
        71           C   tau(  71) = (   0.5534098   0.4149232   0.0283149  )
        72           C   tau(  72) = (   0.4465902   0.8546698   0.6722196  )
        73           H   tau(  73) = (   0.0138222   1.1104349   0.5692600  )
        74           H   tau(  74) = (   0.9861778   0.1591581   1.2131646  )
        75           H   tau(  75) = (   0.4861825   0.4756307   1.2131727  )
        76           H   tau(  76) = (   0.5138175   0.7939623   0.5692681  )
        77           O   tau(  77) = (   0.9751289   0.1928902   0.7226210  )
        78           O   tau(  78) = (   0.0248711   1.0767028   0.0787163  )
        79           O   tau(  79) = (   0.5249682   0.8276948   0.0787210  )
        80           O   tau(  80) = (   0.4750318   0.4418982   0.7226256  )
        81           C   tau(  81) = (   0.9123739   1.0420508   0.9711950  )
        82           C   tau(  82) = (   0.0876261   0.2275421   0.3272904  )
        83           C   tau(  83) = (   0.5876908   0.4072644   0.3272885  )
        84           C   tau(  84) = (   0.4123092   0.8623286   0.9711931  )
        85           H   tau(  85) = (   0.9908498   1.0713724   1.0780378  )
        86           H   tau(  86) = (   0.0091502   0.1982206   0.4341332  )
        87           H   tau(  87) = (   0.5092091   0.4365732   0.4341334  )
        88           H   tau(  88) = (   0.4907909   0.8330198   1.0780380  )
        89           H   tau(  89) = (   0.9005464   0.9073806   0.9576011  )
        90           H   tau(  90) = (   0.0994536   0.3622123   0.3136965  )
        91           H   tau(  91) = (   0.5995178   0.2725950   0.3136854  )
        92           H   tau(  92) = (   0.4004822   0.9969980   0.9575900  )
        93           O   tau(  93) = (   0.6664415   0.0614035   0.5233535  )
        94           O   tau(  94) = (   0.3335585   1.2081895   1.1672581  )
        95           O   tau(  95) = (   0.8336100   0.6961938   1.1672494  )
        96           O   tau(  96) = (   0.1663900   0.5733992   0.5233448  )

     number of k points=     8
                       cart. coord. in units 2pi/alat
        k(    1) = (   0.0000000   0.0000000   0.0000000), wk =   0.1666667
        k(    2) = (   0.0000000   0.0000000  -0.3882563), wk =   0.1666667
        k(    3) = (   0.0000000  -0.3938270   0.0000000), wk =   0.1666667
        k(    4) = (   0.0000000  -0.3938270  -0.3882563), wk =   0.1666667
        k(    5) = (   0.3333333   0.0000000   0.0000000), wk =   0.3333333
        k(    6) = (   0.3333333   0.0000000  -0.3882563), wk =   0.3333333
        k(    7) = (   0.3333333  -0.3938270   0.0000000), wk =   0.3333333
        k(    8) = (   0.3333333  -0.3938270  -0.3882563), wk =   0.3333333

     Dense  grid:   786639 G-vectors     FFT dimensions: ( 100, 125, 125)

     Estimated max dynamical RAM per process >     788.22MB

     Estimated total allocated dynamical RAM >    6305.80MB

     Check: negative/imaginary core charge=   -0.000003    0.000000

     Initial potential from superposition of free atoms

     starting charge  319.99853, renormalised to  320.00000
     Starting wfc are  264 randomized atomic wfcs
     Checking if some PAW data can be deallocated... 

     total cpu time spent up to now is       37.4 secs

     per-process dynamical memory:   538.8 Mb

     Self-consistent Calculation

     iteration #  1     ecut=   100.00 Ry     beta=0.50
     Davidson diagonalization with overlap
     ethr =  1.00E-02,  avg # of iterations =  3.6

     total cpu time spent up to now is      148.8 secs

     total energy              =   -1713.25266755 Ry
     Harris-Foulkes estimate   =   -1716.70949593 Ry
     estimated scf accuracy    <       7.29937808 Ry

     iteration #  2     ecut=   100.00 Ry     beta=0.50
     Davidson diagonalization with overlap
     ethr =  2.28E-03,  avg # of iterations =  2.1

     total cpu time spent up to now is      211.1 secs

     total energy              =   -1713.83606146 Ry
     Harris-Foulkes estimate   =   -1714.42846519 Ry
     estimated scf accuracy    <       1.30341888 Ry

     iteration #  3     ecut=   100.00 Ry     beta=0.50
     Davidson diagonalization with overlap
     ethr =  4.07E-04,  avg # of iterations =  6.6

     total cpu time spent up to now is      318.7 secs

     total energy              =   -1714.16347286 Ry
     Harris-Foulkes estimate   =   -1714.39667798 Ry
     estimated scf accuracy    <       0.56554399 Ry

     iteration #  4     ecut=   100.00 Ry     beta=0.50
     Davidson diagonalization with overlap
     ethr =  1.77E-04,  avg # of iterations =  2.1

     total cpu time spent up to now is      379.0 secs

     total energy              =   -1714.23817378 Ry
     Harris-Foulkes estimate   =   -1714.25670385 Ry
     estimated scf accuracy    <       0.05563207 Ry

     iteration #  5     ecut=   100.00 Ry     beta=0.50
     Davidson diagonalization with overlap
     ethr =  1.74E-05,  avg # of iterations =  6.8

     total cpu time spent up to now is      495.3 secs

     total energy              =   -1714.26091526 Ry
     Harris-Foulkes estimate   =   -1714.26722845 Ry
     estimated scf accuracy    <       0.01733752 Ry

     iteration #  6     ecut=   100.00 Ry     beta=0.50
     Davidson diagonalization with overlap
     ethr =  5.42E-06,  avg # of iterations =  1.4

     total cpu time spent up to now is      551.2 secs

     total energy              =   -1714.26058840 Ry
     Harris-Foulkes estimate   =   -1714.26210311 Ry
     estimated scf accuracy    <       0.00328547 Ry

     iteration #  7     ecut=   100.00 Ry     beta=0.50
     Davidson diagonalization with overlap
     ethr =  1.03E-06,  avg # of iterations =  4.6

     total cpu time spent up to now is      664.1 secs

     total energy              =   -1714.26285512 Ry
     Harris-Foulkes estimate   =   -1714.26370307 Ry
     estimated scf accuracy    <       0.00233263 Ry

     iteration #  8     ecut=   100.00 Ry     beta=0.50
     Davidson diagonalization with overlap
     ethr =  7.29E-07,  avg # of iterations =  1.0

     total cpu time spent up to now is      719.4 secs

     total energy              =   -1714.26261529 Ry
     Harris-Foulkes estimate   =   -1714.26297787 Ry
     estimated scf accuracy    <       0.00070673 Ry

     iteration #  9     ecut=   100.00 Ry     beta=0.50
     Davidson diagonalization with overlap
     ethr =  2.21E-07,  avg # of iterations =  3.9

     total cpu time spent up to now is      819.6 secs

     total energy              =   -1714.26303500 Ry
     Harris-Foulkes estimate   =   -1714.26309244 Ry
     estimated scf accuracy    <       0.00023138 Ry

     iteration # 10     ecut=   100.00 Ry     beta=0.50
     Davidson diagonalization with overlap
     ethr =  7.23E-08,  avg # of iterations =  1.0

     total cpu time spent up to now is      874.9 secs

     total energy              =   -1714.26297783 Ry
     Harris-Foulkes estimate   =   -1714.26304084 Ry
     estimated scf accuracy    <       0.00011674 Ry

     iteration # 11     ecut=   100.00 Ry     beta=0.50
     Davidson diagonalization with overlap
     ethr =  3.65E-08,  avg # of iterations =  3.0

     total cpu time spent up to now is      964.9 secs

     total energy              =   -1714.26302650 Ry
     Harris-Foulkes estimate   =   -1714.26303184 Ry
     estimated scf accuracy    <       0.00001996 Ry

     iteration # 12     ecut=   100.00 Ry     beta=0.50
     Davidson diagonalization with overlap
     ethr =  6.24E-09,  avg # of iterations =  1.0

     total cpu time spent up to now is     1020.2 secs

     total energy              =   -1714.26302109 Ry
     Harris-Foulkes estimate   =   -1714.26302708 Ry
     estimated scf accuracy    <       0.00000998 Ry

     iteration # 13     ecut=   100.00 Ry     beta=0.50
     Davidson diagonalization with overlap
     ethr =  3.12E-09,  avg # of iterations =  3.6

     total cpu time spent up to now is     1115.9 secs

     total energy              =   -1714.26302604 Ry
     Harris-Foulkes estimate   =   -1714.26302656 Ry
     estimated scf accuracy    <       0.00000249 Ry

     iteration # 14     ecut=   100.00 Ry     beta=0.50
     Davidson diagonalization with overlap
     ethr =  7.79E-10,  avg # of iterations =  1.0

     total cpu time spent up to now is     1171.2 secs

     total energy              =   -1714.26302534 Ry
     Harris-Foulkes estimate   =   -1714.26302608 Ry
     estimated scf accuracy    <       0.00000149 Ry

     iteration # 15     ecut=   100.00 Ry     beta=0.50
     Davidson diagonalization with overlap
     ethr =  4.65E-10,  avg # of iterations =  3.0

     total cpu time spent up to now is     1255.9 secs

     total energy              =   -1714.26302581 Ry
     Harris-Foulkes estimate   =   -1714.26302582 Ry
     estimated scf accuracy    <       0.00000004 Ry

     iteration # 16     ecut=   100.00 Ry     beta=0.50
     Davidson diagonalization with overlap
     ethr =  1.18E-11,  avg # of iterations =  2.1

     total cpu time spent up to now is     1324.0 secs

     total energy              =   -1714.26302580 Ry
     Harris-Foulkes estimate   =   -1714.26302582 Ry
     estimated scf accuracy    <       0.00000003 Ry

     iteration # 17     ecut=   100.00 Ry     beta=0.50
     Davidson diagonalization with overlap
     ethr =  7.98E-12,  avg # of iterations =  2.1

     total cpu time spent up to now is     1383.0 secs

     End of self-consistent calculation

          k = 0.0000 0.0000 0.0000 ( 98331 PWs)   bands (ev):

   -21.5375 -21.5178 -21.5047 -21.4929 -21.3019 -21.2964 -21.2880 -21.2862
   -19.4276 -19.4243 -19.4209 -19.4139 -19.3035 -19.2924 -19.2620 -19.2573
   -17.7822 -17.7711 -17.7587 -17.7462 -16.9127 -16.9101 -16.9079 -16.8839
   -16.7225 -16.7222 -16.6985 -16.6835 -15.6193 -15.5956 -15.5782 -15.5637
   -11.2020 -11.1750 -11.1062 -11.1006 -10.8659 -10.7783 -10.7508 -10.7325
   -10.0798 -10.0546 -10.0492 -10.0223 -10.0061 -10.0040  -9.9572  -9.9297
    -7.9485  -7.9023  -7.8663  -7.8335  -7.6367  -7.5680  -7.5166  -7.4658
    -6.7997  -6.7870  -6.7592  -6.6830  -6.6461  -6.5749  -6.4952  -6.3901
    -6.3472  -6.1631  -6.1418  -6.0616  -5.9962  -5.9606  -5.8839  -5.8527
    -5.6433  -5.5369  -5.4832  -5.3692  -5.2829  -5.2573  -5.0586  -5.0457
    -5.0098  -4.9569  -4.9025  -4.8250  -4.8171  -4.7491  -4.6548  -4.6359
    -4.3057  -4.2635  -4.2291  -4.1825  -3.9420  -3.9281  -3.8410  -3.7791
    -3.7202  -3.6822  -3.5876  -3.5696  -3.5639  -3.5193  -3.4926  -3.2853
    -3.2807  -3.2627  -3.1740  -3.1022  -2.9688  -2.9500  -2.9084  -2.8488
    -2.8096  -2.8027  -2.6827  -2.6771  -2.6371  -2.5618  -2.5507  -2.4770
    -2.4416  -2.2313  -2.0728  -2.0081  -1.9913  -1.9576  -1.8939  -1.8054
    -1.1584  -1.1477  -0.9677  -0.9185  -0.6863  -0.6189  -0.5342  -0.5148
    -0.2082  -0.1602  -0.1261  -0.0299  -0.0249   0.0531   0.0672   0.1034
     0.4262   0.4278   0.4548   0.5059   0.5862   0.6230   0.6381   0.6410
     0.6554   0.7491   0.7558   0.8349   0.8943   1.0001   1.0059   1.0136
     4.9816   5.0179   5.1525   5.1839   5.2156   5.3142   5.3204   5.3469
     5.5926   5.6335   5.6953   5.6957   5.7708   5.7816   6.2091   6.2310
     7.5723   7.6466   7.7843   7.9059   8.0224   8.0593   8.1802   8.2030
     8.3386   8.3978   8.4549   8.6157   8.6439   8.7144   8.8141   8.9316

          k = 0.0000 0.0000-0.3883 ( 98322 PWs)   bands (ev):

   -21.5279 -21.5279 -21.4989 -21.4989 -21.2947 -21.2947 -21.2912 -21.2912
   -19.4247 -19.4247 -19.4184 -19.4184 -19.2981 -19.2981 -19.2598 -19.2598
   -17.7650 -17.7650 -17.7644 -17.7644 -16.9107 -16.9107 -16.8945 -16.8945
   -16.7226 -16.7226 -16.6924 -16.6924 -15.6076 -15.6076 -15.5709 -15.5709
   -11.1890 -11.1890 -11.1037 -11.1036 -10.8223 -10.8223 -10.7363 -10.7363
   -10.0870 -10.0870 -10.0702 -10.0702  -9.9544  -9.9544  -9.9473  -9.9473
    -7.9008  -7.9008  -7.8645  -7.8645  -7.5844  -7.5844  -7.5230  -7.5230
    -6.7889  -6.7889  -6.7620  -6.7620  -6.5424  -6.5424  -6.4578  -6.4578
    -6.2491  -6.2491  -6.0778  -6.0778  -6.0497  -6.0497  -5.8731  -5.8731
    -5.5648  -5.5648  -5.4076  -5.4076  -5.1383  -5.1383  -5.0727  -5.0727
    -4.9738  -4.9738  -4.9429  -4.9429  -4.7922  -4.7922  -4.6996  -4.6996
    -4.2697  -4.2697  -4.1555  -4.1555  -3.9829  -3.9829  -3.9142  -3.9142
    -3.6915  -3.6915  -3.6413  -3.6413  -3.4182  -3.4182  -3.3832  -3.3832
    -3.3430  -3.3430  -3.1584  -3.1584  -2.9351  -2.9351  -2.8045  -2.8045
    -2.7686  -2.7686  -2.7377  -2.7377  -2.5724  -2.5724  -2.5309  -2.5309
    -2.2667  -2.2667  -2.0333  -2.0333  -1.9419  -1.9419  -1.9408  -1.9408
    -1.0678  -1.0678  -1.0360  -1.0360  -0.5952  -0.5952  -0.5523  -0.5523
    -0.1480  -0.1480  -0.1214  -0.1214   0.0415   0.0415   0.0659   0.0659
     0.4444   0.4444   0.4605   0.4605   0.5830   0.5830   0.6763   0.6763
     0.6855   0.6855   0.7729   0.7729   0.9451   0.9451   1.0314   1.0314
     5.0834   5.0834   5.1109   5.1109   5.2371   5.2371   5.3023   5.3023
     5.6482   5.6482   5.6968   5.6968   5.7448   5.7448   6.2268   6.2268
     7.6835   7.6835   7.8295   7.8295   8.0834   8.0834   8.1509   8.1509
     8.2425   8.2425   8.5406   8.5406   8.6112   8.6112   9.1358   9.1359

          k = 0.0000-0.3938 0.0000 ( 98394 PWs)   bands (ev):

   -21.5276 -21.5271 -21.4997 -21.4991 -21.2994 -21.2992 -21.2868 -21.2866
   -19.4239 -19.4225 -19.4208 -19.4195 -19.2986 -19.2986 -19.2590 -19.2589
   -17.7711 -17.7708 -17.7585 -17.7581 -16.9098 -16.9094 -16.8971 -16.8967
   -16.7148 -16.7148 -16.6998 -16.6998 -15.5947 -15.5946 -15.5832 -15.5831
   -11.1762 -11.1761 -11.1271 -11.1271 -10.7956 -10.7955 -10.7546 -10.7545
   -10.0832 -10.0830 -10.0369 -10.0367  -9.9763  -9.9763  -9.9576  -9.9575
    -7.9128  -7.9128  -7.8637  -7.8637  -7.6161  -7.6160  -7.4766  -7.4765
    -6.8293  -6.8291  -6.7031  -6.7030  -6.5881  -6.5879  -6.4146  -6.4145
    -6.2399  -6.2396  -6.1107  -6.1107  -6.0647  -6.0647  -5.9242  -5.9242
    -5.5325  -5.5322  -5.3479  -5.3477  -5.2119  -5.2117  -5.1309  -5.1305
    -4.9856  -4.9854  -4.8412  -4.8411  -4.7464  -4.7461  -4.7059  -4.7059
    -4.3132  -4.3132  -4.1707  -4.1706  -3.9684  -3.9682  -3.8712  -3.8707
    -3.7444  -3.7440  -3.5375  -3.5374  -3.4424  -3.4424  -3.3719  -3.3719
    -3.3110  -3.3109  -3.0729  -3.0723  -2.9291  -2.9289  -2.8967  -2.8961
    -2.8391  -2.8386  -2.6984  -2.6980  -2.6116  -2.6114  -2.5181  -2.5177
    -2.3871  -2.3869  -2.0099  -2.0098  -2.0044  -2.0043  -1.8207  -1.8207
    -1.1421  -1.1416  -0.9137  -0.9133  -0.6963  -0.6963  -0.5165  -0.5164
    -0.1725  -0.1724  -0.0630  -0.0629   0.0046   0.0047   0.0859   0.0859
     0.3731   0.3732   0.5429   0.5429   0.5595   0.5597   0.6474   0.6475
     0.7044   0.7045   0.8026   0.8028   0.8930   0.8930   1.0727   1.0727
     5.0000   5.0001   5.1498   5.1500   5.2713   5.2716   5.3648   5.3649
     5.5589   5.5592   5.6771   5.6772   5.8443   5.8448   6.2027   6.2028
     7.6306   7.6310   7.8617   7.8620   8.0298   8.0298   8.1608   8.1610
     8.2086   8.2088   8.5921   8.5923   8.7645   8.7647   8.9777   8.9778

          k = 0.0000-0.3938-0.3883 ( 98324 PWs)   bands (ev):

   -21.5251 -21.5251 -21.5020 -21.5020 -21.2954 -21.2954 -21.2903 -21.2903
   -19.4242 -19.4242 -19.4189 -19.4189 -19.2994 -19.2994 -19.2583 -19.2583
   -17.7724 -17.7724 -17.7571 -17.7571 -16.9096 -16.9096 -16.8945 -16.8945
   -16.7178 -16.7178 -16.6989 -16.6989 -15.5947 -15.5947 -15.5834 -15.5834
   -11.1762 -11.1762 -11.1272 -11.1272 -10.7821 -10.7821 -10.7627 -10.7627
   -10.1018 -10.1018 -10.0420 -10.0420 -10.0006 -10.0006  -9.9174  -9.9174
    -7.9068  -7.9068  -7.8573  -7.8573  -7.5943  -7.5943  -7.5121  -7.5121
    -6.8315  -6.8315  -6.7337  -6.7337  -6.4834  -6.4834  -6.4760  -6.4760
    -6.2297  -6.2297  -6.1028  -6.1028  -6.0511  -6.0511  -5.9774  -5.9774
    -5.5121  -5.5121  -5.3387  -5.3387  -5.1403  -5.1403  -5.0924  -5.0924
    -4.9800  -4.9800  -4.9306  -4.9306  -4.7661  -4.7661  -4.7381  -4.7381
    -4.2340  -4.2340  -4.1566  -4.1566  -4.0525  -4.0525  -3.8890  -3.8890
    -3.8012  -3.8012  -3.5653  -3.5653  -3.4425  -3.4425  -3.3446  -3.3446
    -3.2903  -3.2902  -3.1819  -3.1819  -2.8688  -2.8688  -2.8308  -2.8308
    -2.7799  -2.7799  -2.6911  -2.6911  -2.6322  -2.6322  -2.5451  -2.5451
    -2.2639  -2.2639  -2.1170  -2.1170  -1.9898  -1.9898  -1.8333  -1.8333
    -1.0719  -1.0719  -1.0046  -1.0046  -0.6482  -0.6482  -0.5254  -0.5253
    -0.1680  -0.1680  -0.1042  -0.1042   0.0168   0.0168   0.1295   0.1295
     0.3694   0.3694   0.5371   0.5371   0.6021   0.6021   0.6066   0.6066
     0.7019   0.7019   0.7904   0.7904   0.8680   0.8680   1.0950   1.0950
     5.0606   5.0606   5.1116   5.1116   5.2739   5.2740   5.3114   5.3114
     5.5828   5.5828   5.6685   5.6685   5.8255   5.8255   6.2131   6.2131
     7.6902   7.6902   7.8236   7.8236   7.9604   7.9604   8.2847   8.2847
     8.3172   8.3172   8.4780   8.4780   8.7113   8.7113   8.9057   8.9057

          k = 0.3333 0.0000 0.0000 ( 98276 PWs)   bands (ev):

   -21.5287 -21.5121 -21.5119 -21.4996 -21.3008 -21.2981 -21.2875 -21.2865
   -19.4316 -19.4282 -19.4165 -19.4124 -19.2928 -19.2837 -19.2721 -19.2662
   -17.7811 -17.7764 -17.7543 -17.7490 -16.9131 -16.9087 -16.8970 -16.8864
   -16.7194 -16.7117 -16.7061 -16.6934 -15.6087 -15.5881 -15.5872 -15.5713
   -11.1917 -11.1706 -11.1417 -11.1354 -10.8311 -10.7731 -10.7648 -10.7449
   -10.0762 -10.0726 -10.0419 -10.0369  -9.9897  -9.9841  -9.9338  -9.8993
    -7.9166  -7.8909  -7.8515  -7.8283  -7.6482  -7.6112  -7.5433  -7.5124
    -6.7813  -6.7807  -6.7356  -6.7033  -6.6319  -6.6306  -6.4693  -6.3864
    -6.2611  -6.1638  -6.1083  -6.0733  -6.0174  -5.9720  -5.9528  -5.9210
    -5.5282  -5.5055  -5.4777  -5.3804  -5.2215  -5.2069  -5.1032  -5.0966
    -5.0453  -5.0157  -4.9311  -4.8992  -4.8167  -4.8057  -4.6982  -4.6605
    -4.2541  -4.2309  -4.2123  -4.0917  -3.9072  -3.9053  -3.8469  -3.7787
    -3.7235  -3.7010  -3.6618  -3.6142  -3.4720  -3.4708  -3.4148  -3.3372
    -3.2826  -3.2710  -3.0885  -3.0620  -3.0088  -2.9320  -2.9217  -2.8755
    -2.7954  -2.7914  -2.7113  -2.6979  -2.6244  -2.6137  -2.6027  -2.5339
    -2.3109  -2.1707  -2.1485  -2.0464  -1.9991  -1.9738  -1.8384  -1.8037
    -1.1754  -1.1745  -0.9147  -0.8776  -0.7011  -0.6774  -0.5397  -0.5116
    -0.1880  -0.1714  -0.1242  -0.0682  -0.0005   0.0347   0.0789   0.0995
     0.4038   0.4099   0.4747   0.5420   0.6102   0.6289   0.6622   0.6685
     0.6931   0.7302   0.7512   0.8009   0.9091   0.9744   0.9878   0.9943
     4.9863   5.0086   5.1404   5.1537   5.2474   5.2891   5.3301   5.3552
     5.6529   5.6654   5.6773   5.7412   5.8581   5.8937   6.0912   6.1271
     7.5157   7.5575   7.7953   7.9315   7.9737   8.1159   8.1546   8.2014
     8.2369   8.2984   8.5559   8.5964   8.6954   8.8497   8.8915   9.0457

          k = 0.3333 0.0000-0.3883 ( 98340 PWs)   bands (ev):

   -21.5205 -21.5205 -21.5060 -21.5060 -21.2939 -21.2939 -21.2922 -21.2922
   -19.4242 -19.4242 -19.4202 -19.4202 -19.2883 -19.2883 -19.2692 -19.2692
   -17.7654 -17.7654 -17.7650 -17.7650 -16.9050 -16.9050 -16.8970 -16.8970
   -16.7155 -16.7155 -16.7003 -16.7003 -15.5980 -15.5980 -15.5797 -15.5797
   -11.1814 -11.1814 -11.1387 -11.1387 -10.7981 -10.7981 -10.7566 -10.7566
   -10.0733 -10.0733 -10.0612 -10.0611  -9.9449  -9.9449  -9.9434  -9.9434
    -7.8800  -7.8800  -7.8577  -7.8577  -7.5999  -7.5999  -7.5655  -7.5655
    -6.7692  -6.7692  -6.7525  -6.7525  -6.5424  -6.5423  -6.5019  -6.5019
    -6.1644  -6.1644  -6.0801  -6.0801  -6.0373  -6.0373  -5.9492  -5.9492
    -5.4917  -5.4917  -5.4394  -5.4393  -5.1462  -5.1462  -5.1262  -5.1262
    -4.9549  -4.9549  -4.9494  -4.9494  -4.7889  -4.7889  -4.7524  -4.7524
    -4.2847  -4.2847  -4.2371  -4.2371  -3.9174  -3.9174  -3.8669  -3.8669
    -3.6383  -3.6383  -3.6209  -3.6209  -3.4081  -3.4081  -3.4054  -3.4054
    -3.2479  -3.2479  -3.1668  -3.1668  -2.9008  -2.9008  -2.8527  -2.8527
    -2.8159  -2.8159  -2.7559  -2.7559  -2.5905  -2.5905  -2.5650  -2.5650
    -2.1963  -2.1963  -2.0883  -2.0883  -1.9297  -1.9297  -1.9250  -1.9250
    -1.0592  -1.0592  -1.0466  -1.0466  -0.5946  -0.5946  -0.5618  -0.5618
    -0.1493  -0.1493  -0.1312  -0.1312   0.0498   0.0498   0.0616   0.0616
     0.4654   0.4654   0.4695   0.4695   0.5831   0.5831   0.6411   0.6411
     0.7341   0.7341   0.7749   0.7749   0.9496   0.9496   0.9955   0.9955
     5.0820   5.0820   5.0970   5.0970   5.2544   5.2544   5.2861   5.2861
     5.6770   5.6770   5.7035   5.7035   5.8712   5.8712   6.1127   6.1127
     7.6757   7.6757   7.7015   7.7015   8.0606   8.0606   8.1776   8.1776
     8.3606   8.3606   8.4773   8.4773   8.7644   8.7644   9.1317   9.1317

          k = 0.3333-0.3938 0.0000 ( 98358 PWs)   bands (ev):

   -21.5226 -21.5219 -21.5043 -21.5035 -21.2996 -21.2994 -21.2871 -21.2869
   -19.4306 -19.4278 -19.4169 -19.4141 -19.2884 -19.2884 -19.2686 -19.2685
   -17.7725 -17.7721 -17.7582 -17.7578 -16.9101 -16.9097 -16.8940 -16.8936
   -16.7122 -16.7121 -16.7024 -16.7024 -15.5917 -15.5917 -15.5859 -15.5858
   -11.1740 -11.1740 -11.1484 -11.1483 -10.7937 -10.7936 -10.7608 -10.7607
   -10.0821 -10.0819 -10.0295 -10.0293  -9.9733  -9.9731  -9.9328  -9.9326
    -7.8841  -7.8841  -7.8590  -7.8590  -7.6325  -7.6324  -7.5254  -7.5254
    -6.7921  -6.7919  -6.7133  -6.7133  -6.6116  -6.6114  -6.4176  -6.4175
    -6.2015  -6.2012  -6.1009  -6.1007  -6.0463  -6.0462  -5.9562  -5.9562
    -5.5257  -5.5253  -5.4121  -5.4120  -5.1999  -5.1999  -5.0913  -5.0911
    -5.0549  -5.0547  -4.8708  -4.8706  -4.7762  -4.7760  -4.6802  -4.6801
    -4.2701  -4.2699  -4.1560  -4.1558  -3.9295  -3.9289  -3.8311  -3.8307
    -3.7195  -3.7193  -3.5357  -3.5356  -3.4861  -3.4859  -3.3834  -3.3833
    -3.3328  -3.3324  -3.0632  -3.0625  -2.9779  -2.9778  -2.8932  -2.8927
    -2.7937  -2.7934  -2.6801  -2.6798  -2.6278  -2.6276  -2.5813  -2.5810
    -2.2805  -2.2803  -2.1179  -2.1177  -1.9127  -1.9126  -1.8376  -1.8375
    -1.1716  -1.1711  -0.8857  -0.8852  -0.6993  -0.6992  -0.5296  -0.5294
    -0.1679  -0.1678  -0.1029  -0.1028   0.0329   0.0330   0.0767   0.0767
     0.3871   0.3875   0.4916   0.4918   0.6297   0.6297   0.6775   0.6776
     0.6868   0.6868   0.7793   0.7795   0.9284   0.9285   1.0332   1.0333
     4.9891   4.9893   5.1300   5.1302   5.2961   5.2965   5.3485   5.3486
     5.6329   5.6332   5.7124   5.7127   5.8952   5.8954   6.1134   6.1136
     7.5654   7.5659   7.7576   7.7579   8.0468   8.0470   8.2185   8.2188
     8.3327   8.3328   8.5254   8.5256   8.7339   8.7341   8.9834   8.9836

          k = 0.3333-0.3938-0.3883 ( 98288 PWs)   bands (ev):

   -21.5192 -21.5192 -21.5073 -21.5073 -21.2953 -21.2953 -21.2909 -21.2909
   -19.4246 -19.4246 -19.4204 -19.4204 -19.2894 -19.2894 -19.2674 -19.2674
   -17.7728 -17.7728 -17.7575 -17.7575 -16.9092 -16.9092 -16.8936 -16.8936
   -16.7141 -16.7141 -16.7011 -16.7011 -15.5923 -15.5923 -15.5854 -15.5854
   -11.1756 -11.1756 -11.1466 -11.1466 -10.7825 -10.7825 -10.7701 -10.7701
   -10.0780 -10.0780 -10.0347 -10.0347  -9.9873  -9.9873  -9.9231  -9.9231
    -7.8832  -7.8832  -7.8519  -7.8519  -7.6022  -7.6022  -7.5627  -7.5627
    -6.7865  -6.7864  -6.7386  -6.7386  -6.5368  -6.5368  -6.4805  -6.4805
    -6.1782  -6.1782  -6.0923  -6.0923  -6.0257  -6.0257  -5.9872  -5.9872
    -5.5376  -5.5376  -5.4098  -5.4098  -5.1637  -5.1637  -5.0651  -5.0651
    -4.9975  -4.9974  -4.8793  -4.8793  -4.7811  -4.7811  -4.7601  -4.7601
    -4.3304  -4.3304  -4.1794  -4.1794  -3.9559  -3.9559  -3.8391  -3.8391
    -3.6931  -3.6931  -3.5694  -3.5694  -3.4769  -3.4769  -3.3648  -3.3648
    -3.2448  -3.2448  -3.1840  -3.1840  -2.8970  -2.8970  -2.8617  -2.8617
    -2.7932  -2.7932  -2.7074  -2.7074  -2.6309  -2.6309  -2.5688  -2.5688
    -2.1992  -2.1992  -2.1192  -2.1192  -1.9844  -1.9844  -1.8435  -1.8435
    -1.0712  -1.0712  -1.0267  -1.0267  -0.6135  -0.6135  -0.5538  -0.5538
    -0.1630  -0.1630  -0.1284  -0.1284   0.0138   0.0138   0.1398   0.1398
     0.4069   0.4069   0.4827   0.4827   0.5911   0.5911   0.6511   0.6511
     0.7157   0.7157   0.7793   0.7793   0.8995   0.8995   1.0596   1.0596
     5.0487   5.0487   5.1081   5.1081   5.2724   5.2724   5.3038   5.3039
     5.6407   5.6407   5.7033   5.7033   5.8991   5.8991   6.1177   6.1177
     7.5987   7.5987   7.8099   7.8099   7.9422   7.9422   8.2902   8.2902
     8.3968   8.3968   8.5158   8.5158   8.6981   8.6981   8.9521   8.9521

     highest occupied, lowest unoccupied level (ev):     1.0950    4.9816

!    total energy              =   -1714.26302580 Ry
     Harris-Foulkes estimate   =   -1714.26302581 Ry
     estimated scf accuracy    <          3.6E-09 Ry

     total all-electron energy =     -6363.317113 Ry

     The total energy is the sum of the following terms:

     one-electron contribution =    -917.64760680 Ry
     hartree contribution      =     591.70867692 Ry
     xc contribution           =    -348.33422679 Ry
     ewald contribution        =    -585.08323567 Ry
     Dispersion Correction     =      -0.44231645 Ry
     one-center paw contrib.   =    -454.46431701 Ry

     convergence has been achieved in  17 iterations

     Forces acting on atoms (cartesian axes, Ry/au):

     atom    1 type  2   force =    -0.00045811   -0.00055343   -0.00004226
     atom    2 type  2   force =     0.00045924    0.00055449   -0.00004028
     atom    3 type  2   force =     0.00051571   -0.00059637    0.00000091
     atom    4 type  2   force =    -0.00051470    0.00059542   -0.00000071
     atom    5 type  1   force =    -0.00004225    0.00011598    0.00017389
     atom    6 type  1   force =     0.00004372   -0.00011530    0.00015956
     atom    7 type  1   force =    -0.00026063    0.00030692   -0.00050464
     atom    8 type  1   force =     0.00026199   -0.00030800   -0.00049031
     atom    9 type  3   force =     0.00001893   -0.00023192   -0.00010066
     atom   10 type  3   force =    -0.00001910    0.00023175   -0.00010060
     atom   11 type  3   force =     0.00006124   -0.00029059   -0.00007337
     atom   12 type  3   force =    -0.00006142    0.00029071   -0.00007340
     atom   13 type  2   force =     0.00001325   -0.00005064   -0.00052428
     atom   14 type  2   force =    -0.00001213    0.00005198   -0.00052405
     atom   15 type  2   force =     0.00002030   -0.00006343   -0.00050928
     atom   16 type  2   force =    -0.00001901    0.00006166   -0.00050911
     atom   17 type  4   force =    -0.00013414    0.00017720   -0.00021040
     atom   18 type  4   force =     0.00013510   -0.00017644   -0.00020740
     atom   19 type  4   force =     0.00027217    0.00003325   -0.00022285
     atom   20 type  4   force =    -0.00027095   -0.00003418   -0.00022584
     atom   21 type  1   force =     0.00042263   -0.00037101    0.00066729
     atom   22 type  1   force =    -0.00042320    0.00037146    0.00066110
     atom   23 type  1   force =    -0.00061219   -0.00033725    0.00061798
     atom   24 type  1   force =     0.00061191    0.00033707    0.00062470
     atom   25 type  3   force =     0.00031407    0.00011117   -0.00051410
     atom   26 type  3   force =    -0.00031414   -0.00011097   -0.00051408
     atom   27 type  3   force =    -0.00029734    0.00010587   -0.00050606
     atom   28 type  3   force =     0.00029735   -0.00010619   -0.00050588
     atom   29 type  3   force =     0.00020241   -0.00053896    0.00002435
     atom   30 type  3   force =    -0.00020219    0.00053868    0.00002455
     atom   31 type  3   force =    -0.00017291   -0.00054651    0.00003480
     atom   32 type  3   force =     0.00017302    0.00054655    0.00003449
     atom   33 type  4   force =     0.00015289    0.00031456    0.00031514
     atom   34 type  4   force =    -0.00015292   -0.00031454    0.00031551
     atom   35 type  4   force =    -0.00012574    0.00032004    0.00030322
     atom   36 type  4   force =     0.00012615   -0.00032022    0.00030214
     atom   37 type  1   force =     0.00044340    0.00047309   -0.00030378
     atom   38 type  1   force =    -0.00044417   -0.00047357   -0.00027181
     atom   39 type  1   force =    -0.00053558    0.00050079   -0.00023020
     atom   40 type  1   force =     0.00053457   -0.00049999   -0.00026195
     atom   41 type  3   force =     0.00034212   -0.00024235    0.00003401
     atom   42 type  3   force =    -0.00034206    0.00024239    0.00003413
     atom   43 type  3   force =    -0.00032258   -0.00024527    0.00003476
     atom   44 type  3   force =     0.00032263    0.00024512    0.00003456
     atom   45 type  3   force =    -0.00001075    0.00000815   -0.00004963
     atom   46 type  3   force =     0.00001087   -0.00000853   -0.00004973
     atom   47 type  3   force =     0.00003332    0.00000008   -0.00005286
     atom   48 type  3   force =    -0.00003323    0.00000040   -0.00005289
     atom   49 type  4   force =    -0.00011537    0.00001192    0.00013240
     atom   50 type  4   force =     0.00011458   -0.00001208    0.00013633
     atom   51 type  4   force =     0.00013293    0.00000625    0.00013371
     atom   52 type  4   force =    -0.00013352   -0.00000605    0.00013002
     atom   53 type  1   force =    -0.00040345   -0.00005047   -0.00116353
     atom   54 type  1   force =     0.00040234    0.00005075   -0.00116466
     atom   55 type  1   force =     0.00039309   -0.00005079   -0.00117278
     atom   56 type  1   force =    -0.00039390    0.00005072   -0.00117183
     atom   57 type  3   force =    -0.00035860    0.00027736    0.00058129
     atom   58 type  3   force =     0.00035852   -0.00027733    0.00058214
     atom   59 type  3   force =     0.00036700    0.00028813    0.00058129
     atom   60 type  3   force =    -0.00036728   -0.00028826    0.00058091
     atom   61 type  3   force =     0.00071917    0.00008731    0.00014094
     atom   62 type  3   force =    -0.00071910   -0.00008750    0.00014074
     atom   63 type  3   force =    -0.00070598    0.00009969    0.00015016
     atom   64 type  3   force =     0.00070583   -0.00009977    0.00014999
     atom   65 type  4   force =     0.00029916    0.00015105   -0.00061525
     atom   66 type  4   force =    -0.00029871   -0.00015075   -0.00061749
     atom   67 type  4   force =    -0.00028282    0.00015951   -0.00061971
     atom   68 type  4   force =     0.00028398   -0.00015860   -0.00061785
     atom   69 type  1   force =     0.00087403    0.00029874   -0.00007580
     atom   70 type  1   force =    -0.00087493   -0.00029916   -0.00009281
     atom   71 type  1   force =    -0.00105273    0.00046626   -0.00010833
     atom   72 type  1   force =     0.00105212   -0.00046560   -0.00009197
     atom   73 type  3   force =     0.00011240   -0.00028521    0.00043239
     atom   74 type  3   force =    -0.00011289    0.00028530    0.00043363
     atom   75 type  3   force =    -0.00008544   -0.00030238    0.00045630
     atom   76 type  3   force =     0.00008502    0.00030222    0.00045507
     atom   77 type  4   force =    -0.00093084   -0.00027020    0.00104892
     atom   78 type  4   force =     0.00093105    0.00026969    0.00104558
     atom   79 type  4   force =     0.00094997   -0.00027096    0.00104841
     atom   80 type  4   force =    -0.00094928    0.00027149    0.00105200
     atom   81 type  1   force =     0.00066374   -0.00001688   -0.00048933
     atom   82 type  1   force =    -0.00066408    0.00001725   -0.00051141
     atom   83 type  1   force =    -0.00074025    0.00001907   -0.00051028
     atom   84 type  1   force =     0.00074008   -0.00001942   -0.00048772
     atom   85 type  3   force =    -0.00048324   -0.00005542   -0.00013636
     atom   86 type  3   force =     0.00048336    0.00005549   -0.00013599
     atom   87 type  3   force =     0.00050265   -0.00005329   -0.00013745
     atom   88 type  3   force =    -0.00050260    0.00005307   -0.00013802
     atom   89 type  3   force =     0.00001491    0.00016101    0.00011052
     atom   90 type  3   force =    -0.00001502   -0.00016123    0.00011069
     atom   91 type  3   force =    -0.00000921    0.00016155    0.00010798
     atom   92 type  3   force =     0.00000911   -0.00016160    0.00010788
     atom   93 type  4   force =    -0.00011954   -0.00017623    0.00058156
     atom   94 type  4   force =     0.00011788    0.00017532    0.00057493
     atom   95 type  4   force =     0.00029741   -0.00028781    0.00116047
     atom   96 type  4   force =    -0.00029909    0.00028868    0.00116763

     Total force =     0.007013     Total SCF correction =     0.000128


     Computing stress (Cartesian axis) and pressure

          total   stress  (Ry/bohr**3)                   (kbar)     P=   -1.88
  -0.00000925  -0.00000013   0.00000000         -1.36     -0.02      0.00
  -0.00000013  -0.00001279  -0.00000000         -0.02     -1.88     -0.00
   0.00000000  -0.00000000  -0.00001631          0.00     -0.00     -2.40


     Writing output data file scf.save
 
     init_run     :     34.03s CPU     36.12s WALL (       1 calls)
     electrons    :   1279.29s CPU   1345.76s WALL (       1 calls)
     forces       :     16.01s CPU     16.22s WALL (       1 calls)
     stress       :    114.47s CPU    114.82s WALL (       1 calls)

     Called by init_run:
     wfcinit      :     27.97s CPU     29.76s WALL (       1 calls)
     potinit      :      2.19s CPU      2.25s WALL (       1 calls)

     Called by electrons:
     c_bands      :   1137.28s CPU   1193.77s WALL (      17 calls)
     sum_band     :    127.97s CPU    136.43s WALL (      17 calls)
     v_of_rho     :      1.96s CPU      2.16s WALL (      18 calls)
     newd         :      4.00s CPU      5.20s WALL (      18 calls)
     PAW_pot      :      7.33s CPU      7.36s WALL (      18 calls)
     mix_rho      :      0.52s CPU      0.58s WALL (      17 calls)

     Called by c_bands:
     init_us_2    :      9.50s CPU      9.54s WALL (     296 calls)
     cegterg      :   1103.10s CPU   1159.52s WALL (     136 calls)

     Called by sum_band:
     sum_band:bec :      0.09s CPU      0.09s WALL (     136 calls)
     addusdens    :      4.28s CPU      5.46s WALL (      17 calls)

     Called by *egterg:
     h_psi        :    649.63s CPU    693.66s WALL (     536 calls)
     s_psi        :    110.00s CPU    110.02s WALL (     536 calls)
     g_psi        :      4.67s CPU      4.67s WALL (     392 calls)
     cdiaghg      :     68.47s CPU     68.73s WALL (     528 calls)

     Called by h_psi:
     h_psi:pot    :    644.22s CPU    688.17s WALL (     536 calls)
     h_psi:calbec :    107.10s CPU    107.40s WALL (     536 calls)
     vloc_psi     :    427.21s CPU    470.83s WALL (     536 calls)
     add_vuspsi   :    109.91s CPU    109.94s WALL (     536 calls)

     General routines
     calbec       :    155.93s CPU    156.33s WALL (     712 calls)
     fft          :      1.25s CPU      1.75s WALL (     258 calls)
     fftw         :    463.33s CPU    511.06s WALL (  171948 calls)
 
     Parallel routines
     fft_scatter  :     90.69s CPU    129.97s WALL (  172206 calls)
 
     PWSCF        : 24m14.50s CPU    26m24.57s WALL

 
   This run was terminated on:  19: 7:13   5Nov2017            

=------------------------------------------------------------------------------=
   JOB DONE.
=------------------------------------------------------------------------------=
