
     Program PWSCF v.6.1 (svn rev. 13369) starts on 14Dec2017 at 17:49:16 

     This program is part of the open-source Quantum ESPRESSO suite
     for quantum simulation of materials; please cite
         "P. Giannozzi et al., J. Phys.:Condens. Matter 21 395502 (2009);
          URL http://www.quantum-espresso.org", 
     in publications or presentations arising from this work. More details at
     http://www.quantum-espresso.org/quote

     Parallel version (MPI), running on     8 processors
     R & G space division:  proc/nbgrp/npool/nimage =       8
     Waiting for input...
     Reading input from standard input

     Current dimensions of program PWSCF are:
     Max number of different atomic species (ntypx) = 10
     Max number of k-points (npk) =  40000
     Max angular momentum in pseudopotentials (lmaxx) =  3
               file C.pbe-n-kjpaw_psl.0.1.UPF: wavefunction(s)  2P renormalized
               file N.pbe-n-kjpaw_psl.0.1.UPF: wavefunction(s)  2P renormalized
               file H.pbe-kjpaw_psl.0.1.UPF: wavefunction(s)  1S renormalized
               file O.pbe-n-kjpaw_psl.0.1.UPF: wavefunction(s)  2P renormalized

     -------------------------------------
     Parameters for Dispersion Correction:
     -------------------------------------
       atom      VdW radius       C_6     

        C          2.744         60.710
        N          2.640         42.670
        H          1.892          4.857
        O          2.536         24.284

     Subspace diagonalization in iterative solution of the eigenvalue problem:
     a serial algorithm will be used

 
     Parallelization info
     --------------------
     sticks:   dense  smooth     PW     G-vecs:    dense   smooth      PW
     Min         734     734    194                64080    64080    8794
     Max         735     735    195                64082    64082    8799
     Sum        5879    5879   1557               512649   512649   70379
 


     bravais-lattice index     =            0
     lattice parameter (alat)  =      16.4416  a.u.
     unit-cell volume          =    3794.6444 (a.u.)^3
     number of atoms/cell      =           64
     number of atomic types    =            4
     number of electrons       =       196.00
     number of Kohn-Sham states=          117
     kinetic-energy cutoff     =     100.0000  Ry
     charge density cutoff     =     400.0000  Ry
     convergence threshold     =      1.0E-08
     mixing beta               =       0.5000
     number of iterations used =            8  plain     mixing
     Exchange-correlation      =  SLA  PW   PBX  PBC ( 1  4  3  4 0 0)

     celldm(1)=  16.441562  celldm(2)=   0.000000  celldm(3)=   0.000000
     celldm(4)=   0.000000  celldm(5)=   0.000000  celldm(6)=   0.000000

     crystal axes: (cart. coord. in units of alat)
               a(1) = (   1.000000   0.000000   0.000000 )  
               a(2) = (   0.000000   0.681926   0.000000 )  
               a(3) = (  -0.101833   0.000000   1.252000 )  

     reciprocal axes: (cart. coord. in units 2 pi/alat)
               b(1) = (  1.000000  0.000000  0.081336 )  
               b(2) = (  0.000000  1.466434  0.000000 )  
               b(3) = (  0.000000  0.000000  0.798722 )  


     PseudoPot. # 1 for  C read from file:
     /scratch/ahofstet/pseudo/C.pbe-n-kjpaw_psl.0.1.UPF
     MD5 check sum: 430fe95172b1e11ef3f8ed03bac87931
     Pseudo is Projector augmented-wave + core cor, Zval =  4.0
     Generated using "atomic" code by A. Dal Corso  v.5.0.99 svn rev. 10869
     Shape of augmentation charge: BESSEL
     Using radial grid of 1073 points,  4 beta functions with: 
                l(1) =   0
                l(2) =   0
                l(3) =   1
                l(4) =   1
     Q(r) pseudized with 0 coefficients 


     PseudoPot. # 2 for  N read from file:
     /scratch/ahofstet/pseudo/N.pbe-n-kjpaw_psl.0.1.UPF
     MD5 check sum: f73187c8b701007e77325f868c9291d7
     Pseudo is Projector augmented-wave + core cor, Zval =  5.0
     Generated using "atomic" code by A. Dal Corso  v.5.0.99 svn rev. 10869
     Shape of augmentation charge: PSQ
     Using radial grid of 1085 points,  4 beta functions with: 
                l(1) =   0
                l(2) =   0
                l(3) =   1
                l(4) =   1
     Q(r) pseudized with 0 coefficients 


     PseudoPot. # 3 for  H read from file:
     /scratch/ahofstet/pseudo/H.pbe-kjpaw_psl.0.1.UPF
     MD5 check sum: 94e484f906d9e9773b2f6e52662335b2
     Pseudo is Projector augmented-wave, Zval =  1.0
     Generated using "atomic" code by A. Dal Corso  v.5.0.99 svn rev. 10869
     Shape of augmentation charge: PSQ
     Using radial grid of  929 points,  2 beta functions with: 
                l(1) =   0
                l(2) =   0
     Q(r) pseudized with 0 coefficients 


     PseudoPot. # 4 for  O read from file:
     /scratch/ahofstet/pseudo/O.pbe-n-kjpaw_psl.0.1.UPF
     MD5 check sum: 3f94a2996a3169367d6eb21d9b593f20
     Pseudo is Projector augmented-wave + core cor, Zval =  6.0
     Generated using "atomic" code by A. Dal Corso  v.5.0.99 svn rev. 10869
     Shape of augmentation charge: BESSEL
     Using radial grid of 1095 points,  4 beta functions with: 
                l(1) =   0
                l(2) =   0
                l(3) =   1
                l(4) =   1
     Q(r) pseudized with 0 coefficients 


     atomic species   valence    mass     pseudopotential
        C              4.00    12.01070      C( 1.00)
        N              5.00    14.00670      N( 1.00)
        H              1.00     1.00794      H( 1.00)
        O              6.00    15.99940      O( 1.00)

      2 Sym. Ops. (no inversion) found ( 1 have fractional translation)



   Cartesian axes

     site n.     atom                  positions (alat units)
         1           O   tau(   1) = (   0.1860417   0.1098243   0.1157617  )
         2           O   tau(   2) = (   0.7121250   0.4507875   1.1362385  )
         3           H   tau(   3) = (   0.2528888   0.1969427   0.1503773  )
         4           H   tau(   4) = (   0.6452779   0.5379059   1.1016229  )
         5           O   tau(   5) = (   0.0724936   0.1955632   0.0267328  )
         6           O   tau(   6) = (   0.8256731   0.5365263   1.2252673  )
         7           H   tau(   7) = (   0.9956778   0.2245788   0.1060925  )
         8           H   tau(   8) = (  -0.0975111   0.5655419   1.1459077  )
         9           O   tau(   9) = (   0.6149616   0.1634195   1.1304448  )
        10           O   tau(  10) = (   0.2832051   0.5043827   0.1215553  )
        11           H   tau(  11) = (   0.7063031   0.1935213   1.0690964  )
        12           H   tau(  12) = (   0.1918637   0.5344844   0.1829038  )
        13           O   tau(  13) = (   0.5676273   0.0237455   1.0481692  )
        14           O   tau(  14) = (   0.3305394   0.3647086   0.2038310  )
        15           H   tau(  15) = (   0.4532195   0.0396184   1.0400398  )
        16           H   tau(  16) = (   0.4449473   0.3805815   0.2119604  )
        17           N   tau(  17) = (   0.7447593  -0.0012347   0.1938282  )
        18           N   tau(  18) = (   0.1534074   0.3397285   1.0581720  )
        19           H   tau(  19) = (   0.6968117   0.5649892   0.2057020  )
        20           H   tau(  20) = (   0.2013551   0.2240260   1.0462982  )
        21           H   tau(  21) = (   0.7960170   0.0038070   0.0859461  )
        22           H   tau(  22) = (   0.1021497   0.3447702   1.1660540  )
        23           H   tau(  23) = (   0.8349681   0.0046411   0.2711468  )
        24           H   tau(  24) = (   0.0631986   0.3456043   0.9808534  )
        25           O   tau(  25) = (   0.8723386   0.1816599   0.9264459  )
        26           O   tau(  26) = (   0.0258282   0.5226231   0.3255543  )
        27           O   tau(  27) = (   0.6351010   0.3984370   0.2239613  )
        28           O   tau(  28) = (   0.2630657   0.0574738   1.0280389  )
        29           O   tau(  29) = (   0.8631463   0.2795969   0.2459921  )
        30           O   tau(  30) = (   0.0350204   0.6205601   1.0060081  )
        31           C   tau(  31) = (   0.7195347   0.2799055   0.2286979  )
        32           C   tau(  32) = (   0.1786320   0.6208687   1.0233022  )
        33           C   tau(  33) = (   0.6346496   0.1239908   0.2200966  )
        34           C   tau(  34) = (   0.2635172   0.4649540   1.0319036  )
        35           H   tau(  35) = (   0.5556949   0.1269494   0.1218602  )
        36           H   tau(  36) = (   0.3424718   0.4679126   1.1301399  )
        37           C   tau(  37) = (   0.5437539   0.0912368   0.3684414  )
        38           C   tau(  38) = (   0.3544129   0.4321999   0.8835588  )
        39           H   tau(  39) = (   0.4432889   0.1676184   0.3709030  )
        40           H   tau(  40) = (   0.4548779   0.5085816   0.8810972  )
        41           H   tau(  41) = (   0.4997426   0.6547434   0.3581096  )
        42           H   tau(  42) = (   0.3984241   0.3137802   0.8938905  )
        43           C   tau(  43) = (   0.6340159   0.1111790   0.5150971  )
        44           C   tau(  44) = (   0.2641509   0.4521422   0.7369030  )
        45           C   tau(  45) = (   0.6080882   0.2409241   0.6068874  )
        46           C   tau(  46) = (   0.2900785   0.5818873   0.6451127  )
        47           H   tau(  47) = (   0.5211881   0.3246882   0.5725066  )
        48           H   tau(  48) = (   0.3769786   0.6656514   0.6794936  )
        49           C   tau(  49) = (   0.6897873   0.2645654   0.7425457  )
        50           C   tau(  50) = (   0.2083794   0.6055286   0.5094544  )
        51           H   tau(  51) = (   0.6674629   0.3642044   0.8147299  )
        52           H   tau(  52) = (   0.2307038   0.0232412   0.4372703  )
        53           C   tau(  53) = (   0.8001160   0.1569277   0.7886671  )
        54           C   tau(  54) = (   0.0980507   0.4978909   0.4633330  )
        55           C   tau(  55) = (   0.8300629   0.0279317   0.6974364  )
        56           C   tau(  56) = (   0.0681038   0.3688948   0.5545638  )
        57           H   tau(  57) = (   0.9156329   0.6256102   0.7331342  )
        58           H   tau(  58) = (  -0.0174661   0.2846470   0.5188660  )
        59           C   tau(  59) = (   0.7464113   0.6871747   0.5622556  )
        60           C   tau(  60) = (   0.1517554   0.3462115   0.6897446  )
        61           H   tau(  61) = (   0.7697518   0.5839475   0.4950864  )
        62           H   tau(  62) = (   0.1284149   0.2429844   0.7569138  )
        63           H   tau(  63) = (  -0.0628048   0.0900731   0.9558889  )
        64           H   tau(  64) = (   0.9609715   0.4310363   0.2961113  )

     number of k points=     8
                       cart. coord. in units 2pi/alat
        k(    1) = (   0.0000000   0.0000000   0.0000000), wk =   0.1666667
        k(    2) = (   0.0000000   0.0000000  -0.3993610), wk =   0.1666667
        k(    3) = (   0.0000000   0.4888114   0.0000000), wk =   0.3333333
        k(    4) = (   0.0000000   0.4888114  -0.3993610), wk =   0.3333333
        k(    5) = (  -0.5000000   0.0000000  -0.0406682), wk =   0.1666667
        k(    6) = (  -0.5000000   0.0000000  -0.4400292), wk =   0.1666667
        k(    7) = (  -0.5000000   0.4888114  -0.0406682), wk =   0.3333333
        k(    8) = (  -0.5000000   0.4888114  -0.4400292), wk =   0.3333333

     Dense  grid:   512649 G-vectors     FFT dimensions: ( 108,  72, 135)

     Estimated max dynamical RAM per process >     328.63MB

     Estimated total allocated dynamical RAM >    2629.07MB

     Check: negative/imaginary core charge=   -0.000002    0.000000

     Initial potential from superposition of free atoms

     starting charge  195.99893, renormalised to  196.00000
     Starting wfc are  166 randomized atomic wfcs
     Checking if some PAW data can be deallocated... 

     total cpu time spent up to now is       18.9 secs

     per-process dynamical memory:   285.9 Mb

     Self-consistent Calculation

     iteration #  1     ecut=   100.00 Ry     beta=0.50
     Davidson diagonalization with overlap
     ethr =  1.00E-02,  avg # of iterations =  3.5

     total cpu time spent up to now is       59.6 secs

     total energy              =   -1005.84721442 Ry
     Harris-Foulkes estimate   =   -1008.89877256 Ry
     estimated scf accuracy    <       5.86671998 Ry

     iteration #  2     ecut=   100.00 Ry     beta=0.50
     Davidson diagonalization with overlap
     ethr =  2.99E-03,  avg # of iterations =  2.9

     total cpu time spent up to now is       84.5 secs

     total energy              =   -1006.45147754 Ry
     Harris-Foulkes estimate   =   -1006.69640305 Ry
     estimated scf accuracy    <       0.59639888 Ry

     iteration #  3     ecut=   100.00 Ry     beta=0.50
     Davidson diagonalization with overlap
     ethr =  3.04E-04,  avg # of iterations =  7.5

     total cpu time spent up to now is      134.4 secs

     total energy              =   -1006.81646554 Ry
     Harris-Foulkes estimate   =   -1006.95736920 Ry
     estimated scf accuracy    <       0.35231480 Ry

     iteration #  4     ecut=   100.00 Ry     beta=0.50
     Davidson diagonalization with overlap
     ethr =  1.80E-04,  avg # of iterations =  1.6

     total cpu time spent up to now is      155.3 secs

     total energy              =   -1006.78099891 Ry
     Harris-Foulkes estimate   =   -1006.83690973 Ry
     estimated scf accuracy    <       0.09660775 Ry

     iteration #  5     ecut=   100.00 Ry     beta=0.50
     Davidson diagonalization with overlap
     ethr =  4.93E-05,  avg # of iterations =  6.8

     total cpu time spent up to now is      203.7 secs

     total energy              =   -1006.84943533 Ry
     Harris-Foulkes estimate   =   -1006.90773366 Ry
     estimated scf accuracy    <       0.16475927 Ry

     iteration #  6     ecut=   100.00 Ry     beta=0.50
     Davidson diagonalization with overlap
     ethr =  4.93E-05,  avg # of iterations =  2.5

     total cpu time spent up to now is      225.7 secs

     total energy              =   -1006.82753004 Ry
     Harris-Foulkes estimate   =   -1006.85551793 Ry
     estimated scf accuracy    <       0.06011490 Ry

     iteration #  7     ecut=   100.00 Ry     beta=0.50
     Davidson diagonalization with overlap
     ethr =  3.07E-05,  avg # of iterations =  6.2

     total cpu time spent up to now is      265.2 secs

     total energy              =   -1006.85252598 Ry
     Harris-Foulkes estimate   =   -1006.85329524 Ry
     estimated scf accuracy    <       0.00276213 Ry

     iteration #  8     ecut=   100.00 Ry     beta=0.50
     Davidson diagonalization with overlap
     ethr =  1.41E-06,  avg # of iterations =  2.0

     total cpu time spent up to now is      287.4 secs

     total energy              =   -1006.85220650 Ry
     Harris-Foulkes estimate   =   -1006.85272894 Ry
     estimated scf accuracy    <       0.00108782 Ry

     iteration #  9     ecut=   100.00 Ry     beta=0.50
     Davidson diagonalization with overlap
     ethr =  5.55E-07,  avg # of iterations =  5.1

     total cpu time spent up to now is      323.3 secs

     total energy              =   -1006.85265499 Ry
     Harris-Foulkes estimate   =   -1006.85270240 Ry
     estimated scf accuracy    <       0.00015454 Ry

     iteration # 10     ecut=   100.00 Ry     beta=0.50
     Davidson diagonalization with overlap
     ethr =  7.88E-08,  avg # of iterations =  1.9

     total cpu time spent up to now is      344.3 secs

     total energy              =   -1006.85263489 Ry
     Harris-Foulkes estimate   =   -1006.85266319 Ry
     estimated scf accuracy    <       0.00005765 Ry

     iteration # 11     ecut=   100.00 Ry     beta=0.50
     Davidson diagonalization with overlap
     ethr =  2.94E-08,  avg # of iterations =  3.6

     total cpu time spent up to now is      378.9 secs

     total energy              =   -1006.85266504 Ry
     Harris-Foulkes estimate   =   -1006.85266595 Ry
     estimated scf accuracy    <       0.00001219 Ry

     iteration # 12     ecut=   100.00 Ry     beta=0.50
     Davidson diagonalization with overlap
     ethr =  6.22E-09,  avg # of iterations =  1.2

     total cpu time spent up to now is      399.5 secs

     total energy              =   -1006.85266125 Ry
     Harris-Foulkes estimate   =   -1006.85266558 Ry
     estimated scf accuracy    <       0.00000970 Ry

     iteration # 13     ecut=   100.00 Ry     beta=0.50
     Davidson diagonalization with overlap
     ethr =  4.95E-09,  avg # of iterations =  3.8

     total cpu time spent up to now is      425.2 secs

     total energy              =   -1006.85266280 Ry
     Harris-Foulkes estimate   =   -1006.85266305 Ry
     estimated scf accuracy    <       0.00000051 Ry

     iteration # 14     ecut=   100.00 Ry     beta=0.50
     Davidson diagonalization with overlap
     ethr =  2.60E-10,  avg # of iterations =  4.0

     total cpu time spent up to now is      462.8 secs

     total energy              =   -1006.85266308 Ry
     Harris-Foulkes estimate   =   -1006.85266320 Ry
     estimated scf accuracy    <       0.00000030 Ry

     iteration # 15     ecut=   100.00 Ry     beta=0.50
     Davidson diagonalization with overlap
     ethr =  1.55E-10,  avg # of iterations =  1.0

     total cpu time spent up to now is      483.5 secs

     total energy              =   -1006.85266305 Ry
     Harris-Foulkes estimate   =   -1006.85266309 Ry
     estimated scf accuracy    <       0.00000008 Ry

     iteration # 16     ecut=   100.00 Ry     beta=0.50
     Davidson diagonalization with overlap
     ethr =  4.05E-11,  avg # of iterations =  4.0

     total cpu time spent up to now is      522.8 secs

     total energy              =   -1006.85266311 Ry
     Harris-Foulkes estimate   =   -1006.85266314 Ry
     estimated scf accuracy    <       0.00000008 Ry

     iteration # 17     ecut=   100.00 Ry     beta=0.50
     Davidson diagonalization with overlap
     ethr =  4.05E-11,  avg # of iterations =  1.0

     total cpu time spent up to now is      543.4 secs

     total energy              =   -1006.85266310 Ry
     Harris-Foulkes estimate   =   -1006.85266312 Ry
     estimated scf accuracy    <       0.00000004 Ry

     iteration # 18     ecut=   100.00 Ry     beta=0.50
     Davidson diagonalization with overlap
     ethr =  1.82E-11,  avg # of iterations =  3.6

     total cpu time spent up to now is      578.0 secs

     End of self-consistent calculation

          k = 0.0000 0.0000 0.0000 ( 64065 PWs)   bands (ev):

   -21.1643 -21.1269 -20.7680 -20.7189 -20.6854 -20.6437 -19.7012 -19.6992
   -18.3888 -18.3867 -17.6867 -17.6861 -15.5537 -15.5383 -15.0628 -15.0307
   -14.8000 -14.7075 -13.2513 -13.1599 -11.9411 -11.9200 -11.7453 -11.5696
   -10.1469  -9.8913  -8.8205  -8.7779  -8.4236  -8.2852  -7.7384  -7.7147
    -7.2303  -7.2117  -6.9738  -6.9131  -6.7816  -6.7221  -6.6424  -6.5296
    -6.1142  -6.0004  -5.8320  -5.7797  -5.6210  -5.3211  -5.2976  -5.2318
    -5.1239  -5.0713  -4.8629  -4.8300  -4.7173  -4.5758  -4.4881  -4.3566
    -4.1406  -4.0441  -3.8405  -3.8256  -3.6424  -3.6374  -3.5926  -3.5835
    -3.3762  -3.1957  -3.1604  -3.0255  -3.0181  -2.9951  -2.9629  -2.8901
    -2.4799  -2.3289  -2.0399  -1.9021  -1.6696  -1.5727  -1.5113  -1.4948
    -1.3203  -1.3094  -1.0345  -1.0018  -0.7780  -0.7381  -0.4074  -0.3176
    -0.1798  -0.0324   0.2450   0.2559   0.3200   0.3730   0.5947   0.6423
     1.0148   1.2344   4.9680   5.1225   5.2228   5.2393   5.4889   5.5914
     5.6957   5.8034   5.8849   5.9258   6.4214   7.4557   7.5198   7.8761
     8.0648   8.0997   8.4083   8.5182   8.7673

          k = 0.0000 0.0000-0.3994 ( 64052 PWs)   bands (ev):

   -21.1643 -21.1270 -20.7680 -20.7189 -20.6856 -20.6435 -19.7011 -19.6993
   -18.3889 -18.3867 -17.6864 -17.6863 -15.5523 -15.5388 -15.0616 -15.0309
   -14.8037 -14.7067 -13.2442 -13.1655 -11.9415 -11.9204 -11.7505 -11.5650
   -10.1389  -9.8977  -8.8207  -8.7756  -8.4159  -8.2958  -7.7124  -7.7112
    -7.3055  -7.1932  -6.9987  -6.9452  -6.7177  -6.7166  -6.6238  -6.5557
    -6.0655  -6.0200  -5.8375  -5.8030  -5.5893  -5.3523  -5.1961  -5.1824
    -5.1353  -5.0960  -4.9142  -4.7730  -4.7067  -4.6539  -4.4927  -4.4182
    -4.1362  -4.0631  -3.9266  -3.7931  -3.7143  -3.6516  -3.5010  -3.4887
    -3.2393  -3.1923  -3.1540  -3.1379  -3.1325  -2.9471  -2.8955  -2.8885
    -2.5199  -2.3484  -2.0470  -1.9138  -1.6639  -1.6082  -1.4917  -1.4804
    -1.2958  -1.2898  -1.0527  -0.9886  -0.7898  -0.7173  -0.3719  -0.3464
    -0.1613  -0.0535   0.2439   0.2592   0.3216   0.3766   0.6035   0.6596
     0.9945   1.2030   4.9622   5.1254   5.2405   5.2693   5.4722   5.5760
     5.6608   5.7733   5.8777   6.0239   6.5442   6.8629   7.8073   7.9917
     8.0508   8.3600   8.3724   8.5472   8.6518

          k = 0.0000 0.4888 0.0000 ( 64070 PWs)   bands (ev):

   -21.1262 -21.1070 -20.7863 -20.7661 -20.6453 -20.6280 -19.7017 -19.7007
   -18.4794 -18.4780 -17.6624 -17.6619 -15.6192 -15.6088 -14.9690 -14.9562
   -14.7652 -14.7187 -13.1714 -13.1263 -11.9740 -11.9630 -11.6171 -11.5284
    -9.9425  -9.7856  -8.8222  -8.8003  -8.3486  -8.1729  -7.7531  -7.6753
    -7.3558  -7.2910  -7.0673  -6.9714  -6.7776  -6.7369  -6.6516  -6.5996
    -6.4892  -6.4616  -6.1033  -6.0872  -5.5778  -5.5421  -5.2620  -5.2093
    -5.0037  -4.9641  -4.8238  -4.8200  -4.5307  -4.4066  -4.3306  -4.3150
    -4.1185  -4.0304  -3.9834  -3.8319  -3.7844  -3.7398  -3.5348  -3.5096
    -3.3705  -3.3275  -3.1306  -3.0727  -3.0435  -2.9523  -2.9343  -2.8463
    -2.4601  -2.3912  -2.0032  -1.9336  -1.7515  -1.6870  -1.4267  -1.4218
    -1.2522  -1.2343  -0.9755  -0.9654  -0.3719  -0.3293  -0.2841  -0.2820
    -0.1247   0.0401   0.1894   0.3314   0.3662   0.3808   0.7522   0.7535
     1.0532   1.1662   5.0327   5.0333   5.1836   5.2016   5.4411   5.4422
     5.5094   5.6761   6.0762   6.1255   6.8285   7.3347   7.7619   7.8284
     7.9654   8.0779   8.1514   8.3275   8.5197

          k = 0.0000 0.4888-0.3994 ( 64080 PWs)   bands (ev):

   -21.1261 -21.1070 -20.7863 -20.7661 -20.6454 -20.6279 -19.7016 -19.7007
   -18.4795 -18.4779 -17.6623 -17.6619 -15.6184 -15.6086 -14.9690 -14.9579
   -14.7655 -14.7181 -13.1682 -13.1288 -11.9743 -11.9633 -11.6201 -11.5258
    -9.9352  -9.7896  -8.8246  -8.8012  -8.3415  -8.1787  -7.7640  -7.6501
    -7.3392  -7.3278  -7.0625  -6.9917  -6.7694  -6.7157  -6.6601  -6.6565
    -6.4695  -6.4537  -6.0948  -6.0749  -5.5640  -5.4976  -5.1976  -5.1868
    -5.0748  -5.0106  -4.8495  -4.8100  -4.5062  -4.4037  -4.3695  -4.3394
    -4.1237  -4.0542  -3.9596  -3.8398  -3.7553  -3.7249  -3.6156  -3.4737
    -3.3316  -3.2968  -3.1588  -3.0664  -3.0346  -2.9831  -2.8935  -2.8553
    -2.4690  -2.3994  -2.0097  -1.9402  -1.7569  -1.6974  -1.4363  -1.4120
    -1.2365  -1.2002  -0.9829  -0.9642  -0.3554  -0.3373  -0.3034  -0.2807
    -0.1100   0.0366   0.1966   0.3338   0.3650   0.3870   0.7640   0.7657
     1.0287   1.1371   5.0365   5.0485   5.1955   5.1971   5.3644   5.4367
     5.5267   5.7129   6.0727   6.1337   6.9108   7.2739   7.5536   7.7212
     8.0305   8.0791   8.2718   8.3833   8.6529

          k =-0.5000 0.0000-0.0407 ( 64104 PWs)   bands (ev):

   -21.1344 -21.1291 -20.8335 -20.7618 -20.6435 -20.6127 -19.6933 -19.6907
   -18.3935 -18.3921 -17.6868 -17.6858 -15.5574 -15.5409 -15.0543 -15.0288
   -14.7588 -14.7521 -13.2137 -13.1975 -11.9431 -11.9275 -11.7193 -11.5916
   -10.1157  -9.9061  -8.8356  -8.7512  -8.4181  -8.3140  -7.8159  -7.6680
    -7.2872  -7.1388  -7.0216  -6.9269  -6.8091  -6.7676  -6.5097  -6.5036
    -5.9292  -5.9268  -5.8143  -5.7628  -5.6890  -5.6285  -5.3839  -5.2526
    -5.2177  -5.0030  -4.9499  -4.6893  -4.6405  -4.5197  -4.3543  -4.2994
    -4.1368  -4.0753  -3.8483  -3.7761  -3.7433  -3.7084  -3.5001  -3.4729
    -3.4337  -3.4211  -3.1390  -3.0824  -3.0190  -2.9357  -2.9278  -2.8522
    -2.4406  -2.3826  -2.0621  -1.9833  -1.6999  -1.6701  -1.5134  -1.4428
    -1.3071  -1.2541  -1.0327  -0.9802  -0.7020  -0.6829  -0.4055  -0.3518
    -0.1705   0.0132   0.1679   0.2609   0.3114   0.3599   0.6136   0.6392
     1.0923   1.1450   5.0198   5.1507   5.2226   5.2633   5.4148   5.5066
     5.6022   5.7884   5.9665   5.9918   6.9552   7.0070   7.6489   7.7380
     7.9298   8.0775   8.4382   8.4418   8.5596

          k =-0.5000 0.0000-0.4400 ( 64080 PWs)   bands (ev):

   -21.1344 -21.1291 -20.8334 -20.7619 -20.6437 -20.6124 -19.6926 -19.6914
   -18.3934 -18.3921 -17.6863 -17.6863 -15.5575 -15.5398 -15.0538 -15.0293
   -14.7590 -14.7533 -13.2098 -13.2007 -11.9442 -11.9276 -11.7229 -11.5873
   -10.1130  -9.9051  -8.8379  -8.7501  -8.4233  -8.3118  -7.7758  -7.6877
    -7.2410  -7.2388  -6.9977  -6.9702  -6.8179  -6.7593  -6.5066  -6.4923
    -5.9304  -5.9170  -5.8176  -5.7939  -5.5974  -5.5962  -5.3690  -5.2510
    -5.1536  -5.0335  -4.9299  -4.7433  -4.6175  -4.5987  -4.4010  -4.3439
    -4.1205  -4.0378  -3.8390  -3.8287  -3.7496  -3.6883  -3.6039  -3.5747
    -3.2909  -3.2114  -3.1601  -3.1210  -3.0195  -2.9962  -2.8571  -2.8539
    -2.4949  -2.3987  -2.0697  -1.9790  -1.7131  -1.6855  -1.4978  -1.4587
    -1.2709  -1.2316  -1.0407  -0.9717  -0.6840  -0.6795  -0.4401  -0.3060
    -0.1800   0.0112   0.1639   0.2649   0.3111   0.3631   0.6215   0.6494
     1.0720   1.1157   5.0250   5.1549   5.2457   5.2486   5.4158   5.4978
     5.7066   5.7160   5.9453   5.9554   7.0254   7.1693   7.3182   7.3944
     8.0980   8.2484   8.5009   8.5083   8.8457

          k =-0.5000 0.4888-0.0407 ( 64070 PWs)   bands (ev):

   -21.1050 -21.1036 -20.8258 -20.7876 -20.6313 -20.6147 -19.6938 -19.6926
   -18.4818 -18.4809 -17.6626 -17.6626 -15.6262 -15.6175 -14.9599 -14.9472
   -14.7441 -14.7398 -13.1531 -13.1479 -11.9700 -11.9660 -11.6047 -11.5400
    -9.9275  -9.8048  -8.8334  -8.7870  -8.3229  -8.1990  -7.8097  -7.6491
    -7.3228  -7.2790  -7.1293  -6.9886  -6.8062  -6.7427  -6.6480  -6.5731
    -6.4751  -6.4500  -5.8803  -5.8100  -5.7746  -5.7103  -5.3854  -5.2704
    -5.0924  -5.0218  -4.8097  -4.7477  -4.4255  -4.3637  -4.2972  -4.2634
    -4.1357  -4.0682  -3.9640  -3.8779  -3.7635  -3.7238  -3.5754  -3.4989
    -3.3074  -3.2735  -3.1784  -3.1425  -3.0660  -2.9601  -2.9366  -2.8452
    -2.4206  -2.3947  -2.0068  -1.9839  -1.6829  -1.6228  -1.5413  -1.4533
    -1.2446  -1.1842  -0.9831  -0.9393  -0.3910  -0.3699  -0.2517  -0.2407
    -0.1379   0.0449   0.2180   0.2836   0.3499   0.3649   0.7427   0.7629
     1.1051   1.1306   4.9855   5.0283   5.2163   5.2273   5.4271   5.4362
     5.5618   5.5840   6.1044   6.1577   7.1550   7.2442   7.5691   7.7493
     8.0012   8.0364   8.1705   8.3597   8.5279

          k =-0.5000 0.4888-0.4400 ( 64120 PWs)   bands (ev):

   -21.1050 -21.1036 -20.8257 -20.7876 -20.6315 -20.6146 -19.6936 -19.6929
   -18.4817 -18.4810 -17.6628 -17.6624 -15.6259 -15.6168 -14.9607 -14.9481
   -14.7430 -14.7403 -13.1512 -13.1500 -11.9705 -11.9662 -11.6069 -11.5372
    -9.9240  -9.8043  -8.8360  -8.7883  -8.3239  -8.1996  -7.7899  -7.6546
    -7.3187  -7.2934  -7.0899  -7.0565  -6.8336  -6.7200  -6.6338  -6.5918
    -6.4781  -6.4481  -5.8642  -5.8401  -5.7326  -5.6968  -5.3267  -5.2556
    -5.0352  -5.0257  -4.8402  -4.7652  -4.5431  -4.3892  -4.3326  -4.2490
    -4.1287  -4.0571  -3.9561  -3.8763  -3.7550  -3.7416  -3.5044  -3.4948
    -3.3476  -3.2511  -3.1712  -3.1158  -3.0677  -3.0070  -2.8947  -2.8603
    -2.4495  -2.4016  -2.0097  -1.9739  -1.6731  -1.6314  -1.5275  -1.4525
    -1.2427  -1.1566  -0.9877  -0.9567  -0.4103  -0.3495  -0.2388  -0.2369
    -0.1433   0.0436   0.2222   0.2885   0.3442   0.3712   0.7559   0.7767
     1.0793   1.1002   5.0145   5.0460   5.2126   5.2228   5.3548   5.4219
     5.5962   5.6209   6.1149   6.1537   7.1748   7.2837   7.4625   7.5725
     7.9411   7.9554   8.1639   8.5225   8.7102

     highest occupied, lowest unoccupied level (ev):     1.2344    4.9622

!    total energy              =   -1006.85266311 Ry
     Harris-Foulkes estimate   =   -1006.85266312 Ry
     estimated scf accuracy    <          5.2E-09 Ry

     total all-electron energy =     -3733.060455 Ry

     The total energy is the sum of the following terms:

     one-electron contribution =    -532.30611179 Ry
     hartree contribution      =     345.40134183 Ry
     xc contribution           =    -210.34681751 Ry
     ewald contribution        =    -339.75077361 Ry
     Dispersion Correction     =      -0.28812721 Ry
     one-center paw contrib.   =    -269.56217483 Ry

     convergence has been achieved in  18 iterations

     Forces acting on atoms (cartesian axes, Ry/au):

     atom    1 type  4   force =    -0.00155627    0.00343721    0.00089974
     atom    2 type  4   force =     0.00155627    0.00343721   -0.00089974
     atom    3 type  3   force =    -0.00375768   -0.00232304   -0.00212018
     atom    4 type  3   force =     0.00375768   -0.00232304    0.00212018
     atom    5 type  4   force =    -0.00168871    0.00063329   -0.00127089
     atom    6 type  4   force =     0.00168871    0.00063329    0.00127089
     atom    7 type  3   force =     0.00080541   -0.00015196   -0.00006410
     atom    8 type  3   force =    -0.00080541   -0.00015196    0.00006410
     atom    9 type  4   force =    -0.00295847   -0.00556876   -0.00065864
     atom   10 type  4   force =     0.00295847   -0.00556876    0.00065864
     atom   11 type  3   force =    -0.00077491   -0.00078670    0.00049743
     atom   12 type  3   force =     0.00077491   -0.00078670   -0.00049743
     atom   13 type  4   force =    -0.00266618    0.00303758   -0.00271252
     atom   14 type  4   force =     0.00266618    0.00303758    0.00271252
     atom   15 type  3   force =    -0.00112581    0.00106024    0.00134317
     atom   16 type  3   force =     0.00112581    0.00106024   -0.00134317
     atom   17 type  2   force =     0.01930176   -0.01882628   -0.00552141
     atom   18 type  2   force =    -0.01930176   -0.01882628    0.00552141
     atom   19 type  3   force =     0.00610002    0.01954842   -0.00214434
     atom   20 type  3   force =    -0.00610002    0.01954842    0.00214434
     atom   21 type  3   force =     0.00043759    0.00016369    0.00137822
     atom   22 type  3   force =    -0.00043759    0.00016369   -0.00137822
     atom   23 type  3   force =    -0.00006413    0.00179483   -0.00227077
     atom   24 type  3   force =     0.00006413    0.00179483    0.00227077
     atom   25 type  4   force =     0.00028613    0.00073601   -0.00096494
     atom   26 type  4   force =    -0.00028613    0.00073601    0.00096494
     atom   27 type  4   force =    -0.01538074   -0.00091874    0.00432444
     atom   28 type  4   force =     0.01538074   -0.00091874   -0.00432444
     atom   29 type  4   force =     0.00366578   -0.00210836    0.00076247
     atom   30 type  4   force =    -0.00366578   -0.00210836   -0.00076247
     atom   31 type  1   force =    -0.00644347   -0.01098645   -0.00190316
     atom   32 type  1   force =     0.00644347   -0.01098645    0.00190316
     atom   33 type  1   force =    -0.00157732    0.01228116    0.00189605
     atom   34 type  1   force =     0.00157732    0.01228116   -0.00189605
     atom   35 type  3   force =    -0.00014328   -0.00053065    0.00007496
     atom   36 type  3   force =     0.00014328   -0.00053065   -0.00007496
     atom   37 type  1   force =    -0.00459725   -0.00482726    0.00232849
     atom   38 type  1   force =     0.00459725   -0.00482726   -0.00232849
     atom   39 type  3   force =     0.00054760    0.00039655   -0.00030815
     atom   40 type  3   force =    -0.00054760    0.00039655    0.00030815
     atom   41 type  3   force =    -0.00170287    0.00291852    0.00144666
     atom   42 type  3   force =     0.00170287    0.00291852   -0.00144666
     atom   43 type  1   force =     0.00210214   -0.00195560   -0.00384802
     atom   44 type  1   force =    -0.00210214   -0.00195560    0.00384802
     atom   45 type  1   force =     0.00315281    0.00334016    0.00326788
     atom   46 type  1   force =    -0.00315281    0.00334016   -0.00326788
     atom   47 type  3   force =    -0.00056876   -0.00042758   -0.00053447
     atom   48 type  3   force =     0.00056876   -0.00042758    0.00053447
     atom   49 type  1   force =     0.00076010   -0.00360053   -0.00392259
     atom   50 type  1   force =    -0.00076010   -0.00360053    0.00392259
     atom   51 type  3   force =     0.00216935    0.00138407    0.00128500
     atom   52 type  3   force =    -0.00216935    0.00138407   -0.00128500
     atom   53 type  1   force =    -0.00221962    0.00246309    0.00398395
     atom   54 type  1   force =     0.00221962    0.00246309   -0.00398395
     atom   55 type  1   force =    -0.00257738   -0.00352715   -0.00376357
     atom   56 type  1   force =     0.00257738   -0.00352715    0.00376357
     atom   57 type  3   force =     0.00067301    0.00003245    0.00078003
     atom   58 type  3   force =    -0.00067301    0.00003245   -0.00078003
     atom   59 type  1   force =    -0.00077235    0.00558485    0.00385240
     atom   60 type  1   force =     0.00077235    0.00558485   -0.00385240
     atom   61 type  3   force =    -0.00263788   -0.00128143    0.00005113
     atom   62 type  3   force =     0.00263788   -0.00128143   -0.00005113
     atom   63 type  3   force =     0.00028561   -0.00099162    0.00094320
     atom   64 type  3   force =    -0.00028561   -0.00099162   -0.00094320

     Total force =     0.066036     Total SCF correction =     0.000160


     Computing stress (Cartesian axis) and pressure

          total   stress  (Ry/bohr**3)                   (kbar)     P=   -2.03
  -0.00002252   0.00000000  -0.00001301         -3.31      0.00     -1.91
   0.00000000  -0.00001572   0.00000000          0.00     -2.31      0.00
  -0.00001301   0.00000000  -0.00000319         -1.91      0.00     -0.47


     Writing output data file scf.save
 
     init_run     :     17.63s CPU     18.18s WALL (       1 calls)
     electrons    :    544.96s CPU    559.20s WALL (       1 calls)
     forces       :      9.46s CPU      9.56s WALL (       1 calls)
     stress       :     27.55s CPU     27.69s WALL (       1 calls)

     Called by init_run:
     wfcinit      :     11.28s CPU     11.76s WALL (       1 calls)
     potinit      :      2.27s CPU      2.29s WALL (       1 calls)

     Called by electrons:
     c_bands      :    482.80s CPU    495.00s WALL (      18 calls)
     sum_band     :     52.70s CPU     54.10s WALL (      18 calls)
     v_of_rho     :      1.32s CPU      1.43s WALL (      19 calls)
     newd         :      2.92s CPU      3.37s WALL (      19 calls)
     PAW_pot      :      4.77s CPU      4.78s WALL (      19 calls)
     mix_rho      :      0.33s CPU      0.35s WALL (      18 calls)

     Called by c_bands:
     init_us_2    :      3.56s CPU      3.60s WALL (     312 calls)
     cegterg      :    469.52s CPU    481.55s WALL (     144 calls)

     Called by sum_band:
     sum_band:bec :      0.04s CPU      0.04s WALL (     144 calls)
     addusdens    :      2.96s CPU      3.41s WALL (      18 calls)

     Called by *egterg:
     h_psi        :    267.67s CPU    274.18s WALL (     650 calls)
     s_psi        :     47.73s CPU     47.78s WALL (     650 calls)
     g_psi        :      1.57s CPU      1.57s WALL (     498 calls)
     cdiaghg      :     29.18s CPU     29.27s WALL (     642 calls)

     Called by h_psi:
     h_psi:pot    :    265.79s CPU    272.24s WALL (     650 calls)
     h_psi:calbec :     48.83s CPU     49.06s WALL (     650 calls)
     vloc_psi     :    169.37s CPU    175.56s WALL (     650 calls)
     add_vuspsi   :     47.59s CPU     47.62s WALL (     650 calls)

     General routines
     calbec       :     69.71s CPU     70.00s WALL (     834 calls)
     fft          :      1.12s CPU      1.29s WALL (     271 calls)
     fftw         :    181.78s CPU    188.20s WALL (  113444 calls)
 
     Parallel routines
     fft_scatter  :     51.37s CPU     55.18s WALL (  113715 calls)
 
     PWSCF        : 10m 4.19s CPU    10m20.32s WALL

 
   This run was terminated on:  17:59:36  14Dec2017            

=------------------------------------------------------------------------------=
   JOB DONE.
=------------------------------------------------------------------------------=
