
     Program PWSCF v.6.1 (svn rev. 13369) starts on  4Nov2017 at  5:41:54 

     This program is part of the open-source Quantum ESPRESSO suite
     for quantum simulation of materials; please cite
         "P. Giannozzi et al., J. Phys.:Condens. Matter 21 395502 (2009);
          URL http://www.quantum-espresso.org", 
     in publications or presentations arising from this work. More details at
     http://www.quantum-espresso.org/quote

     Parallel version (MPI), running on     8 processors
     R & G space division:  proc/nbgrp/npool/nimage =       8
     Waiting for input...
     Reading input from standard input

     Current dimensions of program PWSCF are:
     Max number of different atomic species (ntypx) = 10
     Max number of k-points (npk) =  40000
     Max angular momentum in pseudopotentials (lmaxx) =  3
               file C.pbe-n-kjpaw_psl.0.1.UPF: wavefunction(s)  2P renormalized
               file N.pbe-n-kjpaw_psl.0.1.UPF: wavefunction(s)  2P renormalized
               file H.pbe-kjpaw_psl.0.1.UPF: wavefunction(s)  1S renormalized
               file O.pbe-n-kjpaw_psl.0.1.UPF: wavefunction(s)  2P renormalized

     -------------------------------------
     Parameters for Dispersion Correction:
     -------------------------------------
       atom      VdW radius       C_6     

        C          2.744         60.710
        N          2.640         42.670
        H          1.892          4.857
        O          2.536         24.284

     Subspace diagonalization in iterative solution of the eigenvalue problem:
     a serial algorithm will be used

 
     Parallelization info
     --------------------
     sticks:   dense  smooth     PW     G-vecs:    dense   smooth      PW
     Min        1630    1630    440               122914   122914   17215
     Max        1631    1631    441               122915   122915   17217
     Sum       13043   13043   3527               983315   983315  137727
 


     bravais-lattice index     =            0
     lattice parameter (alat)  =       9.3020  a.u.
     unit-cell volume          =    7278.3949 (a.u.)^3
     number of atoms/cell      =          112
     number of atomic types    =            4
     number of electrons       =       392.00
     number of Kohn-Sham states=          235
     kinetic-energy cutoff     =     100.0000  Ry
     charge density cutoff     =     400.0000  Ry
     convergence threshold     =      1.0E-08
     mixing beta               =       0.5000
     number of iterations used =            8  plain     mixing
     Exchange-correlation      =  SLA  PW   PBX  PBC ( 1  4  3  4 0 0)

     celldm(1)=   9.301988  celldm(2)=   0.000000  celldm(3)=   0.000000
     celldm(4)=   0.000000  celldm(5)=   0.000000  celldm(6)=   0.000000

     crystal axes: (cart. coord. in units of alat)
               a(1) = (   1.000000   0.000000   0.000000 )  
               a(2) = (   0.000000   4.734885   0.000000 )  
               a(3) = (  -0.054047   0.000000   1.909848 )  

     reciprocal axes: (cart. coord. in units 2 pi/alat)
               b(1) = (  1.000000  0.000000  0.028299 )  
               b(2) = (  0.000000  0.211198  0.000000 )  
               b(3) = (  0.000000  0.000000  0.523602 )  


     PseudoPot. # 1 for  C read from file:
     /scratch/ahofstet/pseudo/C.pbe-n-kjpaw_psl.0.1.UPF
     MD5 check sum: 430fe95172b1e11ef3f8ed03bac87931
     Pseudo is Projector augmented-wave + core cor, Zval =  4.0
     Generated using "atomic" code by A. Dal Corso  v.5.0.99 svn rev. 10869
     Shape of augmentation charge: BESSEL
     Using radial grid of 1073 points,  4 beta functions with: 
                l(1) =   0
                l(2) =   0
                l(3) =   1
                l(4) =   1
     Q(r) pseudized with 0 coefficients 


     PseudoPot. # 2 for  N read from file:
     /scratch/ahofstet/pseudo/N.pbe-n-kjpaw_psl.0.1.UPF
     MD5 check sum: f73187c8b701007e77325f868c9291d7
     Pseudo is Projector augmented-wave + core cor, Zval =  5.0
     Generated using "atomic" code by A. Dal Corso  v.5.0.99 svn rev. 10869
     Shape of augmentation charge: PSQ
     Using radial grid of 1085 points,  4 beta functions with: 
                l(1) =   0
                l(2) =   0
                l(3) =   1
                l(4) =   1
     Q(r) pseudized with 0 coefficients 


     PseudoPot. # 3 for  H read from file:
     /scratch/ahofstet/pseudo/H.pbe-kjpaw_psl.0.1.UPF
     MD5 check sum: 94e484f906d9e9773b2f6e52662335b2
     Pseudo is Projector augmented-wave, Zval =  1.0
     Generated using "atomic" code by A. Dal Corso  v.5.0.99 svn rev. 10869
     Shape of augmentation charge: PSQ
     Using radial grid of  929 points,  2 beta functions with: 
                l(1) =   0
                l(2) =   0
     Q(r) pseudized with 0 coefficients 


     PseudoPot. # 4 for  O read from file:
     /scratch/ahofstet/pseudo/O.pbe-n-kjpaw_psl.0.1.UPF
     MD5 check sum: 3f94a2996a3169367d6eb21d9b593f20
     Pseudo is Projector augmented-wave + core cor, Zval =  6.0
     Generated using "atomic" code by A. Dal Corso  v.5.0.99 svn rev. 10869
     Shape of augmentation charge: BESSEL
     Using radial grid of 1095 points,  4 beta functions with: 
                l(1) =   0
                l(2) =   0
                l(3) =   1
                l(4) =   1
     Q(r) pseudized with 0 coefficients 


     atomic species   valence    mass     pseudopotential
        C              4.00    12.01070      C( 1.00)
        N              5.00    14.00670      N( 1.00)
        H              1.00     1.00794      H( 1.00)
        O              6.00    15.99940      O( 1.00)

      2 Sym. Ops., with inversion, found



   Cartesian axes

     site n.     atom                  positions (alat units)
         1           O   tau(   1) = (   1.0617003   1.7671027   1.4607515  )
         2           O   tau(   2) = (   0.3571666   4.1348805   1.4039711  )
         3           O   tau(   3) = (  -0.1157477   2.9677827   0.4490966  )
         4           O   tau(   4) = (   0.5887860   0.6000050   0.5058771  )
         5           O   tau(   5) = (   0.7474646   2.0300325   1.8272256  )
         6           O   tau(   6) = (  -0.3282650   4.3981249   1.0376297  )
         7           O   tau(   7) = (   0.1984880   2.7048530   0.0826225  )
         8           O   tau(   8) = (   1.2742175   0.3367606   0.8722184  )
         9           O   tau(   9) = (   0.4679257   1.8128967   0.1130536  )
        10           O   tau(  10) = (   0.0056678   4.1812431   0.8421542  )
        11           O   tau(  11) = (   0.4780269   2.9219887   1.7967945  )
        12           O   tau(  12) = (   0.9402847   0.5536424   1.0676939  )
        13           O   tau(  13) = (   0.1989590   0.8965758   1.8273425  )
        14           O   tau(  14) = (   0.2203106   3.2648010   1.0365544  )
        15           O   tau(  15) = (   0.7469935   3.8383096   0.0825056  )
        16           O   tau(  16) = (   0.7256420   1.4700844   0.8732937  )
        17           O   tau(  17) = (   0.4333952   0.6687960   1.5255149  )
        18           O   tau(  18) = (  -0.0129481   3.0372769   1.3394436  )
        19           O   tau(  19) = (   0.5125574   4.0660894   0.3843332  )
        20           O   tau(  20) = (   0.9589007   1.6976085   0.5704045  )
        21           N   tau(  21) = (   0.6024658   1.8233566   1.8531624  )
        22           N   tau(  22) = (  -0.1832917   4.1914662   1.0115179  )
        23           N   tau(  23) = (   0.3434868   2.9115288   0.0566857  )
        24           N   tau(  24) = (   1.1292442   0.5434192   0.8983302  )
        25           N   tau(  25) = (   0.3849383   0.8811067   1.6565751  )
        26           N   tau(  26) = (   0.0346868   3.2493576   1.2077166  )
        27           N   tau(  27) = (   0.5610142   3.8537787   0.2532730  )
        28           N   tau(  28) = (   0.9112658   1.4855278   0.7021315  )
        29           N   tau(  29) = (   0.6953204   4.4479262   1.8063958  )
        30           N   tau(  30) = (   0.7237578   2.0797391   1.0588029  )
        31           N   tau(  31) = (   0.2506321   0.2869592   0.1034523  )
        32           N   tau(  32) = (   0.2221948   2.6551463   0.8510452  )
        33           N   tau(  33) = (   0.9362619   4.4557903   1.6528583  )
        34           N   tau(  34) = (   0.4827436   2.0874282   1.2122513  )
        35           N   tau(  35) = (   0.0096907   0.2790951   0.2569898  )
        36           N   tau(  36) = (   0.4632090   2.6474572   0.6975968  )
        37           H   tau(  37) = (   0.0418661   4.2813927   1.6059915  )
        38           H   tau(  38) = (   0.3779369   1.9127195   1.2596602  )
        39           H   tau(  39) = (   0.9040864   0.4534928   0.3038566  )
        40           H   tau(  40) = (   0.5680156   2.8221659   0.6501879  )
        41           N   tau(  41) = (   0.8008943   0.1447156   1.4994586  )
        42           N   tau(  42) = (   0.6175905   2.5117483   1.3645729  )
        43           N   tau(  43) = (   0.1450583   4.5901698   0.4103895  )
        44           N   tau(  44) = (   0.3283621   2.2231371   0.5452752  )
        45           H   tau(  45) = (   0.8226134   0.3057710   1.3711520  )
        46           H   tau(  46) = (   0.5954274   2.6731924   1.4922728  )
        47           H   tau(  47) = (   0.1233392   4.4291144   0.5386962  )
        48           H   tau(  48) = (   0.3505252   2.0616930   0.4175753  )
        49           H   tau(  49) = (   0.6360115   0.1247313   1.6226034  )
        50           H   tau(  50) = (   0.7825844   2.4914340   1.2415812  )
        51           H   tau(  51) = (   0.3099410   4.6101541   0.2872447  )
        52           H   tau(  52) = (   0.1633682   2.2434514   0.6682669  )
        53           N   tau(  53) = (   0.1967500   4.6817002   1.3297021  )
        54           N   tau(  54) = (   0.2217616   2.3141198   1.5347063  )
        55           N   tau(  55) = (   0.7492025   0.0531853   0.5801460  )
        56           N   tau(  56) = (   0.7241910   2.4207656   0.3751419  )
        57           H   tau(  57) = (   0.2082627   0.0890044   1.1781786  )
        58           H   tau(  58) = (   0.2101929   2.4568629   1.6857240  )
        59           H   tau(  59) = (   0.7376899   4.6458810   0.7316695  )
        60           H   tau(  60) = (   0.7357596   2.2780225   0.2241242  )
        61           H   tau(  61) = (   0.3093750   4.5067759   1.3092315  )
        62           H   tau(  62) = (   0.1092918   2.1391246   1.5555318  )
        63           H   tau(  63) = (   0.6365776   0.2281096   0.6006166  )
        64           H   tau(  64) = (   0.8366607   2.5957608   0.3543163  )
        65           C   tau(  65) = (   0.9053476   1.5711623   1.5198506  )
        66           C   tau(  66) = (   0.5135347   3.9390741   1.3445524  )
        67           C   tau(  67) = (   0.0406050   3.1637231   0.3899975  )
        68           C   tau(  68) = (   0.4324179   0.7958114   0.5652957  )
        69           C   tau(  69) = (   0.6619314   1.5859831   1.6911103  )
        70           C   tau(  70) = (  -0.2430900   3.9539738   1.1731474  )
        71           C   tau(  71) = (   0.2840212   3.1489023   0.2187379  )
        72           C   tau(  72) = (   1.1890426   0.7809116   0.7367007  )
        73           C   tau(  73) = (   0.4911407   1.3619777   1.7302654  )
        74           C   tau(  74) = (  -0.0721067   3.7301176   1.1340062  )
        75           C   tau(  75) = (   0.4548118   3.3729078   0.1795827  )
        76           C   tau(  76) = (   1.0180592   1.0047678   0.7758419  )
        77           H   tau(  77) = (   0.3150714   1.3779291   1.8621509  )
        78           H   tau(  78) = (   0.1039796   3.7462443   1.0021834  )
        79           H   tau(  79) = (   0.6308812   3.3569563   0.0476972  )
        80           H   tau(  80) = (   0.8419730   0.9886411   0.9076647  )
        81           C   tau(  81) = (   0.5590574   1.1135820   1.6131855  )
        82           C   tau(  82) = (  -0.1398231   3.4816289   1.2509612  )
        83           C   tau(  83) = (   0.3868952   3.6213035   0.2966626  )
        84           C   tau(  84) = (   1.0857757   1.2532565   0.6588869  )
        85           C   tau(  85) = (   0.7959860   1.0843548   1.4543269  )
        86           C   tau(  86) = (   0.6231716   3.4522072   1.4097095  )
        87           C   tau(  87) = (   0.1499666   3.6505306   0.4555212  )
        88           C   tau(  88) = (   0.3227809   1.2826782   0.5001386  )
        89           H   tau(  89) = (   0.8380005   0.8884208   1.3609430  )
        90           H   tau(  90) = (   0.5809920   3.2560922   1.5026123  )
        91           H   tau(  91) = (   0.1079521   3.8464646   0.5489051  )
        92           H   tau(  92) = (   0.3649606   1.4787933   0.4072358  )
        93           C   tau(  93) = (   0.9617952   1.3045876   1.4109103  )
        94           C   tau(  94) = (   0.4572676   3.6723688   1.4532914  )
        95           C   tau(  95) = (  -0.0158427   3.4302978   0.4989378  )
        96           C   tau(  96) = (   0.4886850   1.0625166   0.4565567  )
        97           H   tau(  97) = (   1.1368825   1.2902197   1.2766899  )
        98           H   tau(  98) = (   0.2822111   3.6578365   1.5875324  )
        99           H   tau(  99) = (  -0.1909300   3.4446657   0.6331582  )
       100           H   tau( 100) = (   0.6637415   1.0770489   0.3223157  )
       101           C   tau( 101) = (  -0.0229891   4.6741801   1.4895271  )
       102           C   tau( 102) = (   0.4415614   2.3062493   1.3749757  )
       103           C   tau( 103) = (  -0.0310584   0.0607053   0.4203210  )
       104           C   tau( 104) = (   0.5043912   2.4286361   0.5348724  )
       105           H   tau( 105) = (   0.7374604   4.3648746   1.9916685  )
       106           H   tau( 106) = (   0.6812735   1.9968540   0.8735985  )
       107           H   tau( 107) = (   0.2084922   0.3700108  -0.0818204  )
       108           H   tau( 108) = (   0.2646791   2.7380314   1.0362496  )
       109           H   tau( 109) = (   0.5555773   4.3259341   1.7091828  )
       110           H   tau( 110) = (   0.8640475   1.9578598   1.1554949  )
       111           H   tau( 111) = (   0.3903752   0.4089513   0.2006653  )
       112           H   tau( 112) = (   0.0819050   2.7770256   0.7543532  )

     number of k points=     6
                       cart. coord. in units 2pi/alat
        k(    1) = (   0.0000000   0.0000000   0.0000000), wk =   0.2500000
        k(    2) = (   0.0000000   0.0000000  -0.2618009), wk =   0.2500000
        k(    3) = (   0.2500000   0.0000000   0.0070748), wk =   0.5000000
        k(    4) = (   0.2500000   0.0000000  -0.2547261), wk =   0.5000000
        k(    5) = (  -0.5000000   0.0000000  -0.0141497), wk =   0.2500000
        k(    6) = (  -0.5000000   0.0000000  -0.2759506), wk =   0.2500000

     Dense  grid:   983315 G-vectors     FFT dimensions: (  60, 288, 120)

     Estimated max dynamical RAM per process >    1082.09MB

     Estimated total allocated dynamical RAM >    8656.70MB

     Check: negative/imaginary core charge=   -0.000002    0.000000

     Initial potential from superposition of free atoms

     starting charge  391.99825, renormalised to  392.00000
     Starting wfc are  328 randomized atomic wfcs
     Checking if some PAW data can be deallocated... 

     total cpu time spent up to now is       58.7 secs

     per-process dynamical memory:   680.2 Mb

     Self-consistent Calculation

     iteration #  1     ecut=   100.00 Ry     beta=0.50
     Davidson diagonalization with overlap
     ethr =  1.00E-02,  avg # of iterations =  3.3

     total cpu time spent up to now is      226.6 secs

     total energy              =   -2070.14285182 Ry
     Harris-Foulkes estimate   =   -2076.99133698 Ry
     estimated scf accuracy    <      12.39552852 Ry

     iteration #  2     ecut=   100.00 Ry     beta=0.50
     Davidson diagonalization with overlap
     ethr =  3.16E-03,  avg # of iterations =  3.2

     total cpu time spent up to now is      348.2 secs

     total energy              =   -2072.31506358 Ry
     Harris-Foulkes estimate   =   -2073.65512781 Ry
     estimated scf accuracy    <       2.82161064 Ry

     iteration #  3     ecut=   100.00 Ry     beta=0.50
     Davidson diagonalization with overlap
     ethr =  7.20E-04,  avg # of iterations =  8.0

     total cpu time spent up to now is      485.4 secs

     total energy              =   -2072.93739875 Ry
     Harris-Foulkes estimate   =   -2073.15996472 Ry
     estimated scf accuracy    <       0.54686544 Ry

     iteration #  4     ecut=   100.00 Ry     beta=0.50
     Davidson diagonalization with overlap
     ethr =  1.40E-04,  avg # of iterations =  8.3

     total cpu time spent up to now is      602.8 secs

     total energy              =   -2073.01613132 Ry
     Harris-Foulkes estimate   =   -2073.07094354 Ry
     estimated scf accuracy    <       0.13940735 Ry

     iteration #  5     ecut=   100.00 Ry     beta=0.50
     Davidson diagonalization with overlap
     ethr =  3.56E-05,  avg # of iterations =  8.0

     total cpu time spent up to now is      735.7 secs

     total energy              =   -2073.04387751 Ry
     Harris-Foulkes estimate   =   -2073.06138168 Ry
     estimated scf accuracy    <       0.04705503 Ry

     iteration #  6     ecut=   100.00 Ry     beta=0.50
     Davidson diagonalization with overlap
     ethr =  1.20E-05,  avg # of iterations =  4.7

     total cpu time spent up to now is      838.0 secs

     total energy              =   -2073.05301565 Ry
     Harris-Foulkes estimate   =   -2073.05564669 Ry
     estimated scf accuracy    <       0.00704380 Ry

     iteration #  7     ecut=   100.00 Ry     beta=0.50
     Davidson diagonalization with overlap
     ethr =  1.80E-06,  avg # of iterations = 10.3

     total cpu time spent up to now is     1005.4 secs

     total energy              =   -2073.05496033 Ry
     Harris-Foulkes estimate   =   -2073.05560499 Ry
     estimated scf accuracy    <       0.00161942 Ry

     iteration #  8     ecut=   100.00 Ry     beta=0.50
     Davidson diagonalization with overlap
     ethr =  4.13E-07,  avg # of iterations =  9.8

     total cpu time spent up to now is     1124.5 secs

     total energy              =   -2073.05512619 Ry
     Harris-Foulkes estimate   =   -2073.05558313 Ry
     estimated scf accuracy    <       0.00154118 Ry

     iteration #  9     ecut=   100.00 Ry     beta=0.50
     Davidson diagonalization with overlap
     c_bands:  1 eigenvalues not converged
     ethr =  3.93E-07,  avg # of iterations =  8.2

     total cpu time spent up to now is     1221.8 secs

     total energy              =   -2073.05536012 Ry
     Harris-Foulkes estimate   =   -2073.05542776 Ry
     estimated scf accuracy    <       0.00023800 Ry

     iteration # 10     ecut=   100.00 Ry     beta=0.50
     Davidson diagonalization with overlap
     ethr =  6.07E-08,  avg # of iterations =  3.5

     total cpu time spent up to now is     1317.9 secs

     total energy              =   -2073.05540713 Ry
     Harris-Foulkes estimate   =   -2073.05541654 Ry
     estimated scf accuracy    <       0.00002757 Ry

     iteration # 11     ecut=   100.00 Ry     beta=0.50
     Davidson diagonalization with overlap
     ethr =  7.03E-09,  avg # of iterations =  3.0

     total cpu time spent up to now is     1471.5 secs

     total energy              =   -2073.05541966 Ry
     Harris-Foulkes estimate   =   -2073.05542399 Ry
     estimated scf accuracy    <       0.00001255 Ry

     iteration # 12     ecut=   100.00 Ry     beta=0.50
     Davidson diagonalization with overlap
     ethr =  3.20E-09,  avg # of iterations =  2.0

     total cpu time spent up to now is     1562.9 secs

     total energy              =   -2073.05542181 Ry
     Harris-Foulkes estimate   =   -2073.05542224 Ry
     estimated scf accuracy    <       0.00000168 Ry

     iteration # 13     ecut=   100.00 Ry     beta=0.50
     Davidson diagonalization with overlap
     ethr =  4.28E-10,  avg # of iterations =  3.0

     total cpu time spent up to now is     1679.0 secs

     total energy              =   -2073.05542226 Ry
     Harris-Foulkes estimate   =   -2073.05542234 Ry
     estimated scf accuracy    <       0.00000026 Ry

     iteration # 14     ecut=   100.00 Ry     beta=0.50
     Davidson diagonalization with overlap
     ethr =  6.66E-11,  avg # of iterations =  3.0

     total cpu time spent up to now is     1787.0 secs

     total energy              =   -2073.05542231 Ry
     Harris-Foulkes estimate   =   -2073.05542233 Ry
     estimated scf accuracy    <       0.00000005 Ry

     iteration # 15     ecut=   100.00 Ry     beta=0.50
     Davidson diagonalization with overlap
     ethr =  1.21E-11,  avg # of iterations =  3.0

     total cpu time spent up to now is     1907.0 secs

     total energy              =   -2073.05542233 Ry
     Harris-Foulkes estimate   =   -2073.05542233 Ry
     estimated scf accuracy    <       0.00000002 Ry

     iteration # 16     ecut=   100.00 Ry     beta=0.50
     Davidson diagonalization with overlap
     ethr =  5.37E-12,  avg # of iterations =  2.2

     total cpu time spent up to now is     1999.8 secs

     End of self-consistent calculation

          k = 0.0000 0.0000 0.0000 (122873 PWs)   bands (ev):

   -23.7878 -23.7865 -23.7855 -23.7842 -23.5791 -23.5791 -23.5778 -23.5778
   -19.2928 -19.2909 -19.2898 -19.2879 -19.0897 -19.0894 -19.0888 -19.0886
   -18.9104 -18.9077 -18.8466 -18.8436 -18.5712 -18.5701 -18.5583 -18.5575
   -16.7749 -16.7706 -16.7100 -16.7059 -15.2006 -15.1972 -15.1933 -15.1909
   -15.1324 -15.1258 -15.1081 -15.1028 -13.5809 -13.5718 -13.5699 -13.5683
   -12.8654 -12.8496 -12.8436 -12.8370 -12.3948 -12.3914 -12.3664 -12.3596
   -10.8541 -10.8482 -10.7337 -10.7320  -9.7432  -9.7222  -9.6873  -9.6828
    -8.7791  -8.7625  -8.7180  -8.6884  -8.3975  -8.3903  -8.3202  -8.3166
    -7.7640  -7.7341  -7.6939  -7.6840  -7.5459  -7.5201  -7.5151  -7.4177
    -7.1719  -7.1387  -7.0770  -6.9969  -6.9828  -6.8904  -6.8057  -6.8049
    -6.3589  -6.3451  -6.2779  -6.2743  -6.2503  -6.1736  -6.1703  -6.1489
    -6.0305  -6.0162  -5.9961  -5.9620  -5.8903  -5.8077  -5.7569  -5.7190
    -5.6772  -5.6508  -5.6007  -5.5840  -5.5693  -5.5517  -5.5087  -5.4857
    -5.3152  -5.2828  -5.2821  -5.2310  -5.0907  -5.0286  -4.9915  -4.9455
    -4.8512  -4.8231  -4.7772  -4.7436  -4.7063  -4.7001  -4.6249  -4.6153
    -4.4812  -4.4610  -4.3827  -4.3574  -4.1300  -4.1133  -3.8408  -3.8202
    -3.4340  -3.4288  -3.3014  -3.2778  -3.0120  -3.0078  -3.0024  -2.9838
    -2.9003  -2.8010  -2.7901  -2.7057  -2.4334  -2.4296  -2.2791  -2.2731
    -1.7734  -1.7702  -1.7564  -1.7502  -1.0044  -0.9946  -0.8779  -0.8599
    -0.8548  -0.8469  -0.8381  -0.8329  -0.8323  -0.8102  -0.7243  -0.7242
    -0.5066  -0.5019  -0.4707  -0.4588  -0.0801  -0.0795  -0.0647  -0.0529
    -0.0308  -0.0214   0.0613   0.0649   0.0944   0.1192   0.1213   0.1310
     0.2413   0.2415   0.2552   0.2696   0.3804   0.3876   0.4787   0.4885
     0.7465   0.7671   0.7781   0.8061   0.9843   1.0403   1.0445   1.0943
     1.1747   1.2146   1.2353   1.2700   3.3703   3.3723   3.4775   3.4843
     3.8829   3.8854   4.0003   4.0060   5.9801   5.9848   6.0390   6.0977
     6.2757   6.3133   6.3451   6.3545   6.5506   6.5555   6.8195   6.8841
     6.9187   7.0762   7.1591   7.7224   7.8743   8.2864   8.3228   8.3478
     8.3792   8.4172   8.4964   8.5288   8.7081   8.8053   8.9889   8.9941
     9.1115   9.1658   9.2711

          k = 0.0000 0.0000-0.2618 (122864 PWs)   bands (ev):

   -23.7878 -23.7864 -23.7855 -23.7842 -23.5791 -23.5791 -23.5779 -23.5779
   -19.2918 -19.2916 -19.2889 -19.2886 -19.0903 -19.0897 -19.0894 -19.0889
   -18.9106 -18.9078 -18.8452 -18.8422 -18.5687 -18.5677 -18.5615 -18.5607
   -16.7806 -16.7764 -16.7038 -16.6996 -15.1993 -15.1989 -15.1929 -15.1927
   -15.1197 -15.1195 -15.1149 -15.1149 -13.5766 -13.5755 -13.5698 -13.5687
   -12.8579 -12.8560 -12.8416 -12.8404 -12.3795 -12.3793 -12.3761 -12.3758
   -10.7974 -10.7972 -10.7928 -10.7925  -9.7151  -9.7141  -9.7019  -9.7009
    -8.7650  -8.7628  -8.7130  -8.7106  -8.3617  -8.3616  -8.3514  -8.3513
    -7.7219  -7.7204  -7.6915  -7.6883  -7.5263  -7.5254  -7.4842  -7.4825
    -7.1197  -7.1164  -7.0686  -7.0662  -6.9200  -6.9187  -6.8564  -6.8563
    -6.3033  -6.3018  -6.2743  -6.2723  -6.2382  -6.2369  -6.1422  -6.1404
    -6.0515  -6.0510  -5.9686  -5.9680  -5.8542  -5.8540  -5.7376  -5.7371
    -5.7216  -5.7205  -5.5737  -5.5731  -5.5618  -5.5604  -5.4466  -5.4450
    -5.3885  -5.3875  -5.2266  -5.2260  -5.0273  -5.0238  -4.9861  -4.9846
    -4.8128  -4.8091  -4.7899  -4.7880  -4.7096  -4.7094  -4.6330  -4.6288
    -4.4302  -4.4286  -4.3908  -4.3882  -3.9804  -3.9803  -3.9614  -3.9612
    -3.4481  -3.4444  -3.2759  -3.2718  -3.0047  -3.0034  -2.9960  -2.9947
    -2.8401  -2.8397  -2.7634  -2.7629  -2.3503  -2.3496  -2.3474  -2.3466
    -1.7707  -1.7692  -1.7662  -1.7646  -0.9204  -0.9194  -0.9191  -0.9182
    -0.8657  -0.8650  -0.8457  -0.8457  -0.7744  -0.7734  -0.7719  -0.7713
    -0.4938  -0.4930  -0.4547  -0.4528  -0.0935  -0.0934  -0.0828  -0.0819
     0.0199   0.0205   0.0231   0.0255   0.0908   0.0923   0.1198   0.1206
     0.2731   0.2736   0.3410   0.3412   0.3468   0.3475   0.4673   0.4678
     0.7369   0.7402   0.7757   0.7818   1.0324   1.0332   1.0567   1.0572
     1.2137   1.2162   1.2223   1.2234   3.4176   3.4192   3.4261   3.4276
     3.9471   3.9487   3.9552   3.9569   6.0087   6.0091   6.0152   6.0156
     6.2488   6.2509   6.3510   6.3512   6.6305   6.6360   6.8284   6.8350
     7.3203   7.3218   7.4350   7.4374   7.7064   7.7065   8.0819   8.0822
     8.2381   8.2382   8.5980   8.5984   8.8879   8.8914   9.0256   9.0287
     9.1269   9.1282   9.2108

          k = 0.2500 0.0000 0.0071 (122879 PWs)   bands (ev):

   -23.7850 -23.7840 -23.7828 -23.7818 -23.5768 -23.5768 -23.5755 -23.5755
   -19.3001 -19.2974 -19.2970 -19.2943 -19.0927 -19.0924 -19.0918 -19.0915
   -18.8824 -18.8796 -18.8174 -18.8144 -18.5753 -18.5742 -18.5678 -18.5669
   -16.7637 -16.7593 -16.7014 -16.6972 -15.2450 -15.2402 -15.2384 -15.2347
   -15.1234 -15.1217 -15.1050 -15.1018 -13.5885 -13.5807 -13.5786 -13.5776
   -12.8671 -12.8647 -12.8526 -12.8479 -12.4460 -12.4423 -12.4267 -12.4250
   -10.8554 -10.8526 -10.7817 -10.7732  -9.7287  -9.7067  -9.6874  -9.6789
    -8.7850  -8.7502  -8.6995  -8.6704  -8.2905  -8.2866  -8.2365  -8.2292
    -7.7264  -7.6874  -7.6822  -7.6776  -7.5341  -7.5144  -7.4670  -7.4164
    -7.0923  -7.0741  -7.0462  -7.0429  -6.9502  -6.8513  -6.8348  -6.8309
    -6.3707  -6.3539  -6.3180  -6.3035  -6.2342  -6.1910  -6.1822  -6.1763
    -6.0899  -6.0755  -6.0479  -6.0330  -5.8648  -5.8411  -5.7527  -5.7210
    -5.6932  -5.6892  -5.6447  -5.6224  -5.5854  -5.5430  -5.5372  -5.5169
    -5.4230  -5.3423  -5.2919  -5.2879  -5.0377  -5.0173  -5.0043  -4.9805
    -4.8262  -4.8218  -4.7899  -4.7799  -4.7410  -4.7131  -4.6315  -4.6121
    -4.4576  -4.4073  -4.3904  -4.3366  -4.0169  -3.9955  -3.8072  -3.7920
    -3.4775  -3.4744  -3.3684  -3.3593  -3.1544  -3.1311  -3.0378  -3.0065
    -2.9309  -2.9160  -2.8975  -2.8696  -2.3487  -2.3424  -2.2808  -2.2729
    -1.6061  -1.5983  -1.5863  -1.5797  -0.8891  -0.8789  -0.8713  -0.8567
    -0.8355  -0.8113  -0.7741  -0.7567  -0.7160  -0.7119  -0.6620  -0.6497
    -0.5151  -0.4899  -0.4733  -0.4686  -0.0792  -0.0631  -0.0367  -0.0232
     0.0254   0.0491   0.1291   0.1395   0.1512   0.1673   0.2099   0.2377
     0.2669   0.2942   0.3477   0.3499   0.4722   0.4861   0.5405   0.5546
     0.7689   0.8108   0.8428   0.8894   1.0451   1.0515   1.0677   1.0832
     1.2829   1.3077   1.3211   1.3523   3.3267   3.3319   3.4064   3.4178
     3.7513   3.7601   3.8609   3.8653   5.5905   5.6026   5.7675   5.7839
     6.2742   6.3401   6.3561   6.3849   6.4826   6.5274   6.7229   6.7469
     7.1661   7.3305   7.3999   7.7085   7.9369   7.9389   8.0688   8.1629
     8.3143   8.4218   8.4748   8.5208   8.8283   8.8393   8.8934   9.0013
     9.2313   9.2818   9.4033

          k = 0.2500 0.0000-0.2547 (122910 PWs)   bands (ev):

   -23.7850 -23.7840 -23.7827 -23.7818 -23.5768 -23.5768 -23.5756 -23.5756
   -19.2999 -19.2976 -19.2968 -19.2946 -19.0930 -19.0928 -19.0916 -19.0913
   -18.8821 -18.8793 -18.8172 -18.8141 -18.5750 -18.5736 -18.5688 -18.5676
   -16.7680 -16.7637 -16.6967 -16.6924 -15.2442 -15.2409 -15.2382 -15.2349
   -15.1206 -15.1168 -15.1097 -15.1054 -13.5866 -13.5842 -13.5804 -13.5745
   -12.8755 -12.8661 -12.8476 -12.8427 -12.4513 -12.4463 -12.4241 -12.4183
   -10.8567 -10.8514 -10.7796 -10.7751  -9.7235  -9.6996  -9.6975  -9.6829
    -8.7567  -8.7326  -8.7239  -8.6913  -8.3036  -8.2954  -8.2241  -8.2223
    -7.7426  -7.6981  -7.6779  -7.6502  -7.5237  -7.4971  -7.4932  -7.4103
    -7.1480  -7.1224  -7.0293  -6.9781  -6.9451  -6.8817  -6.8303  -6.7872
    -6.3266  -6.3170  -6.3036  -6.2935  -6.2755  -6.2181  -6.1780  -6.1460
    -6.1043  -6.0966  -6.0563  -6.0328  -5.8395  -5.8377  -5.7883  -5.7644
    -5.7025  -5.6860  -5.6295  -5.6134  -5.5867  -5.5763  -5.5212  -5.4713
    -5.4468  -5.3498  -5.2882  -5.2542  -5.1264  -5.0822  -4.9733  -4.9704
    -4.8541  -4.8354  -4.7446  -4.7376  -4.7321  -4.7045  -4.6413  -4.6291
    -4.4378  -4.4247  -4.3625  -4.3527  -4.0057  -3.9867  -3.8189  -3.7954
    -3.5065  -3.5023  -3.3409  -3.3330  -3.1375  -3.1156  -3.0302  -3.0182
    -2.9307  -2.9134  -2.8981  -2.8561  -2.3585  -2.3521  -2.2692  -2.2652
    -1.6349  -1.6299  -1.5621  -1.5567  -0.8791  -0.8709  -0.8504  -0.8449
    -0.8141  -0.8078  -0.7920  -0.7706  -0.6996  -0.6973  -0.6907  -0.6876
    -0.5100  -0.4836  -0.4757  -0.4444  -0.1122  -0.0842  -0.0812  -0.0489
     0.0575   0.0784   0.0942   0.1149   0.1562   0.1642   0.2077   0.2338
     0.2902   0.3121   0.3668   0.3737   0.4866   0.4945   0.5393   0.5503
     0.7484   0.7793   0.8870   0.9084   1.0141   1.0371   1.0765   1.1022
     1.2762   1.2924   1.3328   1.3382   3.3539   3.3607   3.3769   3.3906
     3.7834   3.7942   3.8217   3.8350   5.6742   5.6851   5.6971   5.7191
     6.2412   6.3086   6.3249   6.4177   6.5483   6.5954   6.6582   6.6676
     7.2678   7.3912   7.4739   7.6460   7.8386   7.8884   8.0169   8.0884
     8.4022   8.4630   8.6501   8.6843   8.7327   8.8902   8.9574   9.0009
     9.1718   9.1899   9.2004

          k =-0.5000 0.0000-0.0141 (122964 PWs)   bands (ev):

   -23.7821 -23.7817 -23.7799 -23.7795 -23.5745 -23.5745 -23.5732 -23.5732
   -19.3072 -19.3042 -19.3041 -19.3010 -19.0954 -19.0952 -19.0947 -19.0945
   -18.8514 -18.8484 -18.7835 -18.7802 -18.5831 -18.5820 -18.5812 -18.5801
   -16.7520 -16.7475 -16.6927 -16.6884 -15.2932 -15.2887 -15.2840 -15.2795
   -15.1070 -15.1069 -15.1036 -15.1036 -13.5945 -13.5935 -13.5861 -13.5851
   -12.8824 -12.8808 -12.8564 -12.8541 -12.4934 -12.4934 -12.4877 -12.4877
   -10.8422 -10.8415 -10.8365 -10.8357  -9.7023  -9.7013  -9.6787  -9.6777
    -8.7360  -8.7343  -8.6941  -8.6927  -8.1688  -8.1686  -8.1640  -8.1639
    -7.6727  -7.6724  -7.6684  -7.6667  -7.4919  -7.4909  -7.4304  -7.4295
    -7.1048  -7.1009  -6.9909  -6.9878  -6.8650  -6.8621  -6.8238  -6.8218
    -6.4031  -6.4025  -6.3751  -6.3743  -6.1974  -6.1974  -6.1876  -6.1874
    -6.1220  -6.1219  -6.1044  -6.1040  -5.8722  -5.8700  -5.7613  -5.7604
    -5.6986  -5.6979  -5.6342  -5.6332  -5.6072  -5.6066  -5.5549  -5.5513
    -5.4287  -5.4265  -5.3259  -5.3209  -5.0472  -5.0456  -4.9984  -4.9960
    -4.8840  -4.8820  -4.7522  -4.7505  -4.7153  -4.7122  -4.6457  -4.6432
    -4.4191  -4.4178  -4.3425  -4.3400  -3.8834  -3.8830  -3.8609  -3.8607
    -3.4991  -3.4963  -3.3786  -3.3766  -3.1792  -3.1788  -3.0252  -3.0245
    -2.9347  -2.9336  -2.9258  -2.9256  -2.4121  -2.4115  -2.4051  -2.4044
    -1.4240  -1.4229  -1.4172  -1.4162  -0.8708  -0.8705  -0.8048  -0.8047
    -0.7529  -0.7527  -0.7520  -0.7520  -0.5916  -0.5910  -0.5858  -0.5854
    -0.4756  -0.4750  -0.4633  -0.4628  -0.0659  -0.0644  -0.0448  -0.0433
     0.1648   0.1653   0.1722   0.1729   0.2478   0.2490   0.3152   0.3169
     0.3317   0.3335   0.4141   0.4152   0.5426   0.5479   0.6621   0.6678
     0.8370   0.8423   0.9520   0.9571   0.9987   0.9997   1.0504   1.0530
     1.4843   1.4847   1.5017   1.5021   3.2762   3.2769   3.2866   3.2874
     3.6773   3.6786   3.6803   3.6815   5.3248   5.3257   5.3428   5.3434
     6.2985   6.3033   6.4183   6.4185   6.4620   6.4640   6.5597   6.5667
     7.5902   7.5916   7.6287   7.6289   7.7424   7.7464   8.0277   8.0325
     8.6030   8.6035   8.6653   8.6664   8.7999   8.8014   8.8644   8.8655
     9.0537   9.0543   9.1621

          k =-0.5000 0.0000-0.2760 (122946 PWs)   bands (ev):

   -23.7821 -23.7817 -23.7799 -23.7795 -23.5745 -23.5745 -23.5732 -23.5732
   -19.3074 -19.3042 -19.3042 -19.3010 -19.0958 -19.0957 -19.0942 -19.0940
   -18.8500 -18.8470 -18.7851 -18.7819 -18.5829 -18.5814 -18.5814 -18.5801
   -16.7550 -16.7505 -16.6896 -16.6852 -15.2905 -15.2870 -15.2854 -15.2822
   -15.1140 -15.1139 -15.0981 -15.0953 -13.5935 -13.5927 -13.5917 -13.5817
   -12.8752 -12.8738 -12.8685 -12.8584 -12.5094 -12.5035 -12.4741 -12.4740
   -10.8879 -10.8864 -10.7914 -10.7812  -9.7206  -9.6943  -9.6782  -9.6706
    -8.7752  -8.7447  -8.6819  -8.6537  -8.2237  -8.2172  -8.1032  -8.1006
    -7.7346  -7.6999  -7.6824  -7.6322  -7.5420  -7.4837  -7.4093  -7.3657
    -7.1029  -7.0988  -7.0081  -6.9997  -6.9361  -6.8505  -6.7724  -6.7580
    -6.3688  -6.3660  -6.3625  -6.3575  -6.2660  -6.2332  -6.1952  -6.1911
    -6.1626  -6.1066  -6.0986  -6.0836  -5.8964  -5.8464  -5.7940  -5.7842
    -5.7453  -5.6842  -5.6515  -5.6300  -5.6111  -5.5767  -5.5536  -5.5434
    -5.4618  -5.3452  -5.3419  -5.3274  -5.0550  -5.0067  -4.9956  -4.9576
    -4.8337  -4.8280  -4.8060  -4.7912  -4.7683  -4.7131  -4.6229  -4.6136
    -4.4338  -4.3858  -4.3669  -4.3203  -4.0181  -3.9864  -3.8219  -3.7991
    -3.5534  -3.5084  -3.3851  -3.2844  -3.1910  -3.1080  -3.0358  -2.9929
    -2.9728  -2.9506  -2.9346  -2.9017  -2.4393  -2.4343  -2.3580  -2.3579
    -1.4717  -1.4644  -1.3625  -1.3613  -0.8757  -0.8677  -0.8021  -0.7994
    -0.7574  -0.7409  -0.7406  -0.7271  -0.6458  -0.6410  -0.5689  -0.5584
    -0.5036  -0.4959  -0.4367  -0.4235  -0.1438  -0.1229  -0.0604  -0.0220
     0.0846   0.0944   0.1517   0.1724   0.3010   0.3441   0.3464   0.3603
     0.3641   0.3738   0.3967   0.3977   0.5600   0.5786   0.6420   0.6524
     0.8444   0.8508   0.9073   0.9201   1.0117   1.0151   1.0576   1.0723
     1.4475   1.4527   1.5271   1.5308   3.2764   3.2949   3.2990   3.3083
     3.5957   3.6036   3.7148   3.7163   5.3195   5.3366   5.3805   5.4016
     6.3418   6.3623   6.3968   6.4102   6.4449   6.4775   6.5055   6.5094
     7.2387   7.2740   7.6369   7.7008   7.9258   8.0750   8.1628   8.2103
     8.3956   8.4709   8.5712   8.7402   8.7494   8.8856   8.9293   8.9969
     9.0557   9.1937   9.2048

     highest occupied, lowest unoccupied level (ev):     1.5308    3.2762

!    total energy              =   -2073.05542233 Ry
     Harris-Foulkes estimate   =   -2073.05542233 Ry
     estimated scf accuracy    <          5.0E-09 Ry

     total all-electron energy =     -7818.559164 Ry

     The total energy is the sum of the following terms:

     one-electron contribution =   -1046.31726104 Ry
     hartree contribution      =     681.61402847 Ry
     xc contribution           =    -422.29188197 Ry
     ewald contribution        =    -710.23802636 Ry
     Dispersion Correction     =      -0.52819955 Ry
     one-center paw contrib.   =    -575.29408187 Ry

     convergence has been achieved in  16 iterations

     Forces acting on atoms (cartesian axes, Ry/au):

     atom    1 type  4   force =    -0.00521485    0.00373240    0.00045344
     atom    2 type  4   force =     0.00538548    0.00387657   -0.00053525
     atom    3 type  4   force =     0.00521485   -0.00373240   -0.00045344
     atom    4 type  4   force =    -0.00538548   -0.00387657    0.00053525
     atom    5 type  4   force =    -0.00429139    0.00101958    0.00110525
     atom    6 type  4   force =     0.00418661    0.00111188   -0.00124135
     atom    7 type  4   force =     0.00429139   -0.00101958   -0.00110525
     atom    8 type  4   force =    -0.00418661   -0.00111188    0.00124135
     atom    9 type  4   force =    -0.00158926    0.00003711   -0.00376219
     atom   10 type  4   force =     0.00139354    0.00001310    0.00379516
     atom   11 type  4   force =     0.00158926   -0.00003711    0.00376219
     atom   12 type  4   force =    -0.00139354   -0.00001310   -0.00379516
     atom   13 type  4   force =     0.00079443    0.00331866   -0.00529057
     atom   14 type  4   force =    -0.00085879    0.00344290    0.00533744
     atom   15 type  4   force =    -0.00079443   -0.00331866    0.00529057
     atom   16 type  4   force =     0.00085879   -0.00344290   -0.00533744
     atom   17 type  4   force =    -0.00198902   -0.00128390   -0.00240697
     atom   18 type  4   force =     0.00169944   -0.00123146    0.00236356
     atom   19 type  4   force =     0.00198902    0.00128390    0.00240697
     atom   20 type  4   force =    -0.00169944    0.00123146   -0.00236356
     atom   21 type  2   force =     0.00854654   -0.00518322   -0.00375496
     atom   22 type  2   force =    -0.00858863   -0.00514042    0.00405241
     atom   23 type  2   force =    -0.00854654    0.00518322    0.00375496
     atom   24 type  2   force =     0.00858863    0.00514042   -0.00405241
     atom   25 type  2   force =     0.00945533   -0.00217596    0.01221062
     atom   26 type  2   force =    -0.00946063   -0.00218037   -0.01206566
     atom   27 type  2   force =    -0.00945533    0.00217596   -0.01221062
     atom   28 type  2   force =     0.00946063    0.00218037    0.01206566
     atom   29 type  2   force =    -0.00331632   -0.00200926   -0.00343936
     atom   30 type  2   force =     0.00330675   -0.00173780    0.00289138
     atom   31 type  2   force =     0.00331632    0.00200926    0.00343936
     atom   32 type  2   force =    -0.00330675    0.00173780   -0.00289138
     atom   33 type  2   force =    -0.00127012    0.00466116   -0.00802112
     atom   34 type  2   force =     0.00196972    0.00467466    0.00837650
     atom   35 type  2   force =     0.00127012   -0.00466116    0.00802112
     atom   36 type  2   force =    -0.00196972   -0.00467466   -0.00837650
     atom   37 type  3   force =    -0.00055802    0.00367873    0.00193596
     atom   38 type  3   force =     0.00008797    0.00381104   -0.00178106
     atom   39 type  3   force =     0.00055802   -0.00367873   -0.00193596
     atom   40 type  3   force =    -0.00008797   -0.00381104    0.00178106
     atom   41 type  2   force =     0.00560132    0.00668532    0.00047254
     atom   42 type  2   force =    -0.00582958    0.00661303   -0.00047727
     atom   43 type  2   force =    -0.00560132   -0.00668532   -0.00047254
     atom   44 type  2   force =     0.00582958   -0.00661303    0.00047727
     atom   45 type  3   force =    -0.00050599   -0.00138344    0.00017584
     atom   46 type  3   force =     0.00072981   -0.00118299   -0.00006512
     atom   47 type  3   force =     0.00050599    0.00138344   -0.00017584
     atom   48 type  3   force =    -0.00072981    0.00118299    0.00006512
     atom   49 type  3   force =     0.00083703   -0.00135156   -0.00198037
     atom   50 type  3   force =    -0.00097626   -0.00126050    0.00209995
     atom   51 type  3   force =    -0.00083703    0.00135156    0.00198037
     atom   52 type  3   force =     0.00097626    0.00126050   -0.00209995
     atom   53 type  2   force =    -0.00331498   -0.00339100   -0.00058520
     atom   54 type  2   force =     0.00357002   -0.00347508    0.00036332
     atom   55 type  2   force =     0.00331498    0.00339100    0.00058520
     atom   56 type  2   force =    -0.00357002    0.00347508   -0.00036332
     atom   57 type  3   force =     0.00011658    0.00098849    0.00127354
     atom   58 type  3   force =    -0.00022410    0.00074003   -0.00123483
     atom   59 type  3   force =    -0.00011658   -0.00098849   -0.00127354
     atom   60 type  3   force =     0.00022410   -0.00074003    0.00123483
     atom   61 type  3   force =    -0.00119303   -0.00023151    0.00005132
     atom   62 type  3   force =     0.00107026   -0.00010652    0.00007856
     atom   63 type  3   force =     0.00119303    0.00023151   -0.00005132
     atom   64 type  3   force =    -0.00107026    0.00010652   -0.00007856
     atom   65 type  1   force =     0.00068244   -0.00334417   -0.00512505
     atom   66 type  1   force =    -0.00035797   -0.00357776    0.00515846
     atom   67 type  1   force =    -0.00068244    0.00334417    0.00512505
     atom   68 type  1   force =     0.00035797    0.00357776   -0.00515846
     atom   69 type  1   force =     0.00104561    0.00095863    0.01257676
     atom   70 type  1   force =    -0.00088037    0.00095794   -0.01233432
     atom   71 type  1   force =    -0.00104561   -0.00095863   -0.01257676
     atom   72 type  1   force =     0.00088037   -0.00095794    0.01233432
     atom   73 type  1   force =     0.01739908   -0.00921917    0.00387059
     atom   74 type  1   force =    -0.01748162   -0.00943291   -0.00389092
     atom   75 type  1   force =    -0.01739908    0.00921917   -0.00387059
     atom   76 type  1   force =     0.01748162    0.00943291    0.00389092
     atom   77 type  3   force =    -0.00043630    0.00065420   -0.00293675
     atom   78 type  3   force =     0.00049556    0.00068148    0.00299560
     atom   79 type  3   force =     0.00043630   -0.00065420    0.00293675
     atom   80 type  3   force =    -0.00049556   -0.00068148   -0.00299560
     atom   81 type  1   force =    -0.00878363    0.00577410    0.00596757
     atom   82 type  1   force =     0.00870321    0.00565332   -0.00591878
     atom   83 type  1   force =     0.00878363   -0.00577410   -0.00596757
     atom   84 type  1   force =    -0.00870321   -0.00565332    0.00591878
     atom   85 type  1   force =     0.00355906    0.00923174   -0.01101537
     atom   86 type  1   force =    -0.00354063    0.00923548    0.01089153
     atom   87 type  1   force =    -0.00355906   -0.00923174    0.01101537
     atom   88 type  1   force =     0.00354063   -0.00923548   -0.01089153
     atom   89 type  3   force =     0.00235145    0.00028845    0.00131029
     atom   90 type  3   force =    -0.00226790    0.00031275   -0.00104279
     atom   91 type  3   force =    -0.00235145   -0.00028845   -0.00131029
     atom   92 type  3   force =     0.00226790   -0.00031275    0.00104279
     atom   93 type  1   force =    -0.02151407   -0.00424624   -0.00254462
     atom   94 type  1   force =     0.02164932   -0.00435496    0.00263050
     atom   95 type  1   force =     0.02151407    0.00424624    0.00254462
     atom   96 type  1   force =    -0.02164932    0.00435496   -0.00263050
     atom   97 type  3   force =     0.00162574   -0.00105112    0.00222059
     atom   98 type  3   force =    -0.00166834   -0.00109744   -0.00224939
     atom   99 type  3   force =    -0.00162574    0.00105112   -0.00222059
     atom  100 type  3   force =     0.00166834    0.00109744    0.00224939
     atom  101 type  1   force =    -0.00361211   -0.00813050    0.00717487
     atom  102 type  1   force =     0.00397184   -0.00822322   -0.00703039
     atom  103 type  1   force =     0.00361211    0.00813050   -0.00717487
     atom  104 type  1   force =    -0.00397184    0.00822322    0.00703039
     atom  105 type  3   force =     0.00158758   -0.00083000    0.00084207
     atom  106 type  3   force =    -0.00124548   -0.00095738   -0.00137477
     atom  107 type  3   force =    -0.00158758    0.00083000   -0.00084207
     atom  108 type  3   force =     0.00124548    0.00095738    0.00137477
     atom  109 type  3   force =     0.00606349    0.00138110    0.00151443
     atom  110 type  3   force =    -0.00688261    0.00159506   -0.00105611
     atom  111 type  3   force =    -0.00606349   -0.00138110   -0.00151443
     atom  112 type  3   force =     0.00688261   -0.00159506    0.00105611

     Total force =     0.097927     Total SCF correction =     0.000150


     Computing stress (Cartesian axis) and pressure

          total   stress  (Ry/bohr**3)                   (kbar)     P=   -6.92
  -0.00006421   0.00000090   0.00006188         -9.45      0.13      9.10
   0.00000090  -0.00005120  -0.00000098          0.13     -7.53     -0.14
   0.00006188  -0.00000098  -0.00002573          9.10     -0.14     -3.79


     Writing output data file scf.save
 
     init_run     :     56.15s CPU     58.06s WALL (       1 calls)
     electrons    :   1872.85s CPU   1941.31s WALL (       1 calls)
     forces       :     31.12s CPU     31.39s WALL (       1 calls)
     stress       :    133.02s CPU    133.48s WALL (       1 calls)

     Called by init_run:
     wfcinit      :     44.32s CPU     46.05s WALL (       1 calls)
     potinit      :      4.25s CPU      4.29s WALL (       1 calls)

     Called by electrons:
     c_bands      :   1689.06s CPU   1746.23s WALL (      16 calls)
     sum_band     :    167.68s CPU    177.15s WALL (      16 calls)
     v_of_rho     :      2.21s CPU      2.46s WALL (      17 calls)
     newd         :      6.15s CPU      7.61s WALL (      17 calls)
     PAW_pot      :      7.27s CPU      7.28s WALL (      17 calls)
     mix_rho      :      0.48s CPU      0.55s WALL (      16 calls)

     Called by c_bands:
     init_us_2    :      7.64s CPU      7.69s WALL (     210 calls)
     cegterg      :   1656.98s CPU   1714.09s WALL (      96 calls)

     Called by sum_band:
     sum_band:bec :      0.09s CPU      0.10s WALL (      96 calls)
     addusdens    :      6.08s CPU      7.48s WALL (      16 calls)

     Called by *egterg:
     h_psi        :    833.86s CPU    878.11s WALL (     603 calls)
     s_psi        :    220.76s CPU    220.85s WALL (     603 calls)
     g_psi        :      3.65s CPU      3.66s WALL (     501 calls)
     cdiaghg      :    127.02s CPU    127.05s WALL (     597 calls)

     Called by h_psi:
     h_psi:pot    :    828.63s CPU    872.79s WALL (     603 calls)
     h_psi:calbec :    212.69s CPU    212.99s WALL (     603 calls)
     vloc_psi     :    394.96s CPU    438.72s WALL (     603 calls)
     add_vuspsi   :    220.98s CPU    221.06s WALL (     603 calls)

     General routines
     calbec       :    313.53s CPU    314.04s WALL (     729 calls)
     fft          :      1.51s CPU      1.94s WALL (     245 calls)
     fftw         :    427.34s CPU    478.39s WALL (  143800 calls)
 
     Parallel routines
     fft_scatter  :     89.69s CPU    137.23s WALL (  144045 calls)
 
     PWSCF        : 35m 5.15s CPU    36m54.50s WALL

 
   This run was terminated on:   6:18:49   4Nov2017            

=------------------------------------------------------------------------------=
   JOB DONE.
=------------------------------------------------------------------------------=
