
     Program PWSCF v.6.1 (svn rev. 13369) starts on  4Nov2017 at  0:37: 7 

     This program is part of the open-source Quantum ESPRESSO suite
     for quantum simulation of materials; please cite
         "P. Giannozzi et al., J. Phys.:Condens. Matter 21 395502 (2009);
          URL http://www.quantum-espresso.org", 
     in publications or presentations arising from this work. More details at
     http://www.quantum-espresso.org/quote

     Parallel version (MPI), running on     8 processors
     R & G space division:  proc/nbgrp/npool/nimage =       8
     Waiting for input...
     Reading input from standard input

     Current dimensions of program PWSCF are:
     Max number of different atomic species (ntypx) = 10
     Max number of k-points (npk) =  40000
     Max angular momentum in pseudopotentials (lmaxx) =  3
               file C.pbe-n-kjpaw_psl.0.1.UPF: wavefunction(s)  2P renormalized
               file N.pbe-n-kjpaw_psl.0.1.UPF: wavefunction(s)  2P renormalized
               file H.pbe-kjpaw_psl.0.1.UPF: wavefunction(s)  1S renormalized
               file O.pbe-n-kjpaw_psl.0.1.UPF: wavefunction(s)  2P renormalized

     -------------------------------------
     Parameters for Dispersion Correction:
     -------------------------------------
       atom      VdW radius       C_6     

        C          2.744         60.710
        N          2.640         42.670
        H          1.892          4.857
        O          2.536         24.284

     Subspace diagonalization in iterative solution of the eigenvalue problem:
     a serial algorithm will be used

 
     Parallelization info
     --------------------
     sticks:   dense  smooth     PW     G-vecs:    dense   smooth      PW
     Min        1918    1918    504               154314   154314   20846
     Max        1919    1919    505               154317   154317   20849
     Sum       15347   15347   4039              1234523  1234523  166783
 


     bravais-lattice index     =            0
     lattice parameter (alat)  =      21.2245  a.u.
     unit-cell volume          =    9137.4256 (a.u.)^3
     number of atoms/cell      =          116
     number of atomic types    =            4
     number of electrons       =       528.00
     number of Kohn-Sham states=          316
     kinetic-energy cutoff     =     100.0000  Ry
     charge density cutoff     =     400.0000  Ry
     convergence threshold     =      1.0E-08
     mixing beta               =       0.5000
     number of iterations used =            8  plain     mixing
     Exchange-correlation      =  SLA  PW   PBX  PBC ( 1  4  3  4 0 0)

     celldm(1)=  21.224459  celldm(2)=   0.000000  celldm(3)=   0.000000
     celldm(4)=   0.000000  celldm(5)=   0.000000  celldm(6)=   0.000000

     crystal axes: (cart. coord. in units of alat)
               a(1) = (   1.000000   0.000000   0.000000 )  
               a(2) = (   0.000000   1.070133   0.000000 )  
               a(3) = (   0.000000   0.000000   0.893051 )  

     reciprocal axes: (cart. coord. in units 2 pi/alat)
               b(1) = (  1.000000  0.000000  0.000000 )  
               b(2) = (  0.000000  0.934463  0.000000 )  
               b(3) = (  0.000000  0.000000  1.119757 )  


     PseudoPot. # 1 for  C read from file:
     /scratch/ahofstet/pseudo/C.pbe-n-kjpaw_psl.0.1.UPF
     MD5 check sum: 430fe95172b1e11ef3f8ed03bac87931
     Pseudo is Projector augmented-wave + core cor, Zval =  4.0
     Generated using "atomic" code by A. Dal Corso  v.5.0.99 svn rev. 10869
     Shape of augmentation charge: BESSEL
     Using radial grid of 1073 points,  4 beta functions with: 
                l(1) =   0
                l(2) =   0
                l(3) =   1
                l(4) =   1
     Q(r) pseudized with 0 coefficients 


     PseudoPot. # 2 for  N read from file:
     /scratch/ahofstet/pseudo/N.pbe-n-kjpaw_psl.0.1.UPF
     MD5 check sum: f73187c8b701007e77325f868c9291d7
     Pseudo is Projector augmented-wave + core cor, Zval =  5.0
     Generated using "atomic" code by A. Dal Corso  v.5.0.99 svn rev. 10869
     Shape of augmentation charge: PSQ
     Using radial grid of 1085 points,  4 beta functions with: 
                l(1) =   0
                l(2) =   0
                l(3) =   1
                l(4) =   1
     Q(r) pseudized with 0 coefficients 


     PseudoPot. # 3 for  H read from file:
     /scratch/ahofstet/pseudo/H.pbe-kjpaw_psl.0.1.UPF
     MD5 check sum: 94e484f906d9e9773b2f6e52662335b2
     Pseudo is Projector augmented-wave, Zval =  1.0
     Generated using "atomic" code by A. Dal Corso  v.5.0.99 svn rev. 10869
     Shape of augmentation charge: PSQ
     Using radial grid of  929 points,  2 beta functions with: 
                l(1) =   0
                l(2) =   0
     Q(r) pseudized with 0 coefficients 


     PseudoPot. # 4 for  O read from file:
     /scratch/ahofstet/pseudo/O.pbe-n-kjpaw_psl.0.1.UPF
     MD5 check sum: 3f94a2996a3169367d6eb21d9b593f20
     Pseudo is Projector augmented-wave + core cor, Zval =  6.0
     Generated using "atomic" code by A. Dal Corso  v.5.0.99 svn rev. 10869
     Shape of augmentation charge: BESSEL
     Using radial grid of 1095 points,  4 beta functions with: 
                l(1) =   0
                l(2) =   0
                l(3) =   1
                l(4) =   1
     Q(r) pseudized with 0 coefficients 


     atomic species   valence    mass     pseudopotential
        C              4.00    12.01070      C( 1.00)
        N              5.00    14.00670      N( 1.00)
        H              1.00     1.00794      H( 1.00)
        O              6.00    15.99940      O( 1.00)

     No symmetry found
          (note:  3 additional sym.ops. were found but ignored
           their fractional translations are incommensurate with FFT grid)


   Cartesian axes

     site n.     atom                  positions (alat units)
         1           N   tau(   1) = (   0.1707662   0.8366669   0.1699643  )
         2           N   tau(   2) = (   0.8292338   0.2334662   0.6164897  )
         3           N   tau(   3) = (   0.6707662   0.7685327   0.1699643  )
         4           N   tau(   4) = (   0.3292338   0.3016004   0.6164897  )
         5           C   tau(   5) = (   0.2017562   0.7228525   0.1413071  )
         6           C   tau(   6) = (   0.7982438   0.3472806   0.5878325  )
         7           C   tau(   7) = (   0.7017562   0.8823471   0.1413071  )
         8           C   tau(   8) = (   0.2982438   0.1877860   0.5878325  )
         9           N   tau(   9) = (   0.3044132   0.6910124   0.0931724  )
        10           N   tau(  10) = (   0.6955868   0.3791207   0.5396978  )
        11           N   tau(  11) = (   0.8044132   0.9141873   0.0931724  )
        12           N   tau(  12) = (   0.1955868   0.1559458   0.5396978  )
        13           O   tau(  13) = (   0.2969079   0.5692685   0.0817970  )
        14           O   tau(  14) = (   0.7030921   0.5008646   0.5283224  )
        15           O   tau(  15) = (   0.7969079   1.0359311   0.0817970  )
        16           O   tau(  16) = (   0.2030921   0.0342020   0.5283224  )
        17           N   tau(  17) = (   0.1893981   0.5239126   0.1230646  )
        18           N   tau(  18) = (   0.8106019   0.5462205   0.5695900  )
        19           N   tau(  19) = (   0.6893981   0.0111540   0.1230646  )
        20           N   tau(  20) = (   0.3106019   1.0589791   0.5695900  )
        21           C   tau(  21) = (   0.1310763   0.6181724   0.1591818  )
        22           C   tau(  22) = (   0.8689237   0.4519607   0.6057072  )
        23           C   tau(  23) = (   0.6310763   0.9870272   0.1591818  )
        24           C   tau(  24) = (   0.3689237   0.0831059   0.6057072  )
        25           C   tau(  25) = (   0.0192753   0.6359358   0.2168827  )
        26           C   tau(  26) = (   0.9807247   0.4341973   0.6634081  )
        27           C   tau(  27) = (   0.5192753   0.9692638   0.2168827  )
        28           C   tau(  28) = (   0.4807247   0.1008693   0.6634081  )
        29           N   tau(  29) = (   0.9366878   0.5617774   0.2530811  )
        30           N   tau(  30) = (   0.0633122   0.5083557   0.6996065  )
        31           N   tau(  31) = (   0.4366878   1.0434222   0.2530811  )
        32           N   tau(  32) = (   0.5633122   0.0267109   0.6996065  )
        33           O   tau(  33) = (   0.8573726   0.6330757   0.3142680  )
        34           O   tau(  34) = (   0.1426274   0.4370574   0.7607934  )
        35           O   tau(  35) = (   0.3573726   0.9721240   0.3142680  )
        36           O   tau(  36) = (   0.6426274   0.0980092   0.7607934  )
        37           N   tau(  37) = (   0.8899295   0.7507819   0.3153105  )
        38           N   tau(  38) = (   0.1100705   0.3193512   0.7618359  )
        39           N   tau(  39) = (   0.3899295   0.8544178   0.3153105  )
        40           N   tau(  40) = (   0.6100705   0.2157153   0.7618359  )
        41           C   tau(  41) = (   0.9903914   0.7544405   0.2546105  )
        42           C   tau(  42) = (   0.0096086   0.3156926   0.7011359  )
        43           C   tau(  43) = (   0.4903914   0.8507592   0.2546105  )
        44           C   tau(  44) = (   0.5096086   0.2193740   0.7011359  )
        45           C   tau(  45) = (   0.0701185   0.8526476   0.2249621  )
        46           C   tau(  46) = (   0.9298815   0.2174855   0.6714875  )
        47           C   tau(  47) = (   0.5701185   0.7525520   0.2249621  )
        48           C   tau(  48) = (   0.4298815   0.3175811   0.6714875  )
        49           N   tau(  49) = (   0.0410116   0.9699032   0.2548300  )
        50           N   tau(  50) = (   0.9589884   0.1002299   0.7013554  )
        51           N   tau(  51) = (   0.5410116   0.6352965   0.2548300  )
        52           N   tau(  52) = (   0.4589884   0.4348366   0.7013554  )
        53           N   tau(  53) = (   0.9544560   0.9943798   0.3385266  )
        54           N   tau(  54) = (   0.0455440   0.0757533   0.7850520  )
        55           N   tau(  55) = (   0.4544560   0.6108198   0.3385266  )
        56           N   tau(  56) = (   0.5455440   0.4593133   0.7850520  )
        57           N   tau(  57) = (   0.9527180   0.0371540   0.3591805  )
        58           N   tau(  58) = (   0.0472820   1.0329791   0.8057059  )
        59           N   tau(  59) = (   0.4527180   0.4979125   0.3591805  )
        60           N   tau(  60) = (   0.5472820   0.5722206   0.8057059  )
        61           C   tau(  61) = (   0.0384774   0.0914994   0.2899600  )
        62           C   tau(  62) = (   0.9615226   0.9786337   0.7364854  )
        63           C   tau(  63) = (   0.5384774   0.4435672   0.2899600  )
        64           C   tau(  64) = (   0.4615226   0.6265660   0.7364854  )
        65           C   tau(  65) = (   0.0775161   0.2101893   0.2828824  )
        66           C   tau(  66) = (   0.9224839   0.8599438   0.7294078  )
        67           C   tau(  67) = (   0.5775161   0.3248773   0.2828824  )
        68           C   tau(  68) = (   0.4224839   0.7452558   0.7294078  )
        69           N   tau(  69) = (   0.0214833   0.3037633   0.3539850  )
        70           N   tau(  70) = (   0.9785167   0.7663698   0.8005104  )
        71           N   tau(  71) = (   0.5214833   0.2313033   0.3539850  )
        72           N   tau(  72) = (   0.4785167   0.8388298   0.8005104  )
        73           O   tau(  73) = (   0.0859887   0.3827449   0.3945233  )
        74           O   tau(  74) = (   0.9140113   0.6873882   0.8410487  )
        75           O   tau(  75) = (   0.5859887   0.1523216   0.3945233  )
        76           O   tau(  76) = (   0.4140113   0.9178115   0.8410487  )
        77           O   tau(  77) = (   0.9126952   0.2965113   0.3681905  )
        78           O   tau(  78) = (   0.0873048   0.7736218   0.8147159  )
        79           O   tau(  79) = (   0.4126952   0.2385552   0.3681905  )
        80           O   tau(  80) = (   0.5873048   0.8315779   0.8147159  )
        81           C   tau(  81) = (   0.1702902   0.2395495   0.2080641  )
        82           C   tau(  82) = (   0.8297098   0.8305836   0.6545895  )
        83           C   tau(  83) = (   0.6702902   0.2955171   0.2080641  )
        84           C   tau(  84) = (   0.3297098   0.7746160   0.6545895  )
        85           H   tau(  85) = (   0.2017899   0.3308306   0.2014174  )
        86           H   tau(  86) = (   0.7982101   0.7393025   0.6479428  )
        87           H   tau(  87) = (   0.7017899   0.2042360   0.2014174  )
        88           H   tau(  88) = (   0.2982101   0.8658971   0.6479428  )
        89           C   tau(  89) = (   0.2203265   0.1499080   0.1370871  )
        90           C   tau(  90) = (   0.7796735   0.9202251   0.5836125  )
        91           C   tau(  91) = (   0.7203265   0.3851585   0.1370871  )
        92           C   tau(  92) = (   0.2796735   0.6849746   0.5836125  )
        93           N   tau(  93) = (   0.3155132   0.1839512   0.0539818  )
        94           N   tau(  94) = (   0.6844868   0.8861819   0.5005072  )
        95           N   tau(  95) = (   0.8155132   0.3511153   0.0539818  )
        96           N   tau(  96) = (   0.1844868   0.7190178   0.5005072  )
        97           O   tau(  97) = (   0.3522491   0.1059554   0.8789348  )
        98           O   tau(  98) = (   0.6477509   0.9641777   0.4324094  )
        99           O   tau(  99) = (   0.8522491   0.4291112   0.8789348  )
       100           O   tau( 100) = (   0.1477509   0.6410219   0.4324094  )
       101           O   tau( 101) = (   0.3531733   0.2872442   0.0569633  )
       102           O   tau( 102) = (   0.6468267   0.7828889   0.5034887  )
       103           O   tau( 103) = (   0.8531733   0.2478224   0.0569633  )
       104           O   tau( 104) = (   0.1468267   0.8223107   0.5034887  )
       105           C   tau( 105) = (   0.1869625   0.0309125   0.1405133  )
       106           C   tau( 106) = (   0.8130375   1.0392206   0.5870387  )
       107           C   tau( 107) = (   0.6869625   0.5041541   0.1405133  )
       108           C   tau( 108) = (   0.3130375   0.5659790   0.5870387  )
       109           H   tau( 109) = (   0.2283438   1.0348671   0.0837030  )
       110           H   tau( 110) = (   0.7716562   0.0352660   0.5302284  )
       111           H   tau( 111) = (   0.7283438   0.5703326   0.0837030  )
       112           H   tau( 112) = (   0.2716562   0.4998005   0.5302284  )
       113           C   tau( 113) = (   0.0968595   0.0041885   0.2214342  )
       114           C   tau( 114) = (   0.9031405   1.0659446   0.6679596  )
       115           C   tau( 115) = (   0.5968595   0.5308780   0.2214342  )
       116           C   tau( 116) = (   0.4031405   0.5392551   0.6679596  )

     number of k points=     8
                       cart. coord. in units 2pi/alat
        k(    1) = (   0.0000000   0.0000000   0.0000000), wk =   0.2500000
        k(    2) = (   0.0000000   0.0000000  -0.5598786), wk =   0.2500000
        k(    3) = (   0.0000000  -0.4672316   0.0000000), wk =   0.2500000
        k(    4) = (   0.0000000  -0.4672316  -0.5598786), wk =   0.2500000
        k(    5) = (  -0.5000000   0.0000000   0.0000000), wk =   0.2500000
        k(    6) = (  -0.5000000   0.0000000  -0.5598786), wk =   0.2500000
        k(    7) = (  -0.5000000  -0.4672316   0.0000000), wk =   0.2500000
        k(    8) = (  -0.5000000  -0.4672316  -0.5598786), wk =   0.2500000

     Dense  grid:  1234523 G-vectors     FFT dimensions: ( 135, 150, 125)

     Estimated max dynamical RAM per process >    1984.06MB

     Estimated total allocated dynamical RAM >   15872.50MB

     Check: negative/imaginary core charge=   -0.000002    0.000000

     Initial potential from superposition of free atoms

     starting charge  527.99777, renormalised to  528.00000
     Starting wfc are  440 randomized atomic wfcs
     Checking if some PAW data can be deallocated... 

     total cpu time spent up to now is      110.3 secs

     per-process dynamical memory:  1266.6 Mb

     Self-consistent Calculation

     iteration #  1     ecut=   100.00 Ry     beta=0.50
     Davidson diagonalization with overlap
     ethr =  1.00E-02,  avg # of iterations =  3.0

     total cpu time spent up to now is      473.4 secs

     total energy              =   -2943.28586885 Ry
     Harris-Foulkes estimate   =   -2949.21563016 Ry
     estimated scf accuracy    <      11.07043821 Ry

     iteration #  2     ecut=   100.00 Ry     beta=0.50
     Davidson diagonalization with overlap
     ethr =  2.10E-03,  avg # of iterations =  3.0

     total cpu time spent up to now is      704.6 secs

     total energy              =   -2944.57586081 Ry
     Harris-Foulkes estimate   =   -2946.12418747 Ry
     estimated scf accuracy    <       3.29557119 Ry

     iteration #  3     ecut=   100.00 Ry     beta=0.50
     Davidson diagonalization with overlap
     ethr =  6.24E-04,  avg # of iterations = 13.4

     total cpu time spent up to now is     1039.4 secs

     total energy              =   -2945.35635209 Ry
     Harris-Foulkes estimate   =   -2945.61743376 Ry
     estimated scf accuracy    <       0.60390436 Ry

     iteration #  4     ecut=   100.00 Ry     beta=0.50
     Davidson diagonalization with overlap
     ethr =  1.14E-04,  avg # of iterations = 13.6

     total cpu time spent up to now is     1346.7 secs

     total energy              =   -2945.45682010 Ry
     Harris-Foulkes estimate   =   -2945.55409820 Ry
     estimated scf accuracy    <       0.25078341 Ry

     iteration #  5     ecut=   100.00 Ry     beta=0.50
     Davidson diagonalization with overlap
     ethr =  4.75E-05,  avg # of iterations =  3.6

     total cpu time spent up to now is     1559.3 secs

     total energy              =   -2945.50798391 Ry
     Harris-Foulkes estimate   =   -2945.52297781 Ry
     estimated scf accuracy    <       0.04374454 Ry

     iteration #  6     ecut=   100.00 Ry     beta=0.50
     Davidson diagonalization with overlap
     ethr =  8.28E-06,  avg # of iterations =  8.9

     total cpu time spent up to now is     1937.5 secs

     total energy              =   -2945.52241381 Ry
     Harris-Foulkes estimate   =   -2945.52568052 Ry
     estimated scf accuracy    <       0.00895843 Ry

     iteration #  7     ecut=   100.00 Ry     beta=0.50
     Davidson diagonalization with overlap
     ethr =  1.70E-06,  avg # of iterations =  2.0

     total cpu time spent up to now is     2141.8 secs

     total energy              =   -2945.52388673 Ry
     Harris-Foulkes estimate   =   -2945.52444175 Ry
     estimated scf accuracy    <       0.00168240 Ry

     iteration #  8     ecut=   100.00 Ry     beta=0.50
     Davidson diagonalization with overlap
     ethr =  3.19E-07,  avg # of iterations =  3.0

     total cpu time spent up to now is     2383.3 secs

     total energy              =   -2945.52428598 Ry
     Harris-Foulkes estimate   =   -2945.52439692 Ry
     estimated scf accuracy    <       0.00033137 Ry

     iteration #  9     ecut=   100.00 Ry     beta=0.50
     Davidson diagonalization with overlap
     ethr =  6.28E-08,  avg # of iterations =  3.0

     total cpu time spent up to now is     2650.7 secs

     total energy              =   -2945.52437409 Ry
     Harris-Foulkes estimate   =   -2945.52443903 Ry
     estimated scf accuracy    <       0.00019960 Ry

     iteration # 10     ecut=   100.00 Ry     beta=0.50
     Davidson diagonalization with overlap
     ethr =  3.78E-08,  avg # of iterations =  2.0

     total cpu time spent up to now is     2850.1 secs

     total energy              =   -2945.52440462 Ry
     Harris-Foulkes estimate   =   -2945.52441062 Ry
     estimated scf accuracy    <       0.00001625 Ry

     iteration # 11     ecut=   100.00 Ry     beta=0.50
     Davidson diagonalization with overlap
     ethr =  3.08E-09,  avg # of iterations =  4.0

     total cpu time spent up to now is     3184.3 secs

     total energy              =   -2945.52441012 Ry
     Harris-Foulkes estimate   =   -2945.52441284 Ry
     estimated scf accuracy    <       0.00000803 Ry

     iteration # 12     ecut=   100.00 Ry     beta=0.50
     Davidson diagonalization with overlap
     ethr =  1.52E-09,  avg # of iterations =  2.0

     total cpu time spent up to now is     3384.5 secs

     total energy              =   -2945.52441124 Ry
     Harris-Foulkes estimate   =   -2945.52441202 Ry
     estimated scf accuracy    <       0.00000240 Ry

     iteration # 13     ecut=   100.00 Ry     beta=0.50
     Davidson diagonalization with overlap
     ethr =  4.54E-10,  avg # of iterations =  3.0

     total cpu time spent up to now is     3595.4 secs

     total energy              =   -2945.52441171 Ry
     Harris-Foulkes estimate   =   -2945.52441187 Ry
     estimated scf accuracy    <       0.00000044 Ry

     iteration # 14     ecut=   100.00 Ry     beta=0.50
     Davidson diagonalization with overlap
     ethr =  8.37E-11,  avg # of iterations =  3.2

     total cpu time spent up to now is     3871.0 secs

     total energy              =   -2945.52441185 Ry
     Harris-Foulkes estimate   =   -2945.52441189 Ry
     estimated scf accuracy    <       0.00000012 Ry

     iteration # 15     ecut=   100.00 Ry     beta=0.50
     Davidson diagonalization with overlap
     ethr =  2.21E-11,  avg # of iterations =  2.0

     total cpu time spent up to now is     4066.5 secs

     total energy              =   -2945.52441186 Ry
     Harris-Foulkes estimate   =   -2945.52441187 Ry
     estimated scf accuracy    <       0.00000003 Ry

     iteration # 16     ecut=   100.00 Ry     beta=0.50
     Davidson diagonalization with overlap
     ethr =  4.77E-12,  avg # of iterations =  3.1

     total cpu time spent up to now is     4368.0 secs

     total energy              =   -2945.52441187 Ry
     Harris-Foulkes estimate   =   -2945.52441188 Ry
     estimated scf accuracy    <       0.00000001 Ry

     iteration # 17     ecut=   100.00 Ry     beta=0.50
     Davidson diagonalization with overlap
     ethr =  2.62E-12,  avg # of iterations =  3.6

     total cpu time spent up to now is     4570.4 secs

     End of self-consistent calculation

          k = 0.0000 0.0000 0.0000 (154339 PWs)   bands (ev):

   -23.3314 -23.3301 -23.3290 -23.3286 -23.2899 -23.2898 -23.2896 -23.2891
   -22.6525 -22.6503 -22.6497 -22.6484 -22.4407 -22.4404 -22.4387 -22.4372
   -20.7201 -20.7184 -20.7128 -20.7122 -18.9083 -18.9069 -18.9038 -18.9033
   -18.8464 -18.8463 -18.8453 -18.8439 -17.7269 -17.7264 -17.7253 -17.7219
   -16.1220 -16.1087 -16.0970 -16.0781 -15.8128 -15.8084 -15.7921 -15.7803
   -15.4740 -15.4608 -15.4565 -15.4469 -15.1699 -15.1610 -15.1556 -15.1395
   -14.5968 -14.5807 -14.5727 -14.5446 -14.0307 -14.0273 -14.0150 -14.0109
   -13.2302 -13.2232 -13.2086 -13.1950 -12.8615 -12.8521 -12.8410 -12.8403
   -10.9836 -10.9698 -10.9689 -10.9608 -10.5905 -10.5434 -10.5101 -10.5055
   -10.4647 -10.4412 -10.4370 -10.4165 -10.2954 -10.2846 -10.2684 -10.2371
    -9.6378  -9.6361  -9.6277  -9.6201  -8.8832  -8.8740  -8.8683  -8.8613
    -8.2870  -8.2669  -8.2574  -8.2494  -7.5430  -7.5113  -7.5100  -7.4830
    -7.3926  -7.3475  -7.3468  -7.3384  -6.8107  -6.7672  -6.7667  -6.7630
    -6.6640  -6.6584  -6.6573  -6.6441  -6.3675  -6.2947  -6.2877  -6.2709
    -6.1673  -6.1438  -6.1311  -6.0836  -5.8144  -5.7989  -5.7356  -5.7174
    -5.6770  -5.6731  -5.6700  -5.6518  -5.5692  -5.5071  -5.5001  -5.4878
    -5.4801  -5.4500  -5.4304  -5.3827  -5.3177  -5.3126  -5.2910  -5.2719
    -5.2698  -5.2597  -5.1822  -5.1662  -5.1062  -5.1042  -5.0971  -5.0224
    -4.9946  -4.9330  -4.9174  -4.8606  -4.8214  -4.7907  -4.7848  -4.6669
    -4.6595  -4.6423  -4.5876  -4.5499  -4.2264  -4.2254  -4.1586  -4.1337
    -3.3860  -3.3616  -3.3304  -3.3109  -3.2992  -3.2602  -3.2302  -3.2133
    -3.0666  -3.0132  -3.0004  -2.8963  -2.6902  -2.6376  -2.6193  -2.6062
    -2.4699  -2.4452  -2.4420  -2.4049  -2.1379  -2.0647  -1.9264  -1.9216
    -1.6647  -1.6134  -1.6080  -1.5772  -1.5176  -1.5012  -1.4997  -1.4538
    -1.2926  -1.2688  -1.2441  -1.2440  -1.2397  -1.1921  -1.1410  -1.0059
    -0.9627  -0.9161  -0.9126  -0.9020  -0.7985  -0.7494  -0.7383  -0.7247
    -0.3738  -0.3640  -0.3623  -0.2705  -0.2634  -0.2485  -0.2461  -0.2047
    -0.1868  -0.1663  -0.1202  -0.1087  -0.0976  -0.0564  -0.0366  -0.0361
     0.0095   0.0242   0.0526   0.0569   0.0944   0.1263   0.1382   0.2005
     0.2615   0.2766   0.2896   0.3028   0.4092   0.4293   0.4403   0.4476
     0.4494   0.4506   0.4920   0.4946   0.5277   0.5349   0.5511   0.5712
     0.6744   0.6807   0.7044   0.7127   0.8155   0.8362   0.8655   0.8707
     0.8836   0.9374   0.9619   0.9965   1.2029   1.2136   1.2285   1.2817
     3.5778   3.6184   3.6672   3.8112   3.9944   4.0750   4.1234   4.1592
     4.2456   4.2646   4.3127   4.3650   4.3737   4.4419   4.4901   4.6333
     5.3322   5.4330   5.4487   5.4772   6.0967   6.2095   6.2230   6.2386
     6.6687   6.7223   6.8182   6.8607   6.9271   6.9402   7.0381   7.1196
     7.2995   7.3571   7.3968   7.4892   8.0079   8.0491   8.2169   8.2344
     8.2430   8.3358   8.3520   8.4158   8.4484   8.5723   8.6633   8.8900
     8.9162   8.9561   8.9839   9.0846

          k = 0.0000 0.0000-0.5599 (154372 PWs)   bands (ev):

   -23.3307 -23.3307 -23.3288 -23.3288 -23.2897 -23.2897 -23.2896 -23.2896
   -22.6511 -22.6511 -22.6494 -22.6494 -22.4397 -22.4397 -22.4388 -22.4388
   -20.7164 -20.7164 -20.7153 -20.7153 -18.9077 -18.9076 -18.9036 -18.9036
   -18.8458 -18.8457 -18.8451 -18.8450 -17.7266 -17.7266 -17.7236 -17.7236
   -16.1155 -16.1154 -16.0878 -16.0878 -15.8102 -15.8102 -15.7863 -15.7863
   -15.4663 -15.4663 -15.4518 -15.4518 -15.1642 -15.1641 -15.1512 -15.1511
   -14.5882 -14.5882 -14.5576 -14.5576 -14.0294 -14.0294 -14.0129 -14.0129
   -13.2189 -13.2188 -13.2101 -13.2101 -12.8562 -12.8562 -12.8409 -12.8408
   -10.9733 -10.9733 -10.9701 -10.9701 -10.5528 -10.5528 -10.5268 -10.5268
   -10.4416 -10.4416 -10.4219 -10.4219 -10.2897 -10.2897 -10.2634 -10.2634
    -9.6319  -9.6319  -9.6292  -9.6292  -8.8725  -8.8725  -8.8706  -8.8706
    -8.2759  -8.2759  -8.2542  -8.2542  -7.5146  -7.5146  -7.5077  -7.5077
    -7.3725  -7.3725  -7.3431  -7.3431  -6.7754  -6.7754  -6.7489  -6.7489
    -6.6722  -6.6722  -6.6672  -6.6672  -6.3142  -6.3142  -6.3030  -6.3030
    -6.1352  -6.1352  -6.1184  -6.1183  -5.7863  -5.7863  -5.7838  -5.7838
    -5.6743  -5.6743  -5.6451  -5.6451  -5.5662  -5.5662  -5.4704  -5.4704
    -5.4297  -5.4297  -5.3992  -5.3992  -5.3062  -5.3062  -5.2972  -5.2972
    -5.2331  -5.2330  -5.1858  -5.1858  -5.1153  -5.1153  -5.0948  -5.0948
    -4.9829  -4.9829  -4.9223  -4.9223  -4.7381  -4.7381  -4.7027  -4.7027
    -4.6907  -4.6907  -4.5656  -4.5655  -4.1896  -4.1895  -4.1754  -4.1754
    -3.3540  -3.3540  -3.3405  -3.3405  -3.2557  -3.2557  -3.2251  -3.2251
    -3.0369  -3.0369  -2.9804  -2.9803  -2.6458  -2.6457  -2.6125  -2.6125
    -2.4540  -2.4540  -2.4427  -2.4427  -2.0291  -2.0290  -1.9957  -1.9957
    -1.6345  -1.6345  -1.5685  -1.5685  -1.5007  -1.5007  -1.4946  -1.4946
    -1.3005  -1.3005  -1.2732  -1.2732  -1.1541  -1.1541  -1.1030  -1.1030
    -0.9311  -0.9311  -0.9086  -0.9086  -0.7732  -0.7732  -0.7532  -0.7532
    -0.3481  -0.3481  -0.3015  -0.3015  -0.2632  -0.2632  -0.2423  -0.2423
    -0.1408  -0.1408  -0.1310  -0.1310  -0.0707  -0.0707  -0.0272  -0.0272
    -0.0123  -0.0123   0.0124   0.0124   0.1718   0.1718   0.1743   0.1744
     0.2674   0.2675   0.2676   0.2676   0.4049   0.4049   0.4215   0.4216
     0.4801   0.4801   0.4950   0.4950   0.5313   0.5313   0.5493   0.5493
     0.6863   0.6863   0.7167   0.7167   0.8239   0.8239   0.8686   0.8686
     0.9292   0.9292   0.9748   0.9748   1.2185   1.2185   1.2402   1.2402
     3.6334   3.6334   3.6830   3.6830   4.0508   4.0508   4.1557   4.1557
     4.2001   4.2002   4.3414   4.3414   4.4589   4.4589   4.5487   4.5487
     5.3844   5.3845   5.4598   5.4599   6.1506   6.1506   6.2306   6.2306
     6.7093   6.7093   6.8371   6.8371   6.9890   6.9890   7.0170   7.0171
     7.3153   7.3153   7.4423   7.4423   8.1403   8.1403   8.1595   8.1595
     8.3261   8.3261   8.3650   8.3650   8.5690   8.5691   8.6774   8.6774
     8.9675   8.9675   9.0217   9.0218

          k = 0.0000-0.4672 0.0000 (154324 PWs)   bands (ev):

   -23.3308 -23.3308 -23.3288 -23.3288 -23.2899 -23.2898 -23.2894 -23.2894
   -22.6517 -22.6517 -22.6488 -22.6487 -22.4406 -22.4406 -22.4379 -22.4379
   -20.7192 -20.7192 -20.7124 -20.7124 -18.9080 -18.9080 -18.9032 -18.9032
   -18.8464 -18.8464 -18.8445 -18.8445 -17.7275 -17.7275 -17.7229 -17.7228
   -16.1189 -16.1189 -16.0855 -16.0855 -15.8104 -15.8104 -15.7856 -15.7856
   -15.4687 -15.4687 -15.4552 -15.4552 -15.1595 -15.1595 -15.1420 -15.1420
   -14.5951 -14.5951 -14.5563 -14.5563 -14.0315 -14.0315 -14.0135 -14.0135
   -13.2282 -13.2282 -13.2014 -13.2014 -12.8505 -12.8505 -12.8455 -12.8455
   -10.9691 -10.9691 -10.9621 -10.9621 -10.5679 -10.5679 -10.5286 -10.5286
   -10.4546 -10.4546 -10.4234 -10.4234 -10.2869 -10.2869 -10.2452 -10.2452
    -9.6329  -9.6328  -9.6299  -9.6299  -8.8830  -8.8830  -8.8720  -8.8720
    -8.2650  -8.2650  -8.2376  -8.2376  -7.5650  -7.5650  -7.5244  -7.5244
    -7.3438  -7.3438  -7.3242  -7.3242  -6.7587  -6.7587  -6.7033  -6.7033
    -6.6947  -6.6947  -6.6426  -6.6426  -6.3623  -6.3623  -6.2927  -6.2927
    -6.1334  -6.1334  -6.1001  -6.1001  -5.7879  -5.7879  -5.7542  -5.7542
    -5.7142  -5.7142  -5.6512  -5.6512  -5.5286  -5.5286  -5.5119  -5.5119
    -5.4753  -5.4753  -5.4008  -5.4008  -5.3456  -5.3456  -5.3221  -5.3221
    -5.2534  -5.2534  -5.1574  -5.1574  -5.1461  -5.1461  -5.0311  -5.0311
    -5.0133  -5.0133  -4.8704  -4.8704  -4.7930  -4.7930  -4.6692  -4.6692
    -4.6480  -4.6480  -4.5921  -4.5921  -4.1764  -4.1764  -4.1638  -4.1638
    -3.3655  -3.3655  -3.3143  -3.3143  -3.2727  -3.2727  -3.2648  -3.2648
    -3.0496  -3.0496  -2.9705  -2.9705  -2.5630  -2.5630  -2.5220  -2.5220
    -2.4536  -2.4536  -2.4168  -2.4168  -2.1014  -2.1014  -1.9110  -1.9110
    -1.6916  -1.6916  -1.6246  -1.6246  -1.5584  -1.5584  -1.5155  -1.5155
    -1.3219  -1.3219  -1.2187  -1.2187  -1.1690  -1.1690  -1.0650  -1.0650
    -0.9674  -0.9674  -0.9040  -0.9040  -0.7834  -0.7834  -0.7325  -0.7325
    -0.4094  -0.4094  -0.3415  -0.3415  -0.3035  -0.3035  -0.2766  -0.2766
    -0.1801  -0.1801  -0.1363  -0.1363  -0.0768  -0.0768  -0.0195  -0.0195
     0.0079   0.0079   0.0510   0.0510   0.1590   0.1590   0.1773   0.1773
     0.2830   0.2830   0.3623   0.3623   0.4334   0.4334   0.4724   0.4724
     0.4906   0.4906   0.5138   0.5138   0.5545   0.5545   0.5722   0.5722
     0.6872   0.6872   0.7230   0.7230   0.8297   0.8297   0.8432   0.8432
     0.8901   0.8901   0.9815   0.9815   1.1443   1.1443   1.2625   1.2625
     3.6495   3.6495   3.7083   3.7083   4.0005   4.0005   4.1964   4.1964
     4.2750   4.2750   4.3002   4.3002   4.3514   4.3514   4.5994   4.5995
     5.3642   5.3642   5.4755   5.4755   6.1595   6.1595   6.2506   6.2506
     6.6919   6.6919   6.8251   6.8252   6.9438   6.9438   7.0599   7.0599
     7.3435   7.3435   7.4205   7.4205   8.0177   8.0178   8.1648   8.1648
     8.3369   8.3369   8.3986   8.3986   8.5209   8.5209   8.7539   8.7539
     8.9355   8.9356   8.9815   8.9816

          k = 0.0000-0.4672-0.5599 (154212 PWs)   bands (ev):

   -23.3307 -23.3307 -23.3288 -23.3288 -23.2899 -23.2899 -23.2894 -23.2894
   -22.6512 -22.6511 -22.6493 -22.6493 -22.4398 -22.4397 -22.4387 -22.4387
   -20.7164 -20.7164 -20.7152 -20.7152 -18.9077 -18.9077 -18.9036 -18.9036
   -18.8459 -18.8458 -18.8449 -18.8449 -17.7270 -17.7270 -17.7233 -17.7233
   -16.1164 -16.1164 -16.0883 -16.0883 -15.8099 -15.8098 -15.7858 -15.7858
   -15.4680 -15.4680 -15.4552 -15.4552 -15.1573 -15.1573 -15.1465 -15.1465
   -14.5911 -14.5910 -14.5587 -14.5586 -14.0310 -14.0310 -14.0144 -14.0144
   -13.2187 -13.2187 -13.2113 -13.2113 -12.8533 -12.8533 -12.8424 -12.8424
   -10.9723 -10.9723 -10.9597 -10.9597 -10.5738 -10.5738 -10.5140 -10.5140
   -10.4541 -10.4541 -10.4240 -10.4240 -10.2870 -10.2870 -10.2536 -10.2536
    -9.6326  -9.6326  -9.6304  -9.6304  -8.8835  -8.8835  -8.8712  -8.8712
    -8.2662  -8.2662  -8.2361  -8.2361  -7.5554  -7.5554  -7.5338  -7.5338
    -7.3594  -7.3594  -7.3041  -7.3041  -6.7797  -6.7797  -6.7002  -6.7002
    -6.6833  -6.6833  -6.6418  -6.6418  -6.3381  -6.3381  -6.3022  -6.3022
    -6.1584  -6.1584  -6.0821  -6.0821  -5.8040  -5.8040  -5.7868  -5.7868
    -5.6879  -5.6879  -5.6389  -5.6389  -5.5516  -5.5516  -5.4922  -5.4922
    -5.4466  -5.4466  -5.3937  -5.3937  -5.3413  -5.3413  -5.3177  -5.3177
    -5.2535  -5.2535  -5.2070  -5.2069  -5.1436  -5.1436  -5.0494  -5.0494
    -5.0217  -5.0217  -4.8734  -4.8734  -4.7238  -4.7238  -4.7147  -4.7147
    -4.6219  -4.6219  -4.6036  -4.6036  -4.1868  -4.1868  -4.1535  -4.1535
    -3.3442  -3.3441  -3.3112  -3.3112  -3.2862  -3.2862  -3.2623  -3.2623
    -3.0415  -3.0414  -3.0016  -3.0016  -2.5276  -2.5276  -2.4974  -2.4974
    -2.4776  -2.4776  -2.4477  -2.4477  -2.0332  -2.0332  -1.9773  -1.9772
    -1.6838  -1.6838  -1.5929  -1.5929  -1.5874  -1.5874  -1.5120  -1.5120
    -1.3012  -1.3012  -1.2687  -1.2687  -1.1404  -1.1404  -1.0616  -1.0616
    -0.9803  -0.9803  -0.9006  -0.9006  -0.7774  -0.7773  -0.7579  -0.7579
    -0.3921  -0.3921  -0.3461  -0.3461  -0.3311  -0.3311  -0.2392  -0.2392
    -0.1622  -0.1622  -0.1529  -0.1529  -0.0980  -0.0980  -0.0390  -0.0390
     0.0005   0.0005   0.0899   0.0899   0.1359   0.1359   0.2274   0.2274
     0.2920   0.2920   0.3188   0.3188   0.4287   0.4288   0.4669   0.4669
     0.5033   0.5033   0.5345   0.5345   0.5544   0.5544   0.5638   0.5638
     0.6599   0.6599   0.7340   0.7340   0.8217   0.8217   0.8549   0.8549
     0.9095   0.9095   0.9613   0.9613   1.1579   1.1580   1.2572   1.2572
     3.6506   3.6506   3.7088   3.7088   4.0470   4.0470   4.0999   4.0999
     4.2037   4.2037   4.3622   4.3623   4.4689   4.4689   4.5330   4.5330
     5.3765   5.3765   5.4636   5.4636   6.1776   6.1776   6.2373   6.2373
     6.6872   6.6873   6.8266   6.8267   6.9937   6.9937   7.0120   7.0120
     7.3328   7.3328   7.4196   7.4197   8.0509   8.0509   8.1556   8.1556
     8.3576   8.3576   8.4006   8.4006   8.6047   8.6047   8.7799   8.7799
     8.9452   8.9452   8.9823   8.9823

          k =-0.5000 0.0000 0.0000 (154272 PWs)   bands (ev):

   -23.3303 -23.3303 -23.3293 -23.3293 -23.2899 -23.2899 -23.2893 -23.2893
   -22.6514 -22.6514 -22.6490 -22.6490 -22.4408 -22.4408 -22.4377 -22.4377
   -20.7192 -20.7192 -20.7125 -20.7125 -18.9061 -18.9061 -18.9050 -18.9050
   -18.8464 -18.8464 -18.8445 -18.8445 -17.7262 -17.7262 -17.7240 -17.7240
   -16.1105 -16.1105 -16.0936 -16.0936 -15.8024 -15.8024 -15.7928 -15.7928
   -15.4663 -15.4663 -15.4546 -15.4546 -15.1629 -15.1629 -15.1489 -15.1489
   -14.5850 -14.5850 -14.5625 -14.5625 -14.0226 -14.0226 -14.0190 -14.0190
   -13.2269 -13.2269 -13.2016 -13.2016 -12.8522 -12.8522 -12.8454 -12.8454
   -10.9787 -10.9787 -10.9626 -10.9626 -10.5671 -10.5671 -10.5105 -10.5105
   -10.4536 -10.4536 -10.4242 -10.4242 -10.2898 -10.2898 -10.2524 -10.2524
    -9.6401  -9.6401  -9.6210  -9.6210  -8.8806  -8.8806  -8.8626  -8.8626
    -8.2727  -8.2727  -8.2576  -8.2576  -7.5340  -7.5340  -7.4903  -7.4903
    -7.3723  -7.3723  -7.3402  -7.3402  -6.7959  -6.7959  -6.7490  -6.7490
    -6.6781  -6.6781  -6.6502  -6.6502  -6.3352  -6.3352  -6.2725  -6.2725
    -6.1672  -6.1672  -6.0835  -6.0835  -5.8040  -5.8040  -5.7325  -5.7325
    -5.6983  -5.6983  -5.6525  -5.6525  -5.5250  -5.5250  -5.4939  -5.4939
    -5.4560  -5.4560  -5.3881  -5.3881  -5.3147  -5.3147  -5.2893  -5.2893
    -5.2387  -5.2387  -5.2109  -5.2109  -5.1365  -5.1365  -5.0827  -5.0827
    -4.9879  -4.9879  -4.8845  -4.8845  -4.7460  -4.7460  -4.7291  -4.7291
    -4.6695  -4.6695  -4.5201  -4.5201  -4.2270  -4.2270  -4.1444  -4.1444
    -3.4063  -3.4063  -3.3188  -3.3188  -3.3035  -3.3035  -3.1918  -3.1918
    -3.0431  -3.0431  -2.9712  -2.9712  -2.6517  -2.6517  -2.6052  -2.6052
    -2.4570  -2.4570  -2.4247  -2.4247  -2.0947  -2.0947  -1.9591  -1.9591
    -1.6258  -1.6258  -1.5579  -1.5579  -1.5065  -1.5065  -1.4498  -1.4498
    -1.3296  -1.3296  -1.2550  -1.2550  -1.2352  -1.2352  -1.0689  -1.0689
    -0.9335  -0.9335  -0.8891  -0.8891  -0.7956  -0.7956  -0.7093  -0.7093
    -0.3946  -0.3946  -0.2855  -0.2855  -0.2613  -0.2613  -0.2279  -0.2279
    -0.1744  -0.1744  -0.1082  -0.1082  -0.0678  -0.0678  -0.0509  -0.0509
    -0.0021  -0.0021   0.0927   0.0927   0.1109   0.1109   0.2055   0.2055
     0.2676   0.2676   0.2810   0.2810   0.4031   0.4031   0.4129   0.4129
     0.4675   0.4675   0.5142   0.5142   0.5298   0.5298   0.5361   0.5361
     0.6751   0.6751   0.7109   0.7109   0.8545   0.8545   0.8570   0.8570
     0.9013   0.9014   0.9764   0.9764   1.2000   1.2000   1.2632   1.2632
     3.5930   3.5930   3.7474   3.7474   4.0612   4.0612   4.1395   4.1395
     4.2794   4.2794   4.3091   4.3091   4.3844   4.3844   4.5475   4.5475
     5.3939   5.3940   5.4587   5.4587   6.1255   6.1255   6.2348   6.2348
     6.7618   6.7618   6.7913   6.7913   6.9422   6.9422   7.0879   7.0880
     7.3501   7.3501   7.4209   7.4209   8.0267   8.0267   8.1097   8.1097
     8.3617   8.3617   8.3971   8.3971   8.5610   8.5610   8.8459   8.8459
     8.9062   8.9062   8.9596   8.9596

          k =-0.5000 0.0000-0.5599 (154324 PWs)   bands (ev):

   -23.3298 -23.3298 -23.3298 -23.3298 -23.2897 -23.2896 -23.2896 -23.2896
   -22.6502 -22.6502 -22.6502 -22.6502 -22.4393 -22.4392 -22.4392 -22.4392
   -20.7159 -20.7158 -20.7158 -20.7158 -18.9056 -18.9056 -18.9056 -18.9056
   -18.8454 -18.8454 -18.8454 -18.8454 -17.7251 -17.7251 -17.7251 -17.7251
   -16.1022 -16.1022 -16.1022 -16.1022 -15.7974 -15.7974 -15.7974 -15.7974
   -15.4600 -15.4600 -15.4600 -15.4600 -15.1570 -15.1570 -15.1570 -15.1570
   -14.5729 -14.5729 -14.5729 -14.5729 -14.0211 -14.0211 -14.0210 -14.0210
   -13.2144 -13.2143 -13.2143 -13.2143 -12.8487 -12.8486 -12.8486 -12.8486
   -10.9715 -10.9715 -10.9715 -10.9715 -10.5402 -10.5402 -10.5402 -10.5402
   -10.4323 -10.4323 -10.4323 -10.4323 -10.2759 -10.2759 -10.2759 -10.2759
    -9.6309  -9.6309  -9.6309  -9.6309  -8.8714  -8.8714  -8.8714  -8.8714
    -8.2651  -8.2651  -8.2651  -8.2651  -7.5109  -7.5109  -7.5109  -7.5109
    -7.3575  -7.3575  -7.3575  -7.3575  -6.7646  -6.7646  -6.7646  -6.7646
    -6.6683  -6.6683  -6.6683  -6.6683  -6.3050  -6.3049  -6.3049  -6.3049
    -6.1331  -6.1331  -6.1331  -6.1331  -5.7853  -5.7853  -5.7853  -5.7853
    -5.6496  -5.6496  -5.6496  -5.6496  -5.5135  -5.5135  -5.5135  -5.5135
    -5.4241  -5.4241  -5.4240  -5.4240  -5.3146  -5.3146  -5.3146  -5.3146
    -5.2199  -5.2199  -5.2199  -5.2199  -5.0977  -5.0977  -5.0977  -5.0977
    -4.9260  -4.9260  -4.9260  -4.9260  -4.7797  -4.7797  -4.7797  -4.7797
    -4.5705  -4.5705  -4.5705  -4.5705  -4.1830  -4.1830  -4.1830  -4.1830
    -3.3548  -3.3548  -3.3548  -3.3548  -3.2433  -3.2433  -3.2433  -3.2433
    -3.0204  -3.0204  -3.0204  -3.0204  -2.6178  -2.6178  -2.6178  -2.6178
    -2.4489  -2.4489  -2.4489  -2.4489  -2.0185  -2.0185  -2.0185  -2.0185
    -1.5960  -1.5960  -1.5960  -1.5960  -1.4793  -1.4793  -1.4793  -1.4793
    -1.3105  -1.3105  -1.3105  -1.3105  -1.1401  -1.1401  -1.1401  -1.1401
    -0.9069  -0.9069  -0.9069  -0.9069  -0.7633  -0.7633  -0.7633  -0.7633
    -0.3169  -0.3169  -0.3169  -0.3169  -0.2609  -0.2609  -0.2609  -0.2609
    -0.1285  -0.1285  -0.1285  -0.1285  -0.0764  -0.0764  -0.0764  -0.0764
     0.0298   0.0298   0.0298   0.0298   0.1734   0.1734   0.1734   0.1734
     0.2942   0.2942   0.2942   0.2942   0.3900   0.3900   0.3900   0.3900
     0.4794   0.4794   0.4794   0.4794   0.5504   0.5504   0.5504   0.5504
     0.6904   0.6904   0.6905   0.6905   0.8478   0.8478   0.8478   0.8478
     0.9485   0.9485   0.9485   0.9485   1.2351   1.2351   1.2351   1.2351
     3.6592   3.6592   3.6592   3.6592   4.1412   4.1412   4.1412   4.1412
     4.2289   4.2289   4.2289   4.2289   4.4987   4.4987   4.4987   4.4987
     5.4247   5.4248   5.4248   5.4248   6.1802   6.1802   6.1802   6.1802
     6.7819   6.7820   6.7820   6.7820   7.0099   7.0099   7.0099   7.0099
     7.3821   7.3821   7.3821   7.3821   8.1379   8.1379   8.1380   8.1380
     8.3209   8.3209   8.3209   8.3209   8.6876   8.6876   8.6876   8.6876
     8.9527   8.9527   8.9527   8.9527

          k =-0.5000-0.4672 0.0000 (154272 PWs)   bands (ev):

   -23.3302 -23.3302 -23.3294 -23.3294 -23.2898 -23.2898 -23.2894 -23.2894
   -22.6514 -22.6514 -22.6490 -22.6490 -22.4408 -22.4407 -22.4378 -22.4377
   -20.7192 -20.7191 -20.7125 -20.7125 -18.9069 -18.9069 -18.9043 -18.9043
   -18.8463 -18.8463 -18.8446 -18.8446 -17.7269 -17.7269 -17.7235 -17.7235
   -16.1122 -16.1122 -16.0934 -16.0934 -15.8007 -15.8007 -15.7939 -15.7939
   -15.4633 -15.4633 -15.4622 -15.4622 -15.1568 -15.1568 -15.1437 -15.1437
   -14.5870 -14.5870 -14.5642 -14.5642 -14.0263 -14.0263 -14.0183 -14.0183
   -13.2276 -13.2276 -13.2022 -13.2021 -12.8506 -12.8506 -12.8454 -12.8454
   -10.9680 -10.9680 -10.9631 -10.9631 -10.5626 -10.5626 -10.5331 -10.5331
   -10.4558 -10.4558 -10.4238 -10.4238 -10.2796 -10.2796 -10.2528 -10.2528
    -9.6328  -9.6328  -9.6291  -9.6291  -8.8818  -8.8818  -8.8736  -8.8736
    -8.2565  -8.2565  -8.2459  -8.2459  -7.5651  -7.5651  -7.5247  -7.5247
    -7.3397  -7.3397  -7.3276  -7.3276  -6.7446  -6.7446  -6.7271  -6.7271
    -6.6878  -6.6878  -6.6535  -6.6535  -6.3256  -6.3256  -6.3195  -6.3195
    -6.1276  -6.1276  -6.0954  -6.0954  -5.7853  -5.7853  -5.7638  -5.7638
    -5.7027  -5.7027  -5.6683  -5.6683  -5.5279  -5.5279  -5.5068  -5.5068
    -5.4470  -5.4470  -5.4005  -5.4005  -5.3335  -5.3335  -5.3298  -5.3298
    -5.2497  -5.2497  -5.2386  -5.2385  -5.1057  -5.1057  -5.0701  -5.0701
    -4.9866  -4.9866  -4.9160  -4.9160  -4.7175  -4.7175  -4.7125  -4.7125
    -4.6609  -4.6609  -4.5230  -4.5230  -4.1727  -4.1727  -4.1670  -4.1670
    -3.4030  -3.4030  -3.3126  -3.3126  -3.2772  -3.2772  -3.2562  -3.2562
    -3.0281  -3.0281  -3.0089  -3.0089  -2.5575  -2.5575  -2.4910  -2.4910
    -2.4756  -2.4756  -2.4192  -2.4192  -2.0858  -2.0858  -1.9495  -1.9495
    -1.6565  -1.6565  -1.6229  -1.6229  -1.5491  -1.5491  -1.4902  -1.4902
    -1.3373  -1.3373  -1.3226  -1.3226  -1.1404  -1.1404  -1.0346  -1.0346
    -0.9240  -0.9240  -0.9202  -0.9202  -0.7889  -0.7889  -0.7378  -0.7378
    -0.4288  -0.4287  -0.3491  -0.3491  -0.2663  -0.2663  -0.2507  -0.2507
    -0.1817  -0.1817  -0.1699  -0.1699  -0.0647  -0.0647  -0.0179  -0.0179
     0.0056   0.0056   0.0548   0.0548   0.1792   0.1792   0.1957   0.1957
     0.2879   0.2879   0.3245   0.3245   0.4198   0.4198   0.4606   0.4606
     0.4816   0.4816   0.5080   0.5080   0.5470   0.5470   0.5811   0.5811
     0.6998   0.6998   0.7270   0.7270   0.8328   0.8328   0.8457   0.8457
     0.9048   0.9048   0.9714   0.9714   1.1893   1.1893   1.2142   1.2142
     3.6552   3.6552   3.7172   3.7172   4.0437   4.0437   4.1579   4.1579
     4.2486   4.2486   4.2779   4.2779   4.4264   4.4264   4.5368   4.5368
     5.4042   5.4042   5.4508   5.4508   6.1338   6.1338   6.2475   6.2475
     6.7426   6.7426   6.7888   6.7888   6.9540   6.9540   7.0831   7.0831
     7.3483   7.3483   7.4003   7.4003   8.0130   8.0130   8.1389   8.1389
     8.3660   8.3660   8.3683   8.3683   8.6097   8.6097   8.7653   8.7653
     8.9330   8.9330   8.9761   8.9762

          k =-0.5000-0.4672-0.5599 (154408 PWs)   bands (ev):

   -23.3299 -23.3299 -23.3296 -23.3296 -23.2899 -23.2899 -23.2894 -23.2894
   -22.6506 -22.6505 -22.6499 -22.6499 -22.4395 -22.4395 -22.4389 -22.4389
   -20.7160 -20.7159 -20.7157 -20.7157 -18.9059 -18.9059 -18.9054 -18.9054
   -18.8457 -18.8457 -18.8450 -18.8450 -17.7262 -17.7262 -17.7241 -17.7241
   -16.1049 -16.1049 -16.1010 -16.1010 -15.7994 -15.7994 -15.7946 -15.7946
   -15.4629 -15.4629 -15.4620 -15.4620 -15.1572 -15.1572 -15.1456 -15.1456
   -14.5774 -14.5774 -14.5722 -14.5722 -14.0238 -14.0238 -14.0213 -14.0213
   -13.2151 -13.2151 -13.2147 -13.2147 -12.8531 -12.8531 -12.8427 -12.8427
   -10.9715 -10.9715 -10.9604 -10.9604 -10.5718 -10.5718 -10.5166 -10.5166
   -10.4501 -10.4501 -10.4274 -10.4274 -10.2722 -10.2722 -10.2697 -10.2697
    -9.6322  -9.6322  -9.6301  -9.6301  -8.8833  -8.8833  -8.8717  -8.8717
    -8.2592  -8.2592  -8.2432  -8.2432  -7.5477  -7.5477  -7.5402  -7.5402
    -7.3573  -7.3573  -7.3069  -7.3069  -6.7722  -6.7722  -6.6923  -6.6923
    -6.6779  -6.6779  -6.6703  -6.6703  -6.3181  -6.3181  -6.3134  -6.3134
    -6.1701  -6.1701  -6.0680  -6.0680  -5.8109  -5.8109  -5.7846  -5.7846
    -5.6592  -5.6592  -5.6574  -5.6574  -5.5204  -5.5204  -5.5031  -5.5031
    -5.4608  -5.4608  -5.3987  -5.3987  -5.3538  -5.3538  -5.3464  -5.3464
    -5.2452  -5.2452  -5.2177  -5.2177  -5.1177  -5.1177  -5.0361  -5.0361
    -5.0111  -5.0111  -4.9252  -4.9252  -4.7434  -4.7434  -4.7155  -4.7155
    -4.5753  -4.5753  -4.5681  -4.5681  -4.1918  -4.1918  -4.1545  -4.1545
    -3.3343  -3.3343  -3.3257  -3.3257  -3.2858  -3.2858  -3.2803  -3.2803
    -3.0537  -3.0537  -3.0011  -3.0011  -2.5313  -2.5313  -2.4982  -2.4982
    -2.4636  -2.4636  -2.4490  -2.4490  -2.0197  -2.0197  -2.0042  -2.0042
    -1.6109  -1.6109  -1.6097  -1.6097  -1.5696  -1.5696  -1.5528  -1.5528
    -1.3542  -1.3542  -1.2775  -1.2775  -1.1262  -1.1262  -1.0684  -1.0684
    -0.9436  -0.9436  -0.9051  -0.9051  -0.7795  -0.7795  -0.7553  -0.7553
    -0.3863  -0.3863  -0.3673  -0.3673  -0.2806  -0.2806  -0.2756  -0.2756
    -0.1625  -0.1625  -0.1438  -0.1438  -0.0759  -0.0759  -0.0545  -0.0545
     0.0229   0.0229   0.0915   0.0916   0.1345   0.1345   0.1886   0.1886
     0.3298   0.3298   0.3510   0.3510   0.4042   0.4042   0.4352   0.4352
     0.4959   0.4959   0.5068   0.5068   0.5503   0.5503   0.5807   0.5807
     0.6895   0.6895   0.7102   0.7102   0.8329   0.8329   0.8550   0.8550
     0.9072   0.9072   0.9660   0.9660   1.1892   1.1892   1.2269   1.2269
     3.6602   3.6602   3.7149   3.7149   4.0650   4.0650   4.1122   4.1122
     4.2536   4.2536   4.2653   4.2653   4.4857   4.4857   4.5010   4.5010
     5.4200   5.4200   5.4327   5.4327   6.1701   6.1701   6.2153   6.2153
     6.7438   6.7438   6.7858   6.7858   7.0093   7.0093   7.0219   7.0219
     7.3576   7.3576   7.3922   7.3922   8.0893   8.0893   8.1328   8.1328
     8.3237   8.3237   8.3648   8.3648   8.6450   8.6450   8.8185   8.8185
     8.9525   8.9525   8.9774   8.9774

     highest occupied, lowest unoccupied level (ev):     1.2817    3.5778

!    total energy              =   -2945.52441187 Ry
     Harris-Foulkes estimate   =   -2945.52441187 Ry
     estimated scf accuracy    <          2.5E-09 Ry

     total all-electron energy =    -11351.422301 Ry

     The total energy is the sum of the following terms:

     one-electron contribution =   -1446.82036800 Ry
     hartree contribution      =     942.55915262 Ry
     xc contribution           =    -578.46289806 Ry
     ewald contribution        =   -1009.39796722 Ry
     Dispersion Correction     =      -0.57612133 Ry
     one-center paw contrib.   =    -852.82620988 Ry

     convergence has been achieved in  17 iterations

     Forces acting on atoms (cartesian axes, Ry/au):

     atom    1 type  2   force =     0.00026082    0.00020010   -0.00026471
     atom    2 type  2   force =    -0.00025957   -0.00019926   -0.00026423
     atom    3 type  2   force =     0.00025756   -0.00020226   -0.00026234
     atom    4 type  2   force =    -0.00025603    0.00020175   -0.00026158
     atom    5 type  1   force =     0.00052657    0.00027871   -0.00102252
     atom    6 type  1   force =    -0.00052716   -0.00028167   -0.00102220
     atom    7 type  1   force =     0.00051330   -0.00027954   -0.00102287
     atom    8 type  1   force =    -0.00051371    0.00028188   -0.00102234
     atom    9 type  2   force =     0.00016978   -0.00045538   -0.00026535
     atom   10 type  2   force =    -0.00016825    0.00045444   -0.00026507
     atom   11 type  2   force =     0.00017044    0.00045138   -0.00026520
     atom   12 type  2   force =    -0.00016833   -0.00045097   -0.00026443
     atom   13 type  4   force =    -0.00027017   -0.00023618   -0.00008580
     atom   14 type  4   force =     0.00026663    0.00023321   -0.00008512
     atom   15 type  4   force =    -0.00026666    0.00023853   -0.00008622
     atom   16 type  4   force =     0.00026309   -0.00023481   -0.00008666
     atom   17 type  2   force =     0.00015940   -0.00014392   -0.00009639
     atom   18 type  2   force =    -0.00015717    0.00014401   -0.00009717
     atom   19 type  2   force =     0.00015723    0.00014517   -0.00009566
     atom   20 type  2   force =    -0.00015423   -0.00014490   -0.00009561
     atom   21 type  1   force =     0.00037565    0.00043607    0.00005464
     atom   22 type  1   force =    -0.00037582   -0.00043896    0.00005231
     atom   23 type  1   force =     0.00039146   -0.00043535    0.00005517
     atom   24 type  1   force =    -0.00039105    0.00043800    0.00005344
     atom   25 type  1   force =    -0.00015860   -0.00045237    0.00034094
     atom   26 type  1   force =     0.00016052    0.00044886    0.00033702
     atom   27 type  1   force =    -0.00015006    0.00045251    0.00034018
     atom   28 type  1   force =     0.00015126   -0.00045084    0.00033629
     atom   29 type  2   force =    -0.00040434   -0.00053150    0.00034545
     atom   30 type  2   force =     0.00040680    0.00052981    0.00034485
     atom   31 type  2   force =    -0.00040308    0.00053113    0.00034389
     atom   32 type  2   force =     0.00040412   -0.00052982    0.00034361
     atom   33 type  4   force =    -0.00005338    0.00002914   -0.00009364
     atom   34 type  4   force =     0.00005444   -0.00003297   -0.00009598
     atom   35 type  4   force =    -0.00005535   -0.00003151   -0.00009356
     atom   36 type  4   force =     0.00005525    0.00003393   -0.00009613
     atom   37 type  2   force =    -0.00017904   -0.00023767    0.00009609
     atom   38 type  2   force =     0.00017928    0.00024002    0.00009517
     atom   39 type  2   force =    -0.00017728    0.00023642    0.00009461
     atom   40 type  2   force =     0.00017709   -0.00023909    0.00009363
     atom   41 type  1   force =     0.00002296   -0.00043507   -0.00033594
     atom   42 type  1   force =    -0.00002103    0.00043276   -0.00033156
     atom   43 type  1   force =     0.00003864    0.00043362   -0.00033418
     atom   44 type  1   force =    -0.00003870   -0.00043221   -0.00033047
     atom   45 type  1   force =    -0.00046887    0.00058886    0.00039669
     atom   46 type  1   force =     0.00046945   -0.00058955    0.00039670
     atom   47 type  1   force =    -0.00048523   -0.00059036    0.00039694
     atom   48 type  1   force =     0.00048508    0.00059111    0.00039628
     atom   49 type  2   force =     0.00024272   -0.00030589    0.00093199
     atom   50 type  2   force =    -0.00024268    0.00030760    0.00093359
     atom   51 type  2   force =     0.00024124    0.00030618    0.00093324
     atom   52 type  2   force =    -0.00024236   -0.00030787    0.00093362
     atom   53 type  2   force =    -0.00040575    0.00054692   -0.00035375
     atom   54 type  2   force =     0.00040257   -0.00054336   -0.00035579
     atom   55 type  2   force =    -0.00040416   -0.00054761   -0.00035510
     atom   56 type  2   force =     0.00040088    0.00054431   -0.00035738
     atom   57 type  2   force =     0.00032437    0.00070054    0.00021849
     atom   58 type  2   force =    -0.00032539   -0.00069868    0.00021908
     atom   59 type  2   force =     0.00032597   -0.00069718    0.00021768
     atom   60 type  2   force =    -0.00032660    0.00069601    0.00021807
     atom   61 type  1   force =    -0.00077606   -0.00020223   -0.00015312
     atom   62 type  1   force =     0.00077460    0.00020649   -0.00014923
     atom   63 type  1   force =    -0.00079511    0.00020318   -0.00015351
     atom   64 type  1   force =     0.00079400   -0.00020647   -0.00014995
     atom   65 type  1   force =    -0.00117940    0.00022317    0.00021881
     atom   66 type  1   force =     0.00117841   -0.00022132    0.00022314
     atom   67 type  1   force =    -0.00119057   -0.00022252    0.00021872
     atom   68 type  1   force =     0.00118963    0.00022077    0.00022288
     atom   69 type  2   force =    -0.00033424   -0.00037355    0.00017557
     atom   70 type  2   force =     0.00033352    0.00037173    0.00017655
     atom   71 type  2   force =    -0.00033026    0.00037309    0.00017600
     atom   72 type  2   force =     0.00033048   -0.00037223    0.00017642
     atom   73 type  4   force =    -0.00063996   -0.00027883   -0.00043095
     atom   74 type  4   force =     0.00063781    0.00027586   -0.00042875
     atom   75 type  4   force =    -0.00063848    0.00027999   -0.00043144
     atom   76 type  4   force =     0.00063703   -0.00027713   -0.00042908
     atom   77 type  4   force =     0.00006373   -0.00030769   -0.00022525
     atom   78 type  4   force =    -0.00005996    0.00030669   -0.00022304
     atom   79 type  4   force =     0.00006306    0.00030869   -0.00022520
     atom   80 type  4   force =    -0.00005938   -0.00030818   -0.00022333
     atom   81 type  1   force =    -0.00040001   -0.00072005    0.00029916
     atom   82 type  1   force =     0.00039986    0.00072061    0.00029526
     atom   83 type  1   force =    -0.00040645    0.00072119    0.00029952
     atom   84 type  1   force =     0.00040683   -0.00072286    0.00029567
     atom   85 type  3   force =     0.00053924    0.00053017   -0.00005540
     atom   86 type  3   force =    -0.00053912   -0.00053038   -0.00005504
     atom   87 type  3   force =     0.00053927   -0.00052941   -0.00005501
     atom   88 type  3   force =    -0.00053907    0.00052933   -0.00005467
     atom   89 type  1   force =    -0.00025772    0.00025327    0.00035566
     atom   90 type  1   force =     0.00025738   -0.00024968    0.00034973
     atom   91 type  1   force =    -0.00023639   -0.00025316    0.00035679
     atom   92 type  1   force =     0.00023654    0.00024971    0.00035126
     atom   93 type  2   force =     0.00015426    0.00027133   -0.00031560
     atom   94 type  2   force =    -0.00015387   -0.00026052   -0.00031879
     atom   95 type  2   force =     0.00015308   -0.00026743   -0.00031632
     atom   96 type  2   force =    -0.00015317    0.00025568   -0.00032019
     atom   97 type  4   force =     0.00005481    0.00048643   -0.00016467
     atom   98 type  4   force =    -0.00005292   -0.00048838   -0.00016339
     atom   99 type  4   force =     0.00005523   -0.00048874   -0.00016232
     atom  100 type  4   force =    -0.00005259    0.00049331   -0.00015889
     atom  101 type  4   force =    -0.00035605   -0.00103612    0.00006409
     atom  102 type  4   force =     0.00035388    0.00102864    0.00006488
     atom  103 type  4   force =    -0.00035820    0.00103413    0.00006447
     atom  104 type  4   force =     0.00035273   -0.00102137    0.00006581
     atom  105 type  1   force =    -0.00062784    0.00029586   -0.00012405
     atom  106 type  1   force =     0.00062740   -0.00029225   -0.00011971
     atom  107 type  1   force =    -0.00064941   -0.00029702   -0.00012391
     atom  108 type  1   force =     0.00064960    0.00029299   -0.00011951
     atom  109 type  3   force =     0.00008947   -0.00019764    0.00046205
     atom  110 type  3   force =    -0.00008955    0.00019823    0.00046180
     atom  111 type  3   force =     0.00008924    0.00019735    0.00046202
     atom  112 type  3   force =    -0.00008936   -0.00019818    0.00046169
     atom  113 type  1   force =    -0.00042589    0.00000907    0.00002317
     atom  114 type  1   force =     0.00042596   -0.00000577    0.00002370
     atom  115 type  1   force =    -0.00043002   -0.00000990    0.00002557
     atom  116 type  1   force =     0.00042951    0.00000584    0.00002522

     Total force =     0.007534     Total SCF correction =     0.000125


     Computing stress (Cartesian axis) and pressure

          total   stress  (Ry/bohr**3)                   (kbar)     P=    1.78
   0.00001379   0.00000000   0.00000000          2.03      0.00      0.00
   0.00000000   0.00001078   0.00000000          0.00      1.59      0.00
   0.00000000   0.00000000   0.00001165          0.00      0.00      1.71


     Writing output data file scf.save
 
     init_run     :    105.92s CPU    109.67s WALL (       1 calls)
     electrons    :   4308.06s CPU   4460.32s WALL (       1 calls)
     forces       :     49.17s CPU     49.55s WALL (       1 calls)
     stress       :    458.33s CPU    459.12s WALL (       1 calls)

     Called by init_run:
     wfcinit      :     96.39s CPU     99.96s WALL (       1 calls)
     potinit      :      3.37s CPU      3.40s WALL (       1 calls)

     Called by electrons:
     c_bands      :   3888.56s CPU   4020.36s WALL (      17 calls)
     sum_band     :    398.75s CPU    416.80s WALL (      17 calls)
     v_of_rho     :      3.29s CPU      3.61s WALL (      18 calls)
     newd         :      7.36s CPU      9.35s WALL (      18 calls)
     PAW_pot      :      9.40s CPU      9.41s WALL (      18 calls)
     mix_rho      :      0.83s CPU      0.92s WALL (      17 calls)

     Called by c_bands:
     init_us_2    :     20.77s CPU     20.86s WALL (     296 calls)
     cegterg      :   3794.76s CPU   3926.42s WALL (     136 calls)

     Called by sum_band:
     sum_band:bec :      0.24s CPU      0.24s WALL (     136 calls)
     addusdens    :      7.62s CPU      9.56s WALL (      17 calls)

     Called by *egterg:
     h_psi        :   2026.13s CPU   2124.15s WALL (     756 calls)
     s_psi        :    457.11s CPU    457.29s WALL (     756 calls)
     g_psi        :     11.40s CPU     11.41s WALL (     612 calls)
     cdiaghg      :    296.52s CPU    296.68s WALL (     748 calls)

     Called by h_psi:
     h_psi:pot    :   2012.45s CPU   2110.24s WALL (     756 calls)
     h_psi:calbec :    437.93s CPU    438.75s WALL (     756 calls)
     vloc_psi     :   1117.80s CPU   1214.52s WALL (     756 calls)
     add_vuspsi   :    456.71s CPU    456.96s WALL (     756 calls)

     General routines
     calbec       :    643.04s CPU    644.24s WALL (     932 calls)
     fft          :      2.00s CPU      2.52s WALL (     258 calls)
     fftw         :   1216.65s CPU   1328.88s WALL (  274922 calls)
 
     Parallel routines
     fft_scatter  :    199.45s CPU    307.41s WALL (  275180 calls)
 
     PWSCF        :     1h22m CPU        1h26m WALL

 
   This run was terminated on:   2: 3:21   4Nov2017            

=------------------------------------------------------------------------------=
   JOB DONE.
=------------------------------------------------------------------------------=
