
     Program PWSCF v.6.1 (svn rev. 13369) starts on 12Nov2017 at  9:42:42 

     This program is part of the open-source Quantum ESPRESSO suite
     for quantum simulation of materials; please cite
         "P. Giannozzi et al., J. Phys.:Condens. Matter 21 395502 (2009);
          URL http://www.quantum-espresso.org", 
     in publications or presentations arising from this work. More details at
     http://www.quantum-espresso.org/quote

     Parallel version (MPI), running on     8 processors
     R & G space division:  proc/nbgrp/npool/nimage =       8
     Waiting for input...
     Reading input from standard input

     Current dimensions of program PWSCF are:
     Max number of different atomic species (ntypx) = 10
     Max number of k-points (npk) =  40000
     Max angular momentum in pseudopotentials (lmaxx) =  3
               file C.pbe-n-kjpaw_psl.0.1.UPF: wavefunction(s)  2P renormalized
               file N.pbe-n-kjpaw_psl.0.1.UPF: wavefunction(s)  2P renormalized
               file H.pbe-kjpaw_psl.0.1.UPF: wavefunction(s)  1S renormalized
               file O.pbe-n-kjpaw_psl.0.1.UPF: wavefunction(s)  2P renormalized

     -------------------------------------
     Parameters for Dispersion Correction:
     -------------------------------------
       atom      VdW radius       C_6     

        C          2.744         60.710
        N          2.640         42.670
        H          1.892          4.857
        O          2.536         24.284

     Subspace diagonalization in iterative solution of the eigenvalue problem:
     a serial algorithm will be used

 
     Parallelization info
     --------------------
     sticks:   dense  smooth     PW     G-vecs:    dense   smooth      PW
     Min        1580    1580    411               153939   153939   20513
     Max        1581    1581    412               153940   153940   20515
     Sum       12643   12643   3289              1231513  1231513  164107
 


     bravais-lattice index     =            0
     lattice parameter (alat)  =      32.1896  a.u.
     unit-cell volume          =    9115.8144 (a.u.)^3
     number of atoms/cell      =          128
     number of atomic types    =            4
     number of electrons       =       512.00
     number of Kohn-Sham states=          307
     kinetic-energy cutoff     =     100.0000  Ry
     charge density cutoff     =     400.0000  Ry
     convergence threshold     =      1.0E-08
     mixing beta               =       0.5000
     number of iterations used =            8  plain     mixing
     Exchange-correlation      =  SLA  PW   PBX  PBC ( 1  4  3  4 0 0)

     celldm(1)=  32.189595  celldm(2)=   0.000000  celldm(3)=   0.000000
     celldm(4)=   0.000000  celldm(5)=   0.000000  celldm(6)=   0.000000

     crystal axes: (cart. coord. in units of alat)
               a(1) = (   1.000000   0.000000   0.000000 )  
               a(2) = (   0.000000   0.382846   0.000000 )  
               a(3) = (  -0.285242   0.000000   0.713879 )  

     reciprocal axes: (cart. coord. in units 2 pi/alat)
               b(1) = (  1.000000  0.000000  0.399567 )  
               b(2) = (  0.000000  2.612016  0.000000 )  
               b(3) = (  0.000000  0.000000  1.400797 )  


     PseudoPot. # 1 for  C read from file:
     /scratch/ahofstet/pseudo/C.pbe-n-kjpaw_psl.0.1.UPF
     MD5 check sum: 430fe95172b1e11ef3f8ed03bac87931
     Pseudo is Projector augmented-wave + core cor, Zval =  4.0
     Generated using "atomic" code by A. Dal Corso  v.5.0.99 svn rev. 10869
     Shape of augmentation charge: BESSEL
     Using radial grid of 1073 points,  4 beta functions with: 
                l(1) =   0
                l(2) =   0
                l(3) =   1
                l(4) =   1
     Q(r) pseudized with 0 coefficients 


     PseudoPot. # 2 for  N read from file:
     /scratch/ahofstet/pseudo/N.pbe-n-kjpaw_psl.0.1.UPF
     MD5 check sum: f73187c8b701007e77325f868c9291d7
     Pseudo is Projector augmented-wave + core cor, Zval =  5.0
     Generated using "atomic" code by A. Dal Corso  v.5.0.99 svn rev. 10869
     Shape of augmentation charge: PSQ
     Using radial grid of 1085 points,  4 beta functions with: 
                l(1) =   0
                l(2) =   0
                l(3) =   1
                l(4) =   1
     Q(r) pseudized with 0 coefficients 


     PseudoPot. # 3 for  H read from file:
     /scratch/ahofstet/pseudo/H.pbe-kjpaw_psl.0.1.UPF
     MD5 check sum: 94e484f906d9e9773b2f6e52662335b2
     Pseudo is Projector augmented-wave, Zval =  1.0
     Generated using "atomic" code by A. Dal Corso  v.5.0.99 svn rev. 10869
     Shape of augmentation charge: PSQ
     Using radial grid of  929 points,  2 beta functions with: 
                l(1) =   0
                l(2) =   0
     Q(r) pseudized with 0 coefficients 


     PseudoPot. # 4 for  O read from file:
     /scratch/ahofstet/pseudo/O.pbe-n-kjpaw_psl.0.1.UPF
     MD5 check sum: 3f94a2996a3169367d6eb21d9b593f20
     Pseudo is Projector augmented-wave + core cor, Zval =  6.0
     Generated using "atomic" code by A. Dal Corso  v.5.0.99 svn rev. 10869
     Shape of augmentation charge: BESSEL
     Using radial grid of 1095 points,  4 beta functions with: 
                l(1) =   0
                l(2) =   0
                l(3) =   1
                l(4) =   1
     Q(r) pseudized with 0 coefficients 


     atomic species   valence    mass     pseudopotential
        C              4.00    12.01070      C( 1.00)
        N              5.00    14.00670      N( 1.00)
        H              1.00     1.00794      H( 1.00)
        O              6.00    15.99940      O( 1.00)

      2 Sym. Ops., with inversion, found



   Cartesian axes

     site n.     atom                  positions (alat units)
         1           O   tau(   1) = (   0.2320575   0.1155819   0.2743605  )
         2           O   tau(   2) = (   0.6253333   0.3070159   0.0825545  )
         3           O   tau(   3) = (   0.4827002   0.2672641   0.4395187  )
         4           O   tau(   4) = (   0.0894244   0.0758302   0.6313247  )
         5           O   tau(   5) = (   0.2889929   0.0719437   0.3815320  )
         6           O   tau(   6) = (   0.2831346   0.2633678   0.6892812  )
         7           O   tau(   7) = (   0.4257648   0.3109023   0.3323472  )
         8           O   tau(   8) = (   0.4316231   0.1194783   0.0245980  )
         9           O   tau(   9) = (   0.3576900   0.1334820   0.2921866  )
        10           O   tau(  10) = (   0.4996920   0.3249041   0.0647610  )
        11           O   tau(  11) = (   0.3570677   0.2493640   0.4216926  )
        12           O   tau(  12) = (   0.2150657   0.0579420   0.6491182  )
        13           O   tau(  13) = (   0.0372962   0.2401902   0.0728517  )
        14           O   tau(  14) = (   0.8200687   0.0487784   0.2840907  )
        15           O   tau(  15) = (   0.6774614   0.1426559   0.6410275  )
        16           O   tau(  16) = (  -0.1053110   0.3340677   0.4297885  )
        17           O   tau(  17) = (   0.1511758   0.2605946   0.0165815  )
        18           O   tau(  18) = (   0.7061954   0.0691747   0.3403754  )
        19           O   tau(  19) = (   0.5635819   0.1222515   0.6972977  )
        20           O   tau(  20) = (   0.0085623   0.3136713   0.3735038  )
        21           O   tau(  21) = (  -0.2409847   0.3078121   0.6774346  )
        22           O   tau(  22) = (   0.8131202   0.1163899   0.3933934  )
        23           O   tau(  23) = (   0.9557424   0.0750340   0.0364446  )
        24           O   tau(  24) = (  -0.0983626   0.2664562   0.3204858  )
        25           N   tau(  25) = (   0.2753520   0.2926610   0.2672837  )
        26           N   tau(  26) = (   0.5820095   0.1012314   0.0896776  )
        27           N   tau(  27) = (   0.4394057   0.0901850   0.4465955  )
        28           N   tau(  28) = (   0.1327482   0.2816147   0.6242016  )
        29           N   tau(  29) = (   0.1930096   0.2666485   0.1730631  )
        30           N   tau(  30) = (   0.6643740   0.0752160   0.1838810  )
        31           N   tau(  31) = (   0.5217481   0.1161976   0.5408162  )
        32           N   tau(  32) = (   0.0503837   0.3076301   0.5299983  )
        33           N   tau(  33) = (   0.3262724   0.2432002   0.1415152  )
        34           N   tau(  34) = (   0.5311123   0.0517746   0.2154528  )
        35           N   tau(  35) = (   0.3884853   0.1396459   0.5723640  )
        36           N   tau(  36) = (   0.1836454   0.3310714   0.4984265  )
        37           N   tau(  37) = (   0.3934087   0.2297136   0.1661407  )
        38           N   tau(  38) = (   0.4639752   0.0382878   0.1908315  )
        39           N   tau(  39) = (   0.3213490   0.1531325   0.5477385  )
        40           N   tau(  40) = (   0.2507825   0.3445583   0.5230478  )
        41           N   tau(  41) = (   0.4573975   0.2156598   0.1785564  )
        42           N   tau(  42) = (   0.3999894   0.0242247   0.1784155  )
        43           N   tau(  43) = (   0.2573602   0.1671863   0.5353228  )
        44           N   tau(  44) = (   0.3147683   0.3586214   0.5354637  )
        45           N   tau(  45) = (   0.1144270   0.0735886   0.0272055  )
        46           N   tau(  46) = (   0.7429564   0.2650155   0.3297911  )
        47           N   tau(  47) = (   0.6003307   0.3092574   0.6866737  )
        48           N   tau(  48) = (  -0.0281987   0.1178306   0.3840881  )
        49           N   tau(  49) = (   0.2400794   0.0769090   0.0029545  )
        50           N   tau(  50) = (   0.6173054   0.2683429   0.3540686  )
        51           N   tau(  51) = (   0.4746783   0.3059371   0.7109247  )
        52           N   tau(  52) = (   0.0974523   0.1145032   0.3598107  )
        53           N   tau(  53) = (  -0.1237968   0.0590946   0.6044585  )
        54           N   tau(  54) = (   0.6959699   0.2505159   0.4664260  )
        55           N   tau(  55) = (   0.8385545   0.3237514   0.1094208  )
        56           N   tau(  56) = (   0.0187878   0.1323302   0.2474533  )
        57           N   tau(  57) = (  -0.1884761   0.0444565   0.5743641  )
        58           N   tau(  58) = (   0.7606557   0.2358720   0.4965041  )
        59           N   tau(  59) = (   0.9032338   0.3383896   0.1395151  )
        60           N   tau(  60) = (  -0.0458980   0.1469741   0.2173751  )
        61           N   tau(  61) = (   0.7579529   0.0313305   0.5368512  )
        62           N   tau(  62) = (  -0.1857677   0.2227389   0.5340081  )
        63           N   tau(  63) = (  -0.0431952   0.3515156   0.1770281  )
        64           N   tau(  64) = (   0.9005254   0.1601072   0.1798711  )
        65           N   tau(  65) = (   0.2934848   0.1073527   0.3157732  )
        66           N   tau(  66) = (   0.5638971   0.2987790   0.0411604  )
        67           N   tau(  67) = (   0.4212729   0.2754934   0.3981060  )
        68           N   tau(  68) = (   0.1508606   0.0840671   0.6727188  )
        69           N   tau(  69) = (   0.0771732   0.2688035   0.0180801  )
        70           N   tau(  70) = (   0.7801998   0.0773861   0.3388702  )
        71           N   tau(  71) = (   0.6375845   0.1140425   0.6957991  )
        72           N   tau(  72) = (  -0.0654421   0.3054599   0.3750090  )
        73           C   tau(  73) = (   0.2010217   0.3083211   0.2954416  )
        74           C   tau(  74) = (   0.6563295   0.1168822   0.0615018  )
        75           C   tau(  75) = (   0.5137360   0.0745250   0.4184376  )
        76           C   tau(  76) = (   0.0584281   0.2659639   0.6523774  )
        77           H   tau(  77) = (   0.1916934   0.3293542   0.3546088  )
        78           H   tau(  78) = (   0.6656406   0.1379191   0.0023280  )
        79           H   tau(  79) = (   0.5230643   0.0534919   0.3592704  )
        80           H   tau(  80) = (   0.0491171   0.2449270   0.7115512  )
        81           C   tau(  81) = (   0.1492956   0.2923517   0.2362127  )
        82           C   tau(  82) = (   0.7080667   0.1009163   0.1207120  )
        83           C   tau(  83) = (   0.5654621   0.0904944   0.4776665  )
        84           C   tau(  84) = (   0.0066910   0.2819298   0.5931672  )
        85           H   tau(  85) = (   0.0859634   0.2968859   0.2341733  )
        86           H   tau(  86) = (   0.7714040   0.1054453   0.1227353  )
        87           H   tau(  87) = (   0.6287943   0.0859602   0.4797059  )
        88           H   tau(  88) = (  -0.0566463   0.2774008   0.5911439  )
        89           C   tau(  89) = (   0.2689827   0.2663845   0.1933127  )
        90           C   tau(  90) = (   0.5883914   0.0749589   0.1636394  )
        91           C   tau(  91) = (   0.4457750   0.1164615   0.5205666  )
        92           C   tau(  92) = (   0.1263663   0.3078872   0.5502398  )
        93           C   tau(  93) = (   0.2311705   0.0857286   0.0828696  )
        94           C   tau(  94) = (   0.6262079   0.2771643   0.2741509  )
        95           C   tau(  95) = (   0.4835872   0.2971174   0.6310096  )
        96           C   tau(  96) = (   0.0885498   0.1056818   0.4397283  )
        97           H   tau(  97) = (   0.2808010   0.0929387   0.1217123  )
        98           H   tau(  98) = (   0.5765588   0.2843768   0.2353269  )
        99           H   tau(  99) = (   0.4339567   0.2899074   0.5921669  )
       100           H   tau( 100) = (   0.1381989   0.0984692   0.4785523  )
       101           C   tau( 101) = (   0.1524994   0.0837755   0.0980131  )
       102           C   tau( 102) = (   0.7048721   0.2752071   0.2589932  )
       103           C   tau( 103) = (   0.5622583   0.2990705   0.6158661  )
       104           C   tau( 104) = (   0.0098855   0.1076390   0.4548860  )
       105           H   tau( 105) = (   0.1202570   0.0901132   0.1523953  )
       106           H   tau( 106) = (   0.7370993   0.2815442   0.2045967  )
       107           H   tau( 107) = (   0.5945007   0.2927329   0.5614839  )
       108           H   tau( 108) = (  -0.0223416   0.1013018   0.5092825  )
       109           C   tau( 109) = (  -0.1165398   0.0692503   0.6840539  )
       110           C   tau( 110) = (   0.6886959   0.2606788   0.3868347  )
       111           C   tau( 111) = (   0.8312975   0.3135958   0.0298253  )
       112           C   tau( 112) = (   0.0260618   0.1221672   0.3270445  )
       113           H   tau( 113) = (   0.0527699   0.0730102   0.0213353  )
       114           H   tau( 114) = (   0.8046168   0.2644319   0.3356422  )
       115           H   tau( 115) = (   0.6619878   0.3098359   0.6925439  )
       116           H   tau( 116) = (  -0.0898591   0.1184142   0.3782370  )
       117           H   tau( 117) = (   0.1730523   0.2529415   0.1165531  )
       118           H   tau( 118) = (   0.6843409   0.0615135   0.2403824  )
       119           H   tau( 119) = (   0.5417054   0.1299046   0.5973261  )
       120           H   tau( 120) = (   0.0304168   0.3213326   0.4734969  )
       121           H   tau( 121) = (   0.0081372   0.0780780   0.6853586  )
       122           H   tau( 122) = (   0.5640142   0.2695103   0.3855494  )
       123           H   tau( 123) = (   0.7066205   0.3047680   0.0285206  )
       124           H   tau( 124) = (   0.1507435   0.1133357   0.3283298  )
       125           H   tau( 125) = (   0.3284555   0.2987773   0.2974091  )
       126           H   tau( 126) = (   0.5288905   0.1073511   0.0595579  )
       127           H   tau( 127) = (   0.3863022   0.0840688   0.4164701  )
       128           H   tau( 128) = (   0.1858672   0.2754949   0.6543214  )

     number of k points=     4
                       cart. coord. in units 2pi/alat
        k(    1) = (   0.0000000   0.0000000   0.0000000), wk =   0.3333333
        k(    2) = (   0.0000000   0.0000000  -0.7003986), wk =   0.3333333
        k(    3) = (   0.0000000   0.8706719   0.0000000), wk =   0.6666667
        k(    4) = (   0.0000000   0.8706719  -0.7003986), wk =   0.6666667

     Dense  grid:  1231513 G-vectors     FFT dimensions: ( 216,  80, 160)

     Estimated max dynamical RAM per process >    1558.43MB

     Estimated total allocated dynamical RAM >   12467.47MB

     Check: negative/imaginary core charge=   -0.000002    0.000000

     Initial potential from superposition of free atoms

     starting charge  511.99831, renormalised to  512.00000
     Starting wfc are  416 randomized atomic wfcs
     Checking if some PAW data can be deallocated... 

     total cpu time spent up to now is       73.3 secs

     per-process dynamical memory:   859.4 Mb

     Self-consistent Calculation

     iteration #  1     ecut=   100.00 Ry     beta=0.50
     Davidson diagonalization with overlap
     ethr =  1.00E-02,  avg # of iterations =  3.2

     total cpu time spent up to now is      276.8 secs

     total energy              =   -2829.05328729 Ry
     Harris-Foulkes estimate   =   -2836.50800331 Ry
     estimated scf accuracy    <      13.35378014 Ry

     iteration #  2     ecut=   100.00 Ry     beta=0.50
     Davidson diagonalization with overlap
     ethr =  2.61E-03,  avg # of iterations =  3.8

     total cpu time spent up to now is      425.8 secs

     total energy              =   -2831.48732794 Ry
     Harris-Foulkes estimate   =   -2833.09694750 Ry
     estimated scf accuracy    <       3.41716655 Ry

     iteration #  3     ecut=   100.00 Ry     beta=0.50
     Davidson diagonalization with overlap
     ethr =  6.67E-04,  avg # of iterations =  7.5

     total cpu time spent up to now is      587.6 secs

     total energy              =   -2832.25787012 Ry
     Harris-Foulkes estimate   =   -2832.42692245 Ry
     estimated scf accuracy    <       0.42628349 Ry

     iteration #  4     ecut=   100.00 Ry     beta=0.50
     Davidson diagonalization with overlap
     ethr =  8.33E-05,  avg # of iterations = 10.2

     total cpu time spent up to now is      783.0 secs

     total energy              =   -2832.31898492 Ry
     Harris-Foulkes estimate   =   -2832.40819645 Ry
     estimated scf accuracy    <       0.23335078 Ry

     iteration #  5     ecut=   100.00 Ry     beta=0.50
     Davidson diagonalization with overlap
     ethr =  4.56E-05,  avg # of iterations =  2.5

     total cpu time spent up to now is      902.7 secs

     total energy              =   -2832.36067441 Ry
     Harris-Foulkes estimate   =   -2832.37127827 Ry
     estimated scf accuracy    <       0.03336798 Ry

     iteration #  6     ecut=   100.00 Ry     beta=0.50
     Davidson diagonalization with overlap
     ethr =  6.52E-06,  avg # of iterations = 14.0

     total cpu time spent up to now is     1081.1 secs

     total energy              =   -2832.36793263 Ry
     Harris-Foulkes estimate   =   -2832.37057824 Ry
     estimated scf accuracy    <       0.00701396 Ry

     iteration #  7     ecut=   100.00 Ry     beta=0.50
     Davidson diagonalization with overlap
     ethr =  1.37E-06,  avg # of iterations =  3.0

     total cpu time spent up to now is     1208.6 secs

     total energy              =   -2832.36937372 Ry
     Harris-Foulkes estimate   =   -2832.36971270 Ry
     estimated scf accuracy    <       0.00097812 Ry

     iteration #  8     ecut=   100.00 Ry     beta=0.50
     Davidson diagonalization with overlap
     ethr =  1.91E-07,  avg # of iterations =  3.0

     total cpu time spent up to now is     1373.3 secs

     total energy              =   -2832.36964573 Ry
     Harris-Foulkes estimate   =   -2832.36969896 Ry
     estimated scf accuracy    <       0.00018525 Ry

     iteration #  9     ecut=   100.00 Ry     beta=0.50
     Davidson diagonalization with overlap
     ethr =  3.62E-08,  avg # of iterations =  3.0

     total cpu time spent up to now is     1513.4 secs

     total energy              =   -2832.36967366 Ry
     Harris-Foulkes estimate   =   -2832.36969483 Ry
     estimated scf accuracy    <       0.00006462 Ry

     iteration # 10     ecut=   100.00 Ry     beta=0.50
     Davidson diagonalization with overlap
     ethr =  1.26E-08,  avg # of iterations =  2.2

     total cpu time spent up to now is     1633.1 secs

     total energy              =   -2832.36968260 Ry
     Harris-Foulkes estimate   =   -2832.36969113 Ry
     estimated scf accuracy    <       0.00002531 Ry

     iteration # 11     ecut=   100.00 Ry     beta=0.50
     Davidson diagonalization with overlap
     ethr =  4.94E-09,  avg # of iterations =  2.5

     total cpu time spent up to now is     1748.5 secs

     total energy              =   -2832.36968709 Ry
     Harris-Foulkes estimate   =   -2832.36968806 Ry
     estimated scf accuracy    <       0.00000283 Ry

     iteration # 12     ecut=   100.00 Ry     beta=0.50
     Davidson diagonalization with overlap
     ethr =  5.52E-10,  avg # of iterations =  3.2

     total cpu time spent up to now is     1950.4 secs

     total energy              =   -2832.36968829 Ry
     Harris-Foulkes estimate   =   -2832.36968878 Ry
     estimated scf accuracy    <       0.00000145 Ry

     iteration # 13     ecut=   100.00 Ry     beta=0.50
     Davidson diagonalization with overlap
     ethr =  2.84E-10,  avg # of iterations =  2.0

     total cpu time spent up to now is     2066.0 secs

     total energy              =   -2832.36968848 Ry
     Harris-Foulkes estimate   =   -2832.36968855 Ry
     estimated scf accuracy    <       0.00000020 Ry

     iteration # 14     ecut=   100.00 Ry     beta=0.50
     Davidson diagonalization with overlap
     ethr =  3.84E-11,  avg # of iterations =  3.0

     total cpu time spent up to now is     2222.1 secs

     total energy              =   -2832.36968854 Ry
     Harris-Foulkes estimate   =   -2832.36968856 Ry
     estimated scf accuracy    <       0.00000007 Ry

     iteration # 15     ecut=   100.00 Ry     beta=0.50
     Davidson diagonalization with overlap
     ethr =  1.28E-11,  avg # of iterations =  2.0

     total cpu time spent up to now is     2338.6 secs

     total energy              =   -2832.36968855 Ry
     Harris-Foulkes estimate   =   -2832.36968855 Ry
     estimated scf accuracy    <       0.00000001 Ry

     iteration # 16     ecut=   100.00 Ry     beta=0.50
     Davidson diagonalization with overlap
     ethr =  2.52E-12,  avg # of iterations =  3.0

     total cpu time spent up to now is     2479.4 secs

     End of self-consistent calculation

          k = 0.0000 0.0000 0.0000 (153941 PWs)   bands (ev):

   -24.0003 -23.9988 -23.9680 -23.9677 -23.8761 -23.8753 -23.8466 -23.8464
   -22.2473 -22.2448 -22.1613 -22.1608 -22.0893 -22.0879 -22.0267 -22.0262
   -19.7096 -19.7004 -19.6971 -19.6950 -19.6002 -19.5978 -19.5977 -19.5946
   -18.5854 -18.5820 -18.5481 -18.5418 -18.3935 -18.3916 -18.3914 -18.3901
   -18.3888 -18.3848 -18.3840 -18.3831 -18.3436 -18.3426 -18.3219 -18.3177
   -18.1818 -18.1762 -18.1601 -18.1595 -18.0534 -18.0432 -18.0395 -18.0366
   -15.9343 -15.9342 -15.9327 -15.9317 -15.8357 -15.8336 -15.8318 -15.8294
   -12.7739 -12.7631 -12.7605 -12.7556 -12.7189 -12.7161 -12.7148 -12.7042
   -10.1970 -10.1764 -10.1722 -10.1707 -10.1338 -10.1289 -10.1272 -10.1240
    -9.3171  -9.2051  -9.1847  -9.1357  -9.1274  -9.1240  -9.1206  -9.0680
    -8.7717  -8.7427  -8.7266  -8.6967  -8.6196  -8.6036  -8.5978  -8.5760
    -8.0166  -7.9740  -7.9073  -7.8240  -7.7441  -7.6892  -7.6448  -7.6055
    -6.5993  -6.5668  -6.4546  -6.4253  -6.3963  -6.3501  -6.3089  -6.2908
    -6.2771  -6.2413  -6.2373  -6.1820  -6.1641  -6.1338  -6.1165  -6.1010
    -5.9992  -5.9948  -5.9440  -5.9403  -5.9205  -5.8545  -5.8485  -5.8155
    -5.8118  -5.8077  -5.7563  -5.7463  -5.7136  -5.7027  -5.6937  -5.6697
    -5.6372  -5.6255  -5.6121  -5.6020  -5.5669  -5.5629  -5.5016  -5.4859
    -5.4361  -5.3881  -5.3864  -5.3418  -5.2860  -5.2837  -5.2833  -5.1936
    -5.1476  -5.1265  -5.1043  -5.0774  -4.8899  -4.8650  -4.8234  -4.8196
    -4.5787  -4.5446  -4.5055  -4.4533  -4.4032  -4.4003  -4.3979  -4.3970
    -4.3409  -4.3188  -4.3002  -4.2920  -4.2655  -4.2146  -4.2094  -4.1683
    -3.8629  -3.8566  -3.8541  -3.8527  -3.8170  -3.7830  -3.7558  -3.7378
    -3.5220  -3.4973  -3.4848  -3.4834  -3.4792  -3.4675  -3.4469  -3.4463
    -1.4988  -1.4797  -1.3281  -1.3232  -1.3201  -1.2844  -1.1899  -1.1895
    -1.1702  -1.1553  -1.1483  -1.1213  -1.0639  -1.0590  -1.0377  -0.9535
    -0.9433  -0.9003  -0.8952  -0.8593  -0.8479  -0.8462  -0.8055  -0.7918
    -0.5378  -0.5319  -0.5249  -0.5095  -0.4886  -0.4433  -0.3942  -0.3808
    -0.3804  -0.3666  -0.3634  -0.3107  -0.2699  -0.2597  -0.2368  -0.2262
    -0.1966  -0.1736  -0.0921  -0.0884  -0.0534  -0.0311  -0.0181  -0.0115
     0.0234   0.0501   0.0871   0.0948   0.1020   0.1473   0.1592   0.1634
     1.2426   1.2702   1.2809   1.3110   1.3351   1.3689   1.3772   1.3927
     1.3949   1.3995   1.4269   1.4296   1.4542   1.4581   1.5054   1.5688
     4.5356   4.5862   4.6654   4.6801   4.7072   4.7485   4.7982   4.8098
     4.9358   4.9496   4.9846   5.0023   5.0210   5.0477   5.0871   5.1917
     5.1998   5.2137   5.2594   5.2895   5.3119   5.3688   5.4066   5.4534
     6.5671   6.5724   6.7282   6.7672   6.9436   6.9486   7.0006   7.0158
     7.2928   7.3360   7.3840   7.3933   7.4228   7.4297   7.4560   7.5236
     7.5475   7.7097   8.0339   8.0875   8.2256   8.3507   8.3745   8.8697
     8.8943   8.9183   9.0250

          k = 0.0000 0.0000-0.7004 (154022 PWs)   bands (ev):

   -23.9996 -23.9995 -23.9679 -23.9678 -23.8758 -23.8757 -23.8465 -23.8465
   -22.2461 -22.2461 -22.1610 -22.1610 -22.0886 -22.0886 -22.0265 -22.0265
   -19.7058 -19.7057 -19.6954 -19.6953 -19.5993 -19.5991 -19.5961 -19.5958
   -18.5840 -18.5837 -18.5450 -18.5447 -18.3927 -18.3925 -18.3910 -18.3908
   -18.3864 -18.3862 -18.3839 -18.3839 -18.3431 -18.3431 -18.3200 -18.3197
   -18.1789 -18.1789 -18.1598 -18.1598 -18.0486 -18.0486 -18.0378 -18.0378
   -15.9339 -15.9338 -15.9326 -15.9326 -15.8338 -15.8337 -15.8316 -15.8314
   -12.7691 -12.7691 -12.7582 -12.7582 -12.7157 -12.7157 -12.7106 -12.7106
   -10.1876 -10.1875 -10.1738 -10.1738 -10.1310 -10.1305 -10.1229 -10.1226
    -9.2616  -9.2614  -9.1696  -9.1694  -9.1301  -9.1300  -9.0781  -9.0780
    -8.7496  -8.7495  -8.7240  -8.7240  -8.6136  -8.6133  -8.5904  -8.5900
    -7.9750  -7.9749  -7.8996  -7.8995  -7.6824  -7.6822  -7.6423  -7.6421
    -6.5829  -6.5829  -6.4295  -6.4293  -6.3813  -6.3813  -6.3178  -6.3178
    -6.2629  -6.2629  -6.1884  -6.1883  -6.1095  -6.1095  -6.0922  -6.0922
    -6.0510  -6.0509  -5.9348  -5.9347  -5.8890  -5.8890  -5.8336  -5.8336
    -5.7831  -5.7830  -5.7629  -5.7628  -5.7335  -5.7335  -5.6788  -5.6785
    -5.6513  -5.6513  -5.5841  -5.5840  -5.5675  -5.5674  -5.4516  -5.4515
    -5.3903  -5.3903  -5.3572  -5.3570  -5.3406  -5.3404  -5.2621  -5.2621
    -5.1275  -5.1274  -5.1036  -5.1035  -4.8767  -4.8766  -4.8146  -4.8145
    -4.5463  -4.5462  -4.5008  -4.5007  -4.4126  -4.4125  -4.3884  -4.3883
    -4.3306  -4.3305  -4.2834  -4.2834  -4.2422  -4.2422  -4.1834  -4.1833
    -3.8858  -3.8855  -3.8487  -3.8482  -3.7808  -3.7805  -3.7555  -3.7549
    -3.5164  -3.5162  -3.4897  -3.4897  -3.4674  -3.4673  -3.4424  -3.4424
    -1.4080  -1.4080  -1.3772  -1.3772  -1.2607  -1.2606  -1.2266  -1.2265
    -1.1666  -1.1666  -1.1352  -1.1352  -1.0557  -1.0556  -1.0257  -1.0257
    -0.9263  -0.9262  -0.8685  -0.8684  -0.8349  -0.8349  -0.8081  -0.8079
    -0.5416  -0.5415  -0.5240  -0.5238  -0.4515  -0.4514  -0.3921  -0.3920
    -0.3728  -0.3727  -0.3393  -0.3393  -0.2626  -0.2625  -0.2186  -0.2186
    -0.1939  -0.1939  -0.0947  -0.0943  -0.0465  -0.0465  -0.0207  -0.0206
     0.0379   0.0380   0.0936   0.0937   0.1277   0.1278   0.1621   0.1624
     1.2635   1.2636   1.2913   1.2913   1.3593   1.3594   1.3891   1.3891
     1.3984   1.3985   1.4252   1.4253   1.4372   1.4373   1.5452   1.5453
     4.5539   4.5539   4.6782   4.6783   4.7370   4.7373   4.7971   4.7975
     4.9317   4.9318   5.0187   5.0187   5.0428   5.0430   5.0848   5.0850
     5.2237   5.2237   5.2944   5.2944   5.3287   5.3288   5.4319   5.4319
     6.6365   6.6370   6.6557   6.6562   6.9780   6.9780   6.9872   6.9872
     7.3431   7.3431   7.3820   7.3821   7.4226   7.4226   7.5148   7.5149
     7.6581   7.6583   7.8354   7.8355   8.4088   8.4091   8.6120   8.6121
     8.9751   8.9753   9.0295

          k = 0.0000 0.8707 0.0000 (153951 PWs)   bands (ev):

   -23.9960 -23.9952 -23.9716 -23.9714 -23.8715 -23.8711 -23.8506 -23.8504
   -22.2261 -22.2241 -22.1831 -22.1821 -22.0737 -22.0728 -22.0425 -22.0419
   -19.7061 -19.6999 -19.6991 -19.6962 -19.6008 -19.5996 -19.5981 -19.5963
   -18.5862 -18.5844 -18.5454 -18.5423 -18.3986 -18.3983 -18.3926 -18.3920
   -18.3899 -18.3893 -18.3798 -18.3789 -18.3416 -18.3405 -18.3181 -18.3156
   -18.1767 -18.1716 -18.1663 -18.1628 -18.0496 -18.0427 -18.0411 -18.0378
   -15.9345 -15.9344 -15.9320 -15.9316 -15.8363 -15.8358 -15.8286 -15.8280
   -12.7707 -12.7634 -12.7627 -12.7611 -12.7179 -12.7166 -12.7117 -12.7066
   -10.1931 -10.1825 -10.1721 -10.1718 -10.1345 -10.1300 -10.1248 -10.1242
    -9.2927  -9.2367  -9.1751  -9.1471  -9.1398  -9.1297  -9.1052  -9.0790
    -8.7594  -8.7442  -8.7206  -8.7061  -8.6295  -8.6228  -8.5908  -8.5814
    -8.0099  -7.9888  -7.8874  -7.8465  -7.7389  -7.7113  -7.6328  -7.6129
    -6.4703  -6.4611  -6.3970  -6.3546  -6.3075  -6.3065  -6.2592  -6.2513
    -6.2353  -6.2121  -6.1964  -6.1895  -6.1554  -6.1380  -6.1110  -6.0687
    -6.0438  -6.0289  -5.9792  -5.9763  -5.9384  -5.9338  -5.9068  -5.8618
    -5.8608  -5.8108  -5.7927  -5.7673  -5.7473  -5.7336  -5.7073  -5.6981
    -5.6731  -5.6731  -5.6352  -5.6060  -5.5604  -5.5358  -5.5063  -5.4707
    -5.3953  -5.3881  -5.3728  -5.3243  -5.3142  -5.2752  -5.2440  -5.2105
    -5.1330  -5.1277  -5.1007  -5.0702  -4.8840  -4.8787  -4.8072  -4.7968
    -4.5526  -4.5178  -4.5043  -4.4862  -4.4342  -4.4283  -4.4017  -4.3923
    -4.3317  -4.3195  -4.2905  -4.2773  -4.2642  -4.2260  -4.1914  -4.1650
    -3.8683  -3.8573  -3.8459  -3.8404  -3.8307  -3.8097  -3.7444  -3.7349
    -3.5233  -3.5128  -3.4877  -3.4833  -3.4792  -3.4644  -3.4593  -3.4558
    -1.5057  -1.4948  -1.3509  -1.3402  -1.2947  -1.2715  -1.1747  -1.1523
    -1.1394  -1.1355  -1.1148  -1.1046  -1.0683  -1.0338  -1.0209  -0.9979
    -0.9755  -0.9642  -0.9386  -0.9118  -0.8874  -0.8805  -0.8323  -0.8305
    -0.5928  -0.5667  -0.5164  -0.5130  -0.4528  -0.4344  -0.4029  -0.4014
    -0.3761  -0.3748  -0.3663  -0.3338  -0.3017  -0.2966  -0.2485  -0.2436
    -0.2263  -0.2194  -0.0974  -0.0967  -0.0794  -0.0671  -0.0105  -0.0069
     0.0180   0.0321   0.1103   0.1318   0.1406   0.1420   0.2416   0.2460
     1.2426   1.2520   1.2571   1.2882   1.3575   1.3640   1.3724   1.3726
     1.4004   1.4268   1.4379   1.4496   1.4560   1.4716   1.4758   1.5369
     4.5955   4.6516   4.6584   4.6965   4.7096   4.7263   4.8212   4.8304
     4.9043   4.9457   4.9476   5.0018   5.0036   5.0523   5.1049   5.1134
     5.1445   5.2059   5.2150   5.2270   5.2616   5.3153   5.3331   5.3744
     6.6030   6.6234   6.7211   6.7218   6.8249   6.8450   6.9217   6.9393
     7.2735   7.2854   7.3244   7.3267   7.4256   7.4404   7.4456   7.4801
     8.0360   8.2398   8.4270   8.4461   8.4675   8.6718   8.7532   8.8935
     9.0838   9.0982   9.1709

          k = 0.0000 0.8707-0.7004 (153900 PWs)   bands (ev):

   -23.9957 -23.9955 -23.9716 -23.9714 -23.8713 -23.8712 -23.8505 -23.8505
   -22.2251 -22.2251 -22.1826 -22.1826 -22.0733 -22.0733 -22.0422 -22.0422
   -19.7037 -19.7036 -19.6971 -19.6970 -19.6004 -19.6001 -19.5973 -19.5970
   -18.5855 -18.5852 -18.5440 -18.5437 -18.3985 -18.3983 -18.3922 -18.3920
   -18.3897 -18.3896 -18.3795 -18.3793 -18.3412 -18.3409 -18.3170 -18.3169
   -18.1743 -18.1742 -18.1643 -18.1642 -18.0456 -18.0456 -18.0401 -18.0401
   -15.9345 -15.9344 -15.9318 -15.9317 -15.8355 -15.8354 -15.8290 -15.8289
   -12.7673 -12.7673 -12.7619 -12.7619 -12.7143 -12.7143 -12.7117 -12.7117
   -10.1879 -10.1877 -10.1753 -10.1751 -10.1296 -10.1292 -10.1239 -10.1236
    -9.2435  -9.2434  -9.1961  -9.1960  -9.1202  -9.1201  -9.0917  -9.0916
    -8.7427  -8.7424  -8.7249  -8.7246  -8.6264  -8.6259  -8.5938  -8.5933
    -7.9586  -7.9585  -7.9208  -7.9207  -7.6803  -7.6801  -7.6520  -7.6518
    -6.4654  -6.4653  -6.3676  -6.3673  -6.2964  -6.2963  -6.2722  -6.2721
    -6.2314  -6.2312  -6.1864  -6.1863  -6.1351  -6.1351  -6.0771  -6.0771
    -6.0217  -6.0215  -5.9736  -5.9736  -5.9317  -5.9316  -5.8983  -5.8982
    -5.8483  -5.8482  -5.8040  -5.8038  -5.7455  -5.7455  -5.6955  -5.6954
    -5.6573  -5.6569  -5.6059  -5.6057  -5.5595  -5.5593  -5.4706  -5.4705
    -5.3737  -5.3735  -5.3434  -5.3433  -5.3244  -5.3242  -5.2840  -5.2838
    -5.1071  -5.1070  -5.1001  -5.1000  -4.8715  -4.8714  -4.7927  -4.7926
    -4.5313  -4.5313  -4.5014  -4.5014  -4.4264  -4.4263  -4.4074  -4.4072
    -4.3271  -4.3270  -4.2805  -4.2805  -4.2294  -4.2293  -4.1830  -4.1829
    -3.8793  -3.8788  -3.8600  -3.8596  -3.7944  -3.7939  -3.7451  -3.7446
    -3.5275  -3.5274  -3.4925  -3.4924  -3.4652  -3.4650  -3.4496  -3.4494
    -1.4006  -1.4005  -1.3819  -1.3818  -1.2511  -1.2509  -1.2283  -1.2281
    -1.1266  -1.1266  -1.1239  -1.1239  -1.0720  -1.0719  -1.0072  -1.0071
    -0.9784  -0.9784  -0.9211  -0.9210  -0.8780  -0.8778  -0.8330  -0.8328
    -0.5837  -0.5835  -0.5140  -0.5139  -0.4338  -0.4336  -0.4001  -0.4000
    -0.3789  -0.3788  -0.3571  -0.3570  -0.2922  -0.2921  -0.2496  -0.2496
    -0.2156  -0.2155  -0.1041  -0.1039  -0.0723  -0.0722  -0.0091  -0.0089
     0.0213   0.0213   0.1211   0.1212   0.1408   0.1410   0.2442   0.2443
     1.2478   1.2480   1.2747   1.2747   1.3681   1.3682   1.3807   1.3807
     1.4104   1.4104   1.4379   1.4380   1.4464   1.4464   1.5155   1.5156
     4.6192   4.6192   4.6792   4.6793   4.7466   4.7470   4.7928   4.7932
     4.9201   4.9202   4.9984   4.9986   5.0181   5.0181   5.0909   5.0911
     5.1805   5.1805   5.2257   5.2258   5.2894   5.2894   5.3571   5.3571
     6.6537   6.6540   6.6713   6.6715   6.8684   6.8685   6.8910   6.8912
     7.2985   7.2987   7.3172   7.3174   7.4267   7.4268   7.4741   7.4742
     8.1141   8.1142   8.3197   8.3198   8.6583   8.6587   8.8859   8.8862
     9.0093   9.0095   9.1994

     highest occupied, lowest unoccupied level (ev):     1.5688    4.5356

!    total energy              =   -2832.36968855 Ry
     Harris-Foulkes estimate   =   -2832.36968855 Ry
     estimated scf accuracy    <          2.5E-09 Ry

     total all-electron energy =    -10733.375855 Ry

     The total energy is the sum of the following terms:

     one-electron contribution =   -1451.12911176 Ry
     hartree contribution      =     932.11821641 Ry
     xc contribution           =    -558.26888397 Ry
     ewald contribution        =    -968.92012062 Ry
     Dispersion Correction     =      -0.61069821 Ry
     one-center paw contrib.   =    -785.55909040 Ry

     convergence has been achieved in  16 iterations

     Forces acting on atoms (cartesian axes, Ry/au):

     atom    1 type  4   force =    -0.00288715    0.00065123   -0.00121781
     atom    2 type  4   force =     0.00293041    0.00065083    0.00121509
     atom    3 type  4   force =     0.00288715   -0.00065123    0.00121781
     atom    4 type  4   force =    -0.00293041   -0.00065083   -0.00121509
     atom    5 type  4   force =    -0.00003608    0.00110909   -0.00006004
     atom    6 type  4   force =     0.00002816    0.00109300    0.00000692
     atom    7 type  4   force =     0.00003608   -0.00110909    0.00006004
     atom    8 type  4   force =    -0.00002816   -0.00109300   -0.00000692
     atom    9 type  4   force =    -0.00107269   -0.00071730    0.00041286
     atom   10 type  4   force =     0.00115623   -0.00075551   -0.00044239
     atom   11 type  4   force =     0.00107269    0.00071730   -0.00041286
     atom   12 type  4   force =    -0.00115623    0.00075551    0.00044239
     atom   13 type  4   force =    -0.00002491    0.00054227   -0.00076854
     atom   14 type  4   force =     0.00006656    0.00053200    0.00074185
     atom   15 type  4   force =     0.00002491   -0.00054227    0.00076854
     atom   16 type  4   force =    -0.00006656   -0.00053200   -0.00074185
     atom   17 type  4   force =     0.00307500    0.00006992    0.00012885
     atom   18 type  4   force =    -0.00300012    0.00008227   -0.00012418
     atom   19 type  4   force =    -0.00307500   -0.00006992   -0.00012885
     atom   20 type  4   force =     0.00300012   -0.00008227    0.00012418
     atom   21 type  4   force =     0.00044297   -0.00084900    0.00087614
     atom   22 type  4   force =    -0.00040754   -0.00083198   -0.00085124
     atom   23 type  4   force =    -0.00044297    0.00084900   -0.00087614
     atom   24 type  4   force =     0.00040754    0.00083198    0.00085124
     atom   25 type  2   force =     0.00046151   -0.00027636    0.00033730
     atom   26 type  2   force =    -0.00078993   -0.00023351   -0.00056378
     atom   27 type  2   force =    -0.00046151    0.00027636   -0.00033730
     atom   28 type  2   force =     0.00078993    0.00023351    0.00056378
     atom   29 type  2   force =    -0.00062246   -0.00073080   -0.00354918
     atom   30 type  2   force =     0.00040886   -0.00065495    0.00326314
     atom   31 type  2   force =     0.00062246    0.00073080    0.00354918
     atom   32 type  2   force =    -0.00040886    0.00065495   -0.00326314
     atom   33 type  2   force =     0.00039114   -0.00066863    0.00059257
     atom   34 type  2   force =    -0.00034454   -0.00063366   -0.00064004
     atom   35 type  2   force =    -0.00039114    0.00066863   -0.00059257
     atom   36 type  2   force =     0.00034454    0.00063366    0.00064004
     atom   37 type  2   force =    -0.00346286    0.00008433   -0.00026346
     atom   38 type  2   force =     0.00347631    0.00005452    0.00026447
     atom   39 type  2   force =     0.00346286   -0.00008433    0.00026346
     atom   40 type  2   force =    -0.00347631   -0.00005452   -0.00026447
     atom   41 type  2   force =     0.00219114    0.00014284    0.00009062
     atom   42 type  2   force =    -0.00225375    0.00014502   -0.00010762
     atom   43 type  2   force =    -0.00219114   -0.00014284   -0.00009062
     atom   44 type  2   force =     0.00225375   -0.00014502    0.00010762
     atom   45 type  2   force =     0.00037109    0.00010103   -0.00034072
     atom   46 type  2   force =    -0.00027452    0.00010575    0.00036904
     atom   47 type  2   force =    -0.00037109   -0.00010103    0.00034072
     atom   48 type  2   force =     0.00027452   -0.00010575   -0.00036904
     atom   49 type  2   force =     0.00011876    0.00053053   -0.00114195
     atom   50 type  2   force =     0.00027541    0.00051287    0.00111711
     atom   51 type  2   force =    -0.00011876   -0.00053053    0.00114195
     atom   52 type  2   force =    -0.00027541   -0.00051287   -0.00111711
     atom   53 type  2   force =    -0.00090550   -0.00045648   -0.00012194
     atom   54 type  2   force =     0.00092887   -0.00045797    0.00013003
     atom   55 type  2   force =     0.00090550    0.00045648    0.00012194
     atom   56 type  2   force =    -0.00092887    0.00045797   -0.00013003
     atom   57 type  2   force =     0.00230837    0.00015314    0.00134082
     atom   58 type  2   force =    -0.00226857    0.00013848   -0.00128434
     atom   59 type  2   force =    -0.00230837   -0.00015314   -0.00134082
     atom   60 type  2   force =     0.00226857   -0.00013848    0.00128434
     atom   61 type  2   force =    -0.00030207    0.00017114   -0.00111825
     atom   62 type  2   force =     0.00024557    0.00018904    0.00106284
     atom   63 type  2   force =     0.00030207   -0.00017114    0.00111825
     atom   64 type  2   force =    -0.00024557   -0.00018904   -0.00106284
     atom   65 type  2   force =     0.00317515   -0.00069731    0.00137468
     atom   66 type  2   force =    -0.00329958   -0.00064330   -0.00132489
     atom   67 type  2   force =    -0.00317515    0.00069731   -0.00137468
     atom   68 type  2   force =     0.00329958    0.00064330    0.00132489
     atom   69 type  2   force =    -0.00322584    0.00139059    0.00045509
     atom   70 type  2   force =     0.00308298    0.00137208   -0.00045885
     atom   71 type  2   force =     0.00322584   -0.00139059   -0.00045509
     atom   72 type  2   force =    -0.00308298   -0.00137208    0.00045885
     atom   73 type  1   force =    -0.00141712   -0.00033862    0.00016619
     atom   74 type  1   force =     0.00142295   -0.00020563   -0.00047703
     atom   75 type  1   force =     0.00141712    0.00033862   -0.00016619
     atom   76 type  1   force =    -0.00142295    0.00020563    0.00047703
     atom   77 type  3   force =     0.00006307    0.00050587    0.00002936
     atom   78 type  3   force =    -0.00006736    0.00046419    0.00007132
     atom   79 type  3   force =    -0.00006307   -0.00050587   -0.00002936
     atom   80 type  3   force =     0.00006736   -0.00046419   -0.00007132
     atom   81 type  1   force =    -0.00003697    0.00026579    0.00064674
     atom   82 type  1   force =     0.00033487    0.00019982   -0.00041265
     atom   83 type  1   force =     0.00003697   -0.00026579   -0.00064674
     atom   84 type  1   force =    -0.00033487   -0.00019982    0.00041265
     atom   85 type  3   force =     0.00009855   -0.00000754   -0.00006612
     atom   86 type  3   force =    -0.00019713   -0.00000342    0.00004957
     atom   87 type  3   force =    -0.00009855    0.00000754    0.00006612
     atom   88 type  3   force =     0.00019713    0.00000342   -0.00004957
     atom   89 type  1   force =     0.00134870    0.00191676   -0.00155147
     atom   90 type  1   force =    -0.00117568    0.00180986    0.00192074
     atom   91 type  1   force =    -0.00134870   -0.00191676    0.00155147
     atom   92 type  1   force =     0.00117568   -0.00180986   -0.00192074
     atom   93 type  1   force =    -0.00044890   -0.00021998    0.00106074
     atom   94 type  1   force =     0.00016972   -0.00021545   -0.00102116
     atom   95 type  1   force =     0.00044890    0.00021998   -0.00106074
     atom   96 type  1   force =    -0.00016972    0.00021545    0.00102116
     atom   97 type  3   force =    -0.00065554   -0.00033395    0.00007320
     atom   98 type  3   force =     0.00073965   -0.00033952   -0.00006316
     atom   99 type  3   force =     0.00065554    0.00033395   -0.00007320
     atom  100 type  3   force =    -0.00073965    0.00033952    0.00006316
     atom  101 type  1   force =     0.00035650   -0.00018987    0.00178727
     atom  102 type  1   force =    -0.00026728   -0.00017867   -0.00194603
     atom  103 type  1   force =    -0.00035650    0.00018987   -0.00178727
     atom  104 type  1   force =     0.00026728    0.00017867    0.00194603
     atom  105 type  3   force =     0.00006548   -0.00010931   -0.00036536
     atom  106 type  3   force =    -0.00009354   -0.00011966    0.00045116
     atom  107 type  3   force =    -0.00006548    0.00010931    0.00036536
     atom  108 type  3   force =     0.00009354    0.00011966   -0.00045116
     atom  109 type  1   force =     0.00051824   -0.00011310   -0.00067536
     atom  110 type  1   force =    -0.00071579   -0.00010247    0.00057809
     atom  111 type  1   force =    -0.00051824    0.00011310    0.00067536
     atom  112 type  1   force =     0.00071579    0.00010247   -0.00057809
     atom  113 type  3   force =    -0.00024364    0.00012712    0.00035958
     atom  114 type  3   force =     0.00020791    0.00012553   -0.00036000
     atom  115 type  3   force =     0.00024364   -0.00012712   -0.00035958
     atom  116 type  3   force =    -0.00020791   -0.00012553    0.00036000
     atom  117 type  3   force =     0.00041011    0.00082871    0.00029166
     atom  118 type  3   force =    -0.00039662    0.00080398   -0.00020645
     atom  119 type  3   force =    -0.00041011   -0.00082871   -0.00029166
     atom  120 type  3   force =     0.00039662   -0.00080398    0.00020645
     atom  121 type  3   force =    -0.00047213   -0.00046239    0.00034407
     atom  122 type  3   force =     0.00035324   -0.00045476   -0.00033848
     atom  123 type  3   force =     0.00047213    0.00046239   -0.00034407
     atom  124 type  3   force =    -0.00035324    0.00045476    0.00033848
     atom  125 type  3   force =     0.00066303    0.00021195   -0.00001998
     atom  126 type  3   force =    -0.00051303    0.00019797    0.00009056
     atom  127 type  3   force =    -0.00066303   -0.00021195    0.00001998
     atom  128 type  3   force =     0.00051303   -0.00019797   -0.00009056

     Total force =     0.021155     Total SCF correction =     0.000109


     Computing stress (Cartesian axis) and pressure

          total   stress  (Ry/bohr**3)                   (kbar)     P=    1.31
   0.00000361   0.00000005  -0.00000181          0.53      0.01     -0.27
   0.00000005   0.00000851  -0.00000000          0.01      1.25     -0.00
  -0.00000181  -0.00000000   0.00001466         -0.27     -0.00      2.16


     Writing output data file scf.save
 
     init_run     :     70.27s CPU     72.63s WALL (       1 calls)
     electrons    :   2328.95s CPU   2406.35s WALL (       1 calls)
     forces       :     40.03s CPU     40.36s WALL (       1 calls)
     stress       :    178.79s CPU    179.25s WALL (       1 calls)

     Called by init_run:
     wfcinit      :     55.00s CPU     57.09s WALL (       1 calls)
     potinit      :      5.24s CPU      5.31s WALL (       1 calls)

     Called by electrons:
     c_bands      :   2101.57s CPU   2165.33s WALL (      16 calls)
     sum_band     :    207.54s CPU    218.70s WALL (      16 calls)
     v_of_rho     :      2.94s CPU      3.25s WALL (      17 calls)
     newd         :      8.19s CPU     10.18s WALL (      17 calls)
     PAW_pot      :      8.26s CPU      8.27s WALL (      17 calls)
     mix_rho      :      0.61s CPU      0.73s WALL (      16 calls)

     Called by c_bands:
     init_us_2    :      7.53s CPU      7.60s WALL (     140 calls)
     cegterg      :   2067.65s CPU   2131.36s WALL (      64 calls)

     Called by sum_band:
     sum_band:bec :      0.11s CPU      0.11s WALL (      64 calls)
     addusdens    :      8.40s CPU     10.27s WALL (      16 calls)

     Called by *egterg:
     h_psi        :   1017.09s CPU   1066.67s WALL (     341 calls)
     s_psi        :    288.57s CPU    288.67s WALL (     341 calls)
     g_psi        :      3.82s CPU      3.82s WALL (     273 calls)
     cdiaghg      :    142.64s CPU    142.69s WALL (     337 calls)

     Called by h_psi:
     h_psi:pot    :   1011.45s CPU   1060.92s WALL (     341 calls)
     h_psi:calbec :    278.77s CPU    279.20s WALL (     341 calls)
     vloc_psi     :    444.46s CPU    493.38s WALL (     341 calls)
     add_vuspsi   :    288.22s CPU    288.34s WALL (     341 calls)

     General routines
     calbec       :    414.90s CPU    415.55s WALL (     425 calls)
     fft          :      1.66s CPU      2.24s WALL (     245 calls)
     fftw         :    476.76s CPU    534.52s WALL (  123244 calls)
 
     Parallel routines
     fft_scatter  :     90.90s CPU    147.54s WALL (  123489 calls)
 
     PWSCF        : 43m51.13s CPU    45m46.76s WALL

 
   This run was terminated on:  10:28:29  12Nov2017            

=------------------------------------------------------------------------------=
   JOB DONE.
=------------------------------------------------------------------------------=
