
     Program PWSCF v.6.1 (svn rev. 13369) starts on 22Dec2017 at 10:15:16 

     This program is part of the open-source Quantum ESPRESSO suite
     for quantum simulation of materials; please cite
         "P. Giannozzi et al., J. Phys.:Condens. Matter 21 395502 (2009);
          URL http://www.quantum-espresso.org", 
     in publications or presentations arising from this work. More details at
     http://www.quantum-espresso.org/quote

     Parallel version (MPI), running on     8 processors
     R & G space division:  proc/nbgrp/npool/nimage =       8
     Waiting for input...
     Reading input from standard input

     Current dimensions of program PWSCF are:
     Max number of different atomic species (ntypx) = 10
     Max number of k-points (npk) =  40000
     Max angular momentum in pseudopotentials (lmaxx) =  3
               file C.pbe-n-kjpaw_psl.0.1.UPF: wavefunction(s)  2P renormalized
               file N.pbe-n-kjpaw_psl.0.1.UPF: wavefunction(s)  2P renormalized
               file H.pbe-kjpaw_psl.0.1.UPF: wavefunction(s)  1S renormalized
               file O.pbe-n-kjpaw_psl.0.1.UPF: wavefunction(s)  2P renormalized

     -------------------------------------
     Parameters for Dispersion Correction:
     -------------------------------------
       atom      VdW radius       C_6     

        C          2.744         60.710
        N          2.640         42.670
        H          1.892          4.857
        O          2.536         24.284

     Subspace diagonalization in iterative solution of the eigenvalue problem:
     a serial algorithm will be used

 
     Parallelization info
     --------------------
     sticks:   dense  smooth     PW     G-vecs:    dense   smooth      PW
     Min        2182    2182    569               209058   209058   27925
     Max        2184    2184    570               209061   209061   27926
     Sum       17461   17461   4559              1672477  1672477  223407
 


     bravais-lattice index     =            0
     lattice parameter (alat)  =      46.9238  a.u.
     unit-cell volume          =   12380.3938 (a.u.)^3
     number of atoms/cell      =          200
     number of atomic types    =            4
     number of electrons       =       544.00
     number of Kohn-Sham states=          326
     kinetic-energy cutoff     =     100.0000  Ry
     charge density cutoff     =     400.0000  Ry
     convergence threshold     =      1.0E-08
     mixing beta               =       0.5000
     number of iterations used =            8  plain     mixing
     Exchange-correlation      =  SLA  PW   PBX  PBC ( 1  4  3  4 0 0)

     celldm(1)=  46.923790  celldm(2)=   0.000000  celldm(3)=   0.000000
     celldm(4)=   0.000000  celldm(5)=   0.000000  celldm(6)=   0.000000

     crystal axes: (cart. coord. in units of alat)
               a(1) = (   1.000000   0.000000   0.000000 )  
               a(2) = (   0.000000   0.249124   0.000000 )  
               a(3) = (  -0.039122   0.000000   0.480994 )  

     reciprocal axes: (cart. coord. in units 2 pi/alat)
               b(1) = (  1.000000  0.000000  0.081336 )  
               b(2) = (  0.000000  4.014064  0.000000 )  
               b(3) = (  0.000000  0.000000  2.079029 )  


     PseudoPot. # 1 for  C read from file:
     /scratch/ahofstet/pseudo/C.pbe-n-kjpaw_psl.0.1.UPF
     MD5 check sum: 430fe95172b1e11ef3f8ed03bac87931
     Pseudo is Projector augmented-wave + core cor, Zval =  4.0
     Generated using "atomic" code by A. Dal Corso  v.5.0.99 svn rev. 10869
     Shape of augmentation charge: BESSEL
     Using radial grid of 1073 points,  4 beta functions with: 
                l(1) =   0
                l(2) =   0
                l(3) =   1
                l(4) =   1
     Q(r) pseudized with 0 coefficients 


     PseudoPot. # 2 for  N read from file:
     /scratch/ahofstet/pseudo/N.pbe-n-kjpaw_psl.0.1.UPF
     MD5 check sum: f73187c8b701007e77325f868c9291d7
     Pseudo is Projector augmented-wave + core cor, Zval =  5.0
     Generated using "atomic" code by A. Dal Corso  v.5.0.99 svn rev. 10869
     Shape of augmentation charge: PSQ
     Using radial grid of 1085 points,  4 beta functions with: 
                l(1) =   0
                l(2) =   0
                l(3) =   1
                l(4) =   1
     Q(r) pseudized with 0 coefficients 


     PseudoPot. # 3 for  H read from file:
     /scratch/ahofstet/pseudo/H.pbe-kjpaw_psl.0.1.UPF
     MD5 check sum: 94e484f906d9e9773b2f6e52662335b2
     Pseudo is Projector augmented-wave, Zval =  1.0
     Generated using "atomic" code by A. Dal Corso  v.5.0.99 svn rev. 10869
     Shape of augmentation charge: PSQ
     Using radial grid of  929 points,  2 beta functions with: 
                l(1) =   0
                l(2) =   0
     Q(r) pseudized with 0 coefficients 


     PseudoPot. # 4 for  O read from file:
     /scratch/ahofstet/pseudo/O.pbe-n-kjpaw_psl.0.1.UPF
     MD5 check sum: 3f94a2996a3169367d6eb21d9b593f20
     Pseudo is Projector augmented-wave + core cor, Zval =  6.0
     Generated using "atomic" code by A. Dal Corso  v.5.0.99 svn rev. 10869
     Shape of augmentation charge: BESSEL
     Using radial grid of 1095 points,  4 beta functions with: 
                l(1) =   0
                l(2) =   0
                l(3) =   1
                l(4) =   1
     Q(r) pseudized with 0 coefficients 


     atomic species   valence    mass     pseudopotential
        C              4.00    12.01070      C( 1.00)
        N              5.00    14.00670      N( 1.00)
        H              1.00     1.00794      H( 1.00)
        O              6.00    15.99940      O( 1.00)

      2 Sym. Ops., with inversion, found



   Cartesian axes

     site n.     atom                  positions (alat units)
         1           O   tau(   1) = (  -0.0067616   0.0511700   0.2005200  )
         2           O   tau(   2) = (   0.9872035   0.0511688   0.0399802  )
         3           O   tau(   3) = (   0.4932361   0.1757313   0.2005176  )
         4           O   tau(   4) = (   0.4871986   0.1757303   0.0399787  )
         5           O   tau(   5) = (   0.9676392   0.1979541   0.2804738  )
         6           O   tau(   6) = (  -0.0263258   0.1979553   0.4410137  )
         7           O   tau(   7) = (   0.4676416   0.0733927   0.2804762  )
         8           O   tau(   8) = (   0.4736791   0.0733938   0.4410151  )
         9           O   tau(   9) = (   0.0377817   0.0267121   0.2757562  )
        10           O   tau(  10) = (   0.9035358   0.0267115   0.4457343  )
        11           O   tau(  11) = (   0.5377814   0.1512727   0.2757563  )
        12           O   tau(  12) = (   0.4035357   0.1512745   0.4457330  )
        13           O   tau(  13) = (   0.9230959   0.2224120   0.2052376  )
        14           O   tau(  14) = (   0.0573419   0.2224126   0.0352595  )
        15           O   tau(  15) = (   0.4230962   0.0978514   0.2052376  )
        16           O   tau(  16) = (   0.5573420   0.0978496   0.0352609  )
        17           C   tau(  17) = (   0.0305981   0.0578109   0.2331406  )
        18           C   tau(  18) = (   0.9498367   0.0578125   0.0073535  )
        19           C   tau(  19) = (   0.5306003   0.1823752   0.2331432  )
        20           C   tau(  20) = (   0.4498412   0.1823734   0.0073573  )
        21           C   tau(  21) = (   0.9302796   0.1913132   0.2478532  )
        22           C   tau(  22) = (   0.0110410   0.1913116   0.4736403  )
        23           C   tau(  23) = (   0.4302774   0.0667489   0.2478506  )
        24           C   tau(  24) = (   0.5110364   0.0667507   0.4736366  )
        25           C   tau(  25) = (   0.0703929   0.1036755   0.2278956  )
        26           C   tau(  26) = (   0.9100467   0.1036753   0.0126013  )
        27           C   tau(  27) = (   0.5703927   0.2282367   0.2278957  )
        28           C   tau(  28) = (   0.4100471   0.2282371   0.0126010  )
        29           C   tau(  29) = (   0.8904848   0.1454486   0.2530982  )
        30           C   tau(  30) = (   0.0508310   0.1454487   0.4683925  )
        31           C   tau(  31) = (   0.3904850   0.0208874   0.2530981  )
        32           C   tau(  32) = (   0.5508306   0.0208869   0.4683929  )
        33           C   tau(  33) = (   0.1265658   0.0896767   0.2498849  )
        34           C   tau(  34) = (   0.8147511   0.0896767   0.4716067  )
        35           C   tau(  35) = (   0.6265657   0.2142388   0.2498847  )
        36           C   tau(  36) = (   0.3147514   0.2142384   0.4716068  )
        37           C   tau(  37) = (   0.8343119   0.1594474   0.2311090  )
        38           C   tau(  38) = (   0.1461265   0.1594474   0.0093872  )
        39           C   tau(  39) = (   0.3343120   0.0348853   0.2311091  )
        40           C   tau(  40) = (   0.6461263   0.0348856   0.0093871  )
        41           C   tau(  41) = (   0.1714607   0.1290980   0.2308083  )
        42           C   tau(  42) = (   0.8089774   0.1290984   0.0096884  )
        43           C   tau(  43) = (   0.6714609   0.0045353   0.2308090  )
        44           C   tau(  44) = (   0.3089780   0.0045361   0.0096880  )
        45           C   tau(  45) = (   0.7894170   0.1200261   0.2501855  )
        46           C   tau(  46) = (   0.1519003   0.1200257   0.4713054  )
        47           C   tau(  47) = (   0.2894168   0.2445888   0.2501849  )
        48           C   tau(  48) = (   0.6518996   0.2445880   0.4713058  )
        49           C   tau(  49) = (   0.1527053   0.1772786   0.1990316  )
        50           C   tau(  50) = (   0.8277377   0.1772769   0.0414683  )
        51           C   tau(  51) = (   0.6527018   0.0527169   0.1990284  )
        52           C   tau(  52) = (   0.3277358   0.0527161   0.0414672  )
        53           C   tau(  53) = (   0.8081723   0.0718454   0.2819623  )
        54           C   tau(  54) = (   0.1331400   0.0718472   0.4395255  )
        55           C   tau(  55) = (   0.3081759   0.1964071   0.2819655  )
        56           C   tau(  56) = (   0.6331418   0.1964080   0.4395266  )
        57           C   tau(  57) = (   0.1082541   0.1749980   0.1683850  )
        58           C   tau(  58) = (   0.8721817   0.1749989   0.0721097  )
        59           C   tau(  59) = (   0.6082581   0.0504341   0.1683895  )
        60           C   tau(  60) = (   0.3721829   0.0504356   0.0721107  )
        61           C   tau(  61) = (   0.8526236   0.0741260   0.3126089  )
        62           C   tau(  62) = (   0.0886960   0.0741252   0.4088842  )
        63           C   tau(  63) = (   0.3526196   0.1986899   0.3126044  )
        64           C   tau(  64) = (   0.5886948   0.1986885   0.4088832  )
        65           C   tau(  65) = (   0.0731895   0.1257813   0.1699903  )
        66           C   tau(  66) = (   0.9072500   0.1257812   0.0705063  )
        67           C   tau(  67) = (   0.5731881   0.0012198   0.1699900  )
        68           C   tau(  68) = (   0.4072502   0.0012191   0.0705064  )
        69           C   tau(  69) = (   0.8876882   0.1233427   0.3110035  )
        70           C   tau(  70) = (   0.0536277   0.1233429   0.4104875  )
        71           C   tau(  71) = (   0.3876895   0.2479043   0.3110038  )
        72           C   tau(  72) = (   0.5536275   0.2479050   0.4104874  )
        73           C   tau(  73) = (   0.0946259   0.0858236   0.1286370  )
        74           C   tau(  74) = (   0.8858105   0.0858224   0.1118604  )
        75           C   tau(  75) = (   0.5946305   0.2103844   0.1286372  )
        76           C   tau(  76) = (   0.3858081   0.2103838   0.1118603  )
        77           C   tau(  77) = (   0.8662518   0.1633004   0.3523569  )
        78           C   tau(  78) = (   0.0750672   0.1633016   0.3691334  )
        79           C   tau(  79) = (   0.3662471   0.0387397   0.3523567  )
        80           C   tau(  80) = (   0.5750696   0.0387403   0.3691335  )
        81           C   tau(  81) = (   0.1454127   0.0672640   0.1199370  )
        82           C   tau(  82) = (   0.8350287   0.0672657   0.1205593  )
        83           C   tau(  83) = (   0.6454094   0.1918277   0.1199379  )
        84           C   tau(  84) = (   0.3350302   0.1918285   0.1205593  )
        85           C   tau(  85) = (   0.8154650   0.1818601   0.3610568  )
        86           C   tau(  86) = (   0.1258489   0.1818584   0.3604345  )
        87           C   tau(  87) = (   0.3154682   0.0572963   0.3610560  )
        88           C   tau(  88) = (   0.6258474   0.0572955   0.3604346  )
        89           C   tau(  89) = (   0.1972609   0.0775066   0.1450260  )
        90           C   tau(  90) = (   0.7831773   0.0775059   0.0954726  )
        91           C   tau(  91) = (   0.6972611   0.2020688   0.1450263  )
        92           C   tau(  92) = (   0.2831768   0.2020688   0.0954709  )
        93           C   tau(  93) = (   0.7636167   0.1716174   0.3359679  )
        94           C   tau(  94) = (   0.1777004   0.1716182   0.3855213  )
        95           C   tau(  95) = (   0.2636166   0.0470553   0.3359675  )
        96           C   tau(  96) = (   0.6777009   0.0470553   0.3855229  )
        97           C   tau(  97) = (   0.2105299   0.1036199   0.1910816  )
        98           C   tau(  98) = (   0.7699094   0.1036207   0.0494148  )
        99           C   tau(  99) = (   0.7105306   0.2281819   0.1910811  )
       100           C   tau( 100) = (   0.2699091   0.2281818   0.0494158  )
       101           C   tau( 101) = (   0.7503477   0.1455041   0.2899122  )
       102           C   tau( 102) = (   0.1909683   0.1455034   0.4315790  )
       103           C   tau( 103) = (   0.2503471   0.0209422   0.2899127  )
       104           C   tau( 104) = (   0.6909686   0.0209423   0.4315781  )
       105           H   tau( 105) = (   0.0089739  -0.0030357   0.2766565  )
       106           H   tau( 106) = (   0.9323420  -0.0030349   0.4448340  )
       107           H   tau( 107) = (   0.5089745   0.1215266   0.2766565  )
       108           H   tau( 108) = (   0.4323435   0.1215277   0.4448334  )
       109           H   tau( 109) = (   0.9519038   0.2521598   0.2043374  )
       110           H   tau( 110) = (   0.0285357   0.2521590   0.0361598  )
       111           H   tau( 111) = (   0.4519032   0.1275975   0.2043374  )
       112           H   tau( 112) = (   0.5285342   0.1275964   0.0361605  )
       113           H   tau( 113) = (   0.0531766   0.1364297   0.2528471  )
       114           H   tau( 114) = (   0.8881398   0.1364299   0.4686439  )
       115           H   tau( 115) = (   0.5531770   0.0118669   0.2528466  )
       116           H   tau( 116) = (   0.3881398   0.0118679   0.4686440  )
       117           H   tau( 117) = (   0.9077011   0.1126944   0.2281468  )
       118           H   tau( 118) = (   0.0727378   0.1126942   0.0123500  )
       119           H   tau( 119) = (   0.4077007   0.2372572   0.2281472  )
       120           H   tau( 120) = (   0.5727378   0.2372562   0.0123499  )
       121           H   tau( 121) = (   0.1365937   0.0486721   0.2369889  )
       122           H   tau( 122) = (   0.8438451   0.0486724   0.0035079  )
       123           H   tau( 123) = (   0.6365938   0.1732341   0.2369889  )
       124           H   tau( 124) = (   0.3438447   0.1732342   0.0035080  )
       125           H   tau( 125) = (   0.8242840   0.2004519   0.2440049  )
       126           H   tau( 126) = (   0.1170326   0.2004517   0.4774859  )
       127           H   tau( 127) = (   0.3242838   0.0758900   0.2440049  )
       128           H   tau( 128) = (   0.6170329   0.0758899   0.4774859  )
       129           H   tau( 129) = (   0.1251479   0.0894213   0.2940396  )
       130           H   tau( 130) = (   0.8161685   0.0894215   0.4274512  )
       131           H   tau( 131) = (   0.6251481   0.2139831   0.2940395  )
       132           H   tau( 132) = (   0.3161685   0.2139833   0.4274514  )
       133           H   tau( 133) = (   0.8357298   0.1597028   0.1869543  )
       134           H   tau( 134) = (   0.1447091   0.1597025   0.0535426  )
       135           H   tau( 135) = (   0.3357296   0.0351410   0.1869544  )
       136           H   tau( 136) = (   0.6447091   0.0351407   0.0535425  )
       137           H   tau( 137) = (   0.1945997   0.1422234   0.2662056  )
       138           H   tau( 138) = (   0.7467169   0.1422236   0.4552857  )
       139           H   tau( 139) = (   0.6945998   0.0176613   0.2662058  )
       140           H   tau( 140) = (   0.2467168   0.0176617   0.4552852  )
       141           H   tau( 141) = (   0.7662780   0.1069006   0.2147882  )
       142           H   tau( 142) = (   0.2141607   0.1069005   0.0257081  )
       143           H   tau( 143) = (   0.2662779   0.2314627   0.2147881  )
       144           H   tau( 144) = (   0.7141609   0.2314624   0.0257086  )
       145           H   tau( 145) = (   0.1799231   0.2117207   0.1959133  )
       146           H   tau( 146) = (   0.8005151   0.2117221   0.0445838  )
       147           H   tau( 147) = (   0.6799234   0.0871586   0.1959137  )
       148           H   tau( 148) = (   0.3005154   0.0871594   0.0445837  )
       149           H   tau( 149) = (   0.7809546   0.0374034   0.2850805  )
       150           H   tau( 150) = (   0.1603626   0.0374020   0.4364101  )
       151           H   tau( 151) = (   0.2809542   0.1619655   0.2850801  )
       152           H   tau( 152) = (   0.6603622   0.1619647   0.4364101  )
       153           H   tau( 153) = (   0.0986899   0.2067884   0.1396508  )
       154           H   tau( 154) = (   0.8817495   0.2067887   0.1008467  )
       155           H   tau( 155) = (   0.5986895   0.0822278   0.1396495  )
       156           H   tau( 156) = (   0.3817494   0.0822270   0.1008470  )
       157           H   tau( 157) = (   0.8621878   0.0423356   0.3413431  )
       158           H   tau( 158) = (   0.0791282   0.0423354   0.3801471  )
       159           H   tau( 159) = (   0.3621882   0.1668962   0.3413444  )
       160           H   tau( 160) = (   0.5791282   0.1668971   0.3801468  )
       161           H   tau( 161) = (   0.0320730   0.1362625   0.1574506  )
       162           H   tau( 162) = (   0.9483661   0.1362625   0.0830466  )
       163           H   tau( 163) = (   0.5320734   0.0117001   0.1574507  )
       164           H   tau( 164) = (   0.4483659   0.0117001   0.0830467  )
       165           H   tau( 165) = (   0.9288047   0.1128616   0.3235433  )
       166           H   tau( 166) = (   0.0125115   0.1128616   0.3979473  )
       167           H   tau( 167) = (   0.4288043   0.2374239   0.3235431  )
       168           H   tau( 168) = (   0.5125118   0.2374240   0.3979471  )
       169           H   tau( 169) = (   0.0640387   0.0712890   0.1006116  )
       170           H   tau( 170) = (   0.9164005   0.0712889   0.1398856  )
       171           H   tau( 171) = (   0.5640384   0.1958509   0.1006109  )
       172           H   tau( 172) = (   0.4164006   0.1958504   0.1398860  )
       173           H   tau( 173) = (   0.8968390   0.1778350   0.3803822  )
       174           H   tau( 174) = (   0.0444771   0.1778352   0.3411082  )
       175           H   tau( 175) = (   0.3968393   0.0532732   0.3803829  )
       176           H   tau( 176) = (   0.5444770   0.0532737   0.3411078  )
       177           H   tau( 177) = (   0.1483718   0.0397087   0.0856220  )
       178           H   tau( 178) = (   0.8320668   0.0397081   0.1548756  )
       179           H   tau( 179) = (   0.6483725   0.1642702   0.0856213  )
       180           H   tau( 180) = (   0.3320662   0.1642697   0.1548759  )
       181           H   tau( 181) = (   0.8125058   0.2094154   0.3953719  )
       182           H   tau( 182) = (   0.1288109   0.2094160   0.3261182  )
       183           H   tau( 183) = (   0.3125052   0.0848539   0.3953725  )
       184           H   tau( 184) = (   0.6288114   0.0848544   0.3261180  )
       185           H   tau( 185) = (   0.2311761   0.0608054   0.1223224  )
       186           H   tau( 186) = (   0.7492631   0.0608058   0.1181746  )
       187           H   tau( 187) = (   0.7311768   0.1853674   0.1223221  )
       188           H   tau( 188) = (   0.2492622   0.1853675   0.1181746  )
       189           H   tau( 189) = (   0.7297015   0.1883187   0.3586715  )
       190           H   tau( 190) = (   0.2116146   0.1883183   0.3628192  )
       191           H   tau( 191) = (   0.2297008   0.0637567   0.3586717  )
       192           H   tau( 192) = (   0.7116155   0.0637565   0.3628193  )
       193           H   tau( 193) = (   0.2533838   0.1082629   0.1998542  )
       194           H   tau( 194) = (   0.7270550   0.1082631   0.0406431  )
       195           H   tau( 195) = (   0.7533838   0.2328251   0.1998543  )
       196           H   tau( 196) = (   0.2270545   0.2328253   0.0406426  )
       197           H   tau( 197) = (   0.7074939   0.1408611   0.2811397  )
       198           H   tau( 198) = (   0.2338227   0.1408610   0.4403507  )
       199           H   tau( 199) = (   0.2074939   0.0162990   0.2811395  )
       200           H   tau( 200) = (   0.7338231   0.0162988   0.4403512  )

     number of k points=     4
                       cart. coord. in units 2pi/alat
        k(    1) = (   0.0000000   0.0000000   0.0000000), wk =   0.3333333
        k(    2) = (   0.0000000   0.0000000  -1.0395143), wk =   0.3333333
        k(    3) = (   0.0000000   1.3380213   0.0000000), wk =   0.6666667
        k(    4) = (   0.0000000   1.3380213  -1.0395143), wk =   0.6666667

     Dense  grid:  1672477 G-vectors     FFT dimensions: ( 300,  75, 150)

     Estimated max dynamical RAM per process >    2277.91MB

     Estimated total allocated dynamical RAM >   18223.30MB

     Check: negative/imaginary core charge=   -0.000002    0.000000

     Initial potential from superposition of free atoms

     starting charge  543.99540, renormalised to  544.00000
     Starting wfc are  512 randomized atomic wfcs
     Checking if some PAW data can be deallocated... 

     total cpu time spent up to now is      137.6 secs

     per-process dynamical memory:  1271.3 Mb

     Self-consistent Calculation

     iteration #  1     ecut=   100.00 Ry     beta=0.50
     Davidson diagonalization with overlap
     ethr =  1.00E-02,  avg # of iterations =  4.0

     total cpu time spent up to now is      533.7 secs

     total energy              =   -2399.17292063 Ry
     Harris-Foulkes estimate   =   -2410.18222285 Ry
     estimated scf accuracy    <      20.94179877 Ry

     iteration #  2     ecut=   100.00 Ry     beta=0.50
     Davidson diagonalization with overlap
     ethr =  3.85E-03,  avg # of iterations =  2.2

     total cpu time spent up to now is      727.0 secs

     total energy              =   -2399.57061551 Ry
     Harris-Foulkes estimate   =   -2401.01111243 Ry
     estimated scf accuracy    <       2.77414200 Ry

     iteration #  3     ecut=   100.00 Ry     beta=0.50
     Davidson diagonalization with overlap
     ethr =  5.10E-04,  avg # of iterations =  5.0

     total cpu time spent up to now is     1202.8 secs

     total energy              =   -2402.51670033 Ry
     Harris-Foulkes estimate   =   -2404.16822123 Ry
     estimated scf accuracy    <       5.10751572 Ry

     iteration #  4     ecut=   100.00 Ry     beta=0.50
     Davidson diagonalization with overlap
     ethr =  5.10E-04,  avg # of iterations =  1.0

     total cpu time spent up to now is     1389.0 secs

     total energy              =   -2401.04465610 Ry
     Harris-Foulkes estimate   =   -2402.66070870 Ry
     estimated scf accuracy    <       2.19339653 Ry

     iteration #  5     ecut=   100.00 Ry     beta=0.50
     Davidson diagonalization with overlap
     ethr =  4.03E-04,  avg # of iterations =  5.0

     total cpu time spent up to now is     1825.5 secs

     total energy              =   -2402.46810355 Ry
     Harris-Foulkes estimate   =   -2403.90339358 Ry
     estimated scf accuracy    <       3.94737953 Ry

     iteration #  6     ecut=   100.00 Ry     beta=0.50
     Davidson diagonalization with overlap
     ethr =  4.03E-04,  avg # of iterations =  1.0

     total cpu time spent up to now is     2010.5 secs

     total energy              =   -2401.86488649 Ry
     Harris-Foulkes estimate   =   -2402.59195339 Ry
     estimated scf accuracy    <       1.52302617 Ry

     iteration #  7     ecut=   100.00 Ry     beta=0.50
     Davidson diagonalization with overlap
     ethr =  2.80E-04,  avg # of iterations =  5.8

     total cpu time spent up to now is     2377.8 secs

     total energy              =   -2402.66859530 Ry
     Harris-Foulkes estimate   =   -2402.68629828 Ry
     estimated scf accuracy    <       0.18548131 Ry

     iteration #  8     ecut=   100.00 Ry     beta=0.50
     Davidson diagonalization with overlap
     ethr =  3.41E-05,  avg # of iterations =  2.0

     total cpu time spent up to now is     2571.7 secs

     total energy              =   -2402.60879473 Ry
     Harris-Foulkes estimate   =   -2402.67290941 Ry
     estimated scf accuracy    <       0.15027135 Ry

     iteration #  9     ecut=   100.00 Ry     beta=0.50
     Davidson diagonalization with overlap
     ethr =  2.76E-05,  avg # of iterations =  3.8

     total cpu time spent up to now is     2788.2 secs

     total energy              =   -2402.62009015 Ry
     Harris-Foulkes estimate   =   -2402.62617112 Ry
     estimated scf accuracy    <       0.01617882 Ry

     iteration # 10     ecut=   100.00 Ry     beta=0.50
     Davidson diagonalization with overlap
     ethr =  2.97E-06,  avg # of iterations =  8.5

     total cpu time spent up to now is     3245.7 secs

     total energy              =   -2402.63493426 Ry
     Harris-Foulkes estimate   =   -2402.63461689 Ry
     estimated scf accuracy    <       0.00185662 Ry

     iteration # 11     ecut=   100.00 Ry     beta=0.50
     Davidson diagonalization with overlap
     c_bands:  4 eigenvalues not converged
     ethr =  3.41E-07,  avg # of iterations = 10.8

     total cpu time spent up to now is     3470.3 secs

     total energy              =   -2402.63377565 Ry
     Harris-Foulkes estimate   =   -2402.63498732 Ry
     estimated scf accuracy    <       0.00254509 Ry

     iteration # 12     ecut=   100.00 Ry     beta=0.50
     Davidson diagonalization with overlap
     ethr =  3.41E-07,  avg # of iterations =  6.2

     total cpu time spent up to now is     3677.3 secs

     total energy              =   -2402.63373991 Ry
     Harris-Foulkes estimate   =   -2402.63391562 Ry
     estimated scf accuracy    <       0.00060525 Ry

     iteration # 13     ecut=   100.00 Ry     beta=0.50
     Davidson diagonalization with overlap
     ethr =  1.11E-07,  avg # of iterations =  5.8

     total cpu time spent up to now is     4030.7 secs

     total energy              =   -2402.63403861 Ry
     Harris-Foulkes estimate   =   -2402.63404814 Ry
     estimated scf accuracy    <       0.00003116 Ry

     iteration # 14     ecut=   100.00 Ry     beta=0.50
     Davidson diagonalization with overlap
     ethr =  5.73E-09,  avg # of iterations =  2.5

     total cpu time spent up to now is     4224.4 secs

     total energy              =   -2402.63403098 Ry
     Harris-Foulkes estimate   =   -2402.63404063 Ry
     estimated scf accuracy    <       0.00001564 Ry

     iteration # 15     ecut=   100.00 Ry     beta=0.50
     Davidson diagonalization with overlap
     ethr =  2.88E-09,  avg # of iterations =  4.0

     total cpu time spent up to now is     4655.9 secs

     total energy              =   -2402.63403713 Ry
     Harris-Foulkes estimate   =   -2402.63406204 Ry
     estimated scf accuracy    <       0.00006805 Ry

     iteration # 16     ecut=   100.00 Ry     beta=0.50
     Davidson diagonalization with overlap
     ethr =  2.88E-09,  avg # of iterations =  5.8

     total cpu time spent up to now is     4928.8 secs

     total energy              =   -2402.63403814 Ry
     Harris-Foulkes estimate   =   -2402.63404267 Ry
     estimated scf accuracy    <       0.00000920 Ry

     iteration # 17     ecut=   100.00 Ry     beta=0.50
     Davidson diagonalization with overlap
     ethr =  1.69E-09,  avg # of iterations =  3.0

     total cpu time spent up to now is     5127.5 secs

     total energy              =   -2402.63403865 Ry
     Harris-Foulkes estimate   =   -2402.63403899 Ry
     estimated scf accuracy    <       0.00000178 Ry

     iteration # 18     ecut=   100.00 Ry     beta=0.50
     Davidson diagonalization with overlap
     ethr =  3.27E-10,  avg # of iterations =  4.0

     total cpu time spent up to now is     5519.3 secs

     total energy              =   -2402.63404038 Ry
     Harris-Foulkes estimate   =   -2402.63404066 Ry
     estimated scf accuracy    <       0.00000081 Ry

     iteration # 19     ecut=   100.00 Ry     beta=0.50
     Davidson diagonalization with overlap
     ethr =  1.50E-10,  avg # of iterations =  1.0

     total cpu time spent up to now is     5705.6 secs

     total energy              =   -2402.63404020 Ry
     Harris-Foulkes estimate   =   -2402.63404040 Ry
     estimated scf accuracy    <       0.00000035 Ry

     iteration # 20     ecut=   100.00 Ry     beta=0.50
     Davidson diagonalization with overlap
     ethr =  6.36E-11,  avg # of iterations =  4.0

     total cpu time spent up to now is     6074.7 secs

     total energy              =   -2402.63404045 Ry
     Harris-Foulkes estimate   =   -2402.63404051 Ry
     estimated scf accuracy    <       0.00000026 Ry

     iteration # 21     ecut=   100.00 Ry     beta=0.50
     Davidson diagonalization with overlap
     ethr =  4.75E-11,  avg # of iterations =  1.0

     total cpu time spent up to now is     6260.5 secs

     total energy              =   -2402.63404040 Ry
     Harris-Foulkes estimate   =   -2402.63404045 Ry
     estimated scf accuracy    <       0.00000016 Ry

     iteration # 22     ecut=   100.00 Ry     beta=0.50
     Davidson diagonalization with overlap
     ethr =  2.97E-11,  avg # of iterations =  1.8

     total cpu time spent up to now is     6449.3 secs

     total energy              =   -2402.63404040 Ry
     Harris-Foulkes estimate   =   -2402.63404041 Ry
     estimated scf accuracy    <       0.00000007 Ry

     iteration # 23     ecut=   100.00 Ry     beta=0.50
     Davidson diagonalization with overlap
     ethr =  1.23E-11,  avg # of iterations =  5.0

     total cpu time spent up to now is     6771.8 secs

     End of self-consistent calculation

          k = 0.0000 0.0000 0.0000 (209199 PWs)   bands (ev):

   -21.7945 -21.7944 -21.7930 -21.7929 -21.4418 -21.4415 -21.4409 -21.4409
   -19.4914 -19.4912 -19.4874 -19.4871 -19.1053 -19.1052 -19.1031 -19.1027
   -15.3034 -15.2913 -15.2574 -15.2537 -15.2441 -15.2400 -15.2257 -15.2114
   -13.6794 -13.6431 -13.6184 -13.5942 -13.5810 -13.5600 -13.5553 -13.5195
   -13.2855 -13.2852 -13.2715 -13.2684 -13.1777 -13.1719 -13.1638 -13.1596
   -12.6678 -12.6541 -12.6491 -12.6322 -12.5975 -12.5772 -12.5747 -12.5568
   -11.1139 -11.0966 -11.0721 -11.0578 -11.0472 -11.0057 -10.9759 -10.9420
   -10.4430 -10.4357 -10.4314 -10.4123 -10.3426 -10.3169 -10.3038 -10.2962
    -9.9382  -9.9007  -9.8348  -9.8224  -9.5685  -9.5362  -9.5229  -9.5189
    -8.7091  -8.6797  -8.6572  -8.6463  -8.6145  -8.6023  -8.5501  -8.5494
    -7.9118  -7.8560  -7.8345  -7.8170  -7.7299  -7.7293  -7.6741  -7.6585
    -7.0625  -7.0237  -6.9922  -6.9868  -6.9863  -6.9798  -6.9707  -6.9059
    -6.8232  -6.8060  -6.7949  -6.7876  -6.7129  -6.6506  -6.6278  -6.5660
    -6.5582  -6.4387  -6.4286  -6.4145  -6.1551  -6.1532  -6.0855  -6.0457
    -6.0439  -6.0307  -5.8929  -5.8711  -5.7628  -5.6880  -5.6871  -5.6021
    -5.5739  -5.5227  -5.5043  -5.4939  -5.4923  -5.4446  -5.4442  -5.4254
    -5.2271  -5.1406  -5.1019  -5.0993  -5.0983  -5.0833  -5.0316  -4.9906
    -4.8624  -4.8129  -4.8125  -4.8064  -4.7821  -4.7766  -4.7597  -4.7501
    -4.7122  -4.6875  -4.6673  -4.6362  -4.5967  -4.5735  -4.5628  -4.4983
    -4.3386  -4.3173  -4.2975  -4.2785  -4.2633  -4.2518  -4.2238  -4.2214
    -4.1815  -4.1722  -4.1680  -4.1412  -4.1109  -4.0797  -4.0327  -4.0316
    -3.7044  -3.6916  -3.6843  -3.6707  -3.6666  -3.6404  -3.6303  -3.5732
    -3.4148  -3.4053  -3.3906  -3.3783  -3.0084  -2.9703  -2.9274  -2.9200
    -2.8857  -2.8785  -2.8501  -2.8469  -2.7469  -2.7314  -2.6841  -2.6666
    -2.5720  -2.5292  -2.4897  -2.4419  -2.4418  -2.4285  -2.3708  -2.3431
    -2.3419  -2.3401  -2.3346  -2.3278  -2.3122  -2.2779  -2.2657  -2.2159
    -2.1774  -2.1368  -2.1239  -2.0973  -2.0645  -2.0632  -2.0472  -2.0463
    -1.8796  -1.8692  -1.8557  -1.8474  -1.6545  -1.6224  -1.6179  -1.5830
    -1.5761  -1.5576  -1.5547  -1.5410  -1.5237  -1.5207  -1.5075  -1.4918
    -1.4712  -1.4683  -1.4187  -1.4036  -1.3947  -1.3945  -1.3472  -1.3460
    -1.2765  -1.2758  -1.1880  -1.1818  -1.1702  -1.1642  -1.1094  -1.1055
    -0.7479  -0.7405  -0.7383  -0.7096  -0.4984  -0.4889  -0.4849  -0.4590
     0.3070   0.3190   0.3481   0.3534   0.3711   0.3783   0.3953   0.3979
     0.7350   0.7467   0.7701   0.7865   0.8820   0.8891   0.9490   0.9626
     3.9305   3.9450   4.1529   4.1553   4.2798   4.3018   4.3712   4.3857
     4.7663   4.7764   4.8400   4.8454   4.8481   4.8504   4.8906   4.8981
     5.3089   5.3457   5.3809   5.4454   5.4533   5.4615   5.4983   5.5586
     5.6192   5.6831   5.8772   6.3397   6.4855   6.4988   6.6401   6.7760
     6.7995   6.8140   6.9777   7.0108   7.0243   7.0989   7.1173   7.1626
     7.1653   7.2629   7.4828   7.4864   7.5009   7.5566   7.5715   7.6307
     7.6549   7.7281   7.8946   7.9015   7.9390   7.9953

          k = 0.0000 0.0000-1.0395 (209100 PWs)   bands (ev):

   -21.7942 -21.7940 -21.7934 -21.7933 -21.4418 -21.4415 -21.4410 -21.4409
   -19.4903 -19.4901 -19.4886 -19.4882 -19.1050 -19.1050 -19.1034 -19.1030
   -15.2795 -15.2795 -15.2673 -15.2673 -15.2408 -15.2408 -15.2276 -15.2276
   -13.6547 -13.6547 -13.6239 -13.6238 -13.5642 -13.5642 -13.5302 -13.5301
   -13.2335 -13.2334 -13.2302 -13.2300 -13.2168 -13.2167 -13.2161 -13.2160
   -12.6611 -12.6610 -12.6403 -12.6403 -12.5862 -12.5861 -12.5667 -12.5666
   -11.1030 -11.1029 -11.0732 -11.0732 -11.0011 -11.0011 -10.9748 -10.9747
   -10.4344 -10.4344 -10.4267 -10.4267 -10.3152 -10.3152 -10.3129 -10.3128
    -9.8905  -9.8905  -9.8637  -9.8637  -9.5527  -9.5526  -9.5189  -9.5189
    -8.6999  -8.6999  -8.6551  -8.6551  -8.6115  -8.6115  -8.5518  -8.5518
    -7.8134  -7.8134  -7.7926  -7.7925  -7.7434  -7.7434  -7.7377  -7.7376
    -7.0185  -7.0185  -7.0034  -7.0034  -6.9659  -6.9659  -6.9199  -6.9198
    -6.7950  -6.7950  -6.7530  -6.7530  -6.7442  -6.7442  -6.6356  -6.6355
    -6.5321  -6.5321  -6.4325  -6.4325  -6.1175  -6.1175  -6.0834  -6.0833
    -5.9754  -5.9754  -5.9630  -5.9630  -5.7036  -5.7036  -5.6459  -5.6459
    -5.5295  -5.5295  -5.5217  -5.5216  -5.4595  -5.4594  -5.4463  -5.4462
    -5.2088  -5.2087  -5.1336  -5.1335  -5.0387  -5.0386  -4.9985  -4.9983
    -4.8250  -4.8250  -4.8239  -4.8239  -4.7442  -4.7442  -4.7108  -4.7108
    -4.6963  -4.6963  -4.6884  -4.6883  -4.5719  -4.5718  -4.5526  -4.5526
    -4.3419  -4.3419  -4.2956  -4.2956  -4.2367  -4.2367  -4.2352  -4.2352
    -4.1831  -4.1831  -4.1444  -4.1444  -4.0797  -4.0797  -4.0610  -4.0609
    -3.7038  -3.7037  -3.6693  -3.6692  -3.6460  -3.6459  -3.5960  -3.5960
    -3.4095  -3.4095  -3.3995  -3.3994  -2.9908  -2.9907  -2.9350  -2.9349
    -2.8845  -2.8845  -2.8504  -2.8504  -2.6993  -2.6993  -2.6988  -2.6987
    -2.5508  -2.5507  -2.5398  -2.5398  -2.3827  -2.3826  -2.3737  -2.3735
    -2.3705  -2.3704  -2.3284  -2.3283  -2.2266  -2.2265  -2.2213  -2.2210
    -2.1665  -2.1664  -2.1663  -2.1662  -2.0356  -2.0355  -2.0114  -2.0114
    -1.8658  -1.8657  -1.8621  -1.8620  -1.6139  -1.6138  -1.5806  -1.5806
    -1.5460  -1.5457  -1.5433  -1.5432  -1.5336  -1.5335  -1.4879  -1.4877
    -1.4704  -1.4703  -1.4580  -1.4579  -1.4000  -1.4000  -1.3207  -1.3205
    -1.3039  -1.3038  -1.2201  -1.2199  -1.1318  -1.1318  -1.1297  -1.1296
    -0.7469  -0.7469  -0.7259  -0.7259  -0.4937  -0.4936  -0.4709  -0.4709
     0.3211   0.3212   0.3313   0.3313   0.3769   0.3769   0.3828   0.3829
     0.7614   0.7615   0.7706   0.7707   0.9151   0.9152   0.9211   0.9212
     4.0281   4.0282   4.0305   4.0306   4.3496   4.3498   4.3598   4.3600
     4.8042   4.8045   4.8060   4.8062   4.8753   4.8755   4.8807   4.8809
     5.3827   5.3828   5.3928   5.3928   5.5206   5.5206   5.5261   5.5261
     5.7724   5.7724   5.9220   5.9220   6.1761   6.1761   6.5667   6.5667
     6.9645   6.9646   6.9754   6.9755   7.0453   7.0453   7.2512   7.2513
     7.4119   7.4120   7.5040   7.5041   7.6365   7.6365   7.6888   7.6888
     7.8888   7.8888   7.8973   7.8974   8.0237   8.0240

          k = 0.0000 1.3380 0.0000 (209045 PWs)   bands (ev):

   -21.7904 -21.7903 -21.7890 -21.7890 -21.4455 -21.4453 -21.4446 -21.4446
   -19.4942 -19.4940 -19.4905 -19.4901 -19.1029 -19.1028 -19.1004 -19.1000
   -15.2803 -15.2715 -15.2599 -15.2466 -15.2320 -15.2201 -15.2165 -15.2086
   -13.6442 -13.6388 -13.6090 -13.6019 -13.5696 -13.5642 -13.5581 -13.5472
   -13.2924 -13.2882 -13.2823 -13.2805 -13.1790 -13.1761 -13.1723 -13.1708
   -12.6950 -12.6879 -12.6852 -12.6659 -12.6166 -12.6017 -12.5997 -12.5933
   -11.1205 -11.1066 -11.1013 -11.0751 -11.0421 -11.0109 -10.9969 -10.9872
   -10.4392 -10.4316 -10.3980 -10.3929 -10.3097 -10.3005 -10.2624 -10.2543
    -9.9106  -9.8826  -9.8677  -9.8194  -9.5984  -9.5911  -9.5321  -9.5052
    -8.6962  -8.6827  -8.6657  -8.6535  -8.5805  -8.5792  -8.5609  -8.5569
    -7.8270  -7.8259  -7.8253  -7.8150  -7.7744  -7.7500  -7.7074  -7.7007
    -7.0206  -7.0134  -6.9953  -6.9605  -6.9361  -6.9036  -6.8848  -6.8817
    -6.8729  -6.8323  -6.8187  -6.7918  -6.7276  -6.6641  -6.6444  -6.5395
    -6.5245  -6.4837  -6.4572  -6.3905  -6.1860  -6.1636  -6.0563  -6.0419
    -5.9391  -5.9366  -5.9341  -5.9114  -5.6951  -5.6528  -5.6499  -5.6275
    -5.5896  -5.5847  -5.5554  -5.5435  -5.5225  -5.4599  -5.4402  -5.4293
    -5.2042  -5.1450  -5.1225  -5.1088  -5.0478  -5.0403  -5.0211  -5.0006
    -4.9116  -4.8716  -4.8381  -4.8290  -4.8128  -4.7682  -4.7232  -4.7032
    -4.6785  -4.6341  -4.6158  -4.5913  -4.5360  -4.5030  -4.4761  -4.4377
    -4.3700  -4.3614  -4.3280  -4.2917  -4.2503  -4.2346  -4.2190  -4.2035
    -4.1723  -4.1451  -4.1425  -4.1364  -4.0886  -4.0838  -4.0441  -4.0417
    -3.6698  -3.6524  -3.6491  -3.6389  -3.6221  -3.6025  -3.6013  -3.5866
    -3.4787  -3.4714  -3.3991  -3.3901  -2.9970  -2.9657  -2.9602  -2.9493
    -2.8183  -2.8176  -2.8031  -2.7954  -2.7512  -2.7156  -2.6535  -2.6338
    -2.5481  -2.5438  -2.5414  -2.4272  -2.4195  -2.4001  -2.3958  -2.3943
    -2.3699  -2.3472  -2.3421  -2.2657  -2.2654  -2.2605  -2.2450  -2.2434
    -2.1648  -2.1618  -2.1035  -2.0864  -2.0480  -2.0478  -2.0140  -2.0133
    -1.9078  -1.8963  -1.8567  -1.8540  -1.6889  -1.6524  -1.6371  -1.6360
    -1.5960  -1.5835  -1.5777  -1.5352  -1.5324  -1.5059  -1.4684  -1.4643
    -1.4570  -1.4526  -1.4086  -1.3924  -1.3814  -1.3711  -1.3127  -1.3078
    -1.2803  -1.2436  -1.2219  -1.2156  -1.2019  -1.1847  -1.1659  -1.1284
    -0.7600  -0.7560  -0.7538  -0.7459  -0.4834  -0.4825  -0.4658  -0.4547
     0.2622   0.2659   0.2883   0.2956   0.2959   0.3013   0.3141   0.3200
     0.6933   0.6978   0.7204   0.7228   0.8497   0.8526   0.8896   0.8954
     3.9462   3.9675   4.0540   4.0654   4.3074   4.3246   4.3535   4.3551
     4.4548   4.4589   4.5525   4.5609   4.9890   4.9934   5.0190   5.0209
     5.4289   5.4372   5.4659   5.4825   5.5182   5.5561   5.5717   5.6079
     5.9062   6.0895   6.2393   6.5088   6.5409   6.5485   6.6529   6.6915
     6.7559   6.8892   7.0203   7.0278   7.1341   7.1832   7.1888   7.1963
     7.2637   7.2864   7.2939   7.3035   7.4247   7.4379   7.5156   7.5385
     7.6437   7.6716   7.6768   7.7130   7.7966   7.8748

          k = 0.0000 1.3380-1.0395 (209018 PWs)   bands (ev):

   -21.7901 -21.7899 -21.7893 -21.7892 -21.4455 -21.4452 -21.4447 -21.4446
   -19.4932 -19.4930 -19.4916 -19.4911 -19.1025 -19.1024 -19.1009 -19.1004
   -15.2576 -15.2575 -15.2538 -15.2538 -15.2311 -15.2311 -15.2271 -15.2271
   -13.6257 -13.6257 -13.6241 -13.6240 -13.5576 -13.5575 -13.5574 -13.5573
   -13.2407 -13.2407 -13.2406 -13.2406 -13.2218 -13.2217 -13.2211 -13.2210
   -12.6898 -12.6897 -12.6746 -12.6745 -12.6102 -12.6101 -12.5983 -12.5982
   -11.1090 -11.1089 -11.0919 -11.0918 -11.0146 -11.0145 -10.9968 -10.9967
   -10.4366 -10.4365 -10.3987 -10.3987 -10.3041 -10.3040 -10.2604 -10.2603
    -9.8991  -9.8991  -9.8446  -9.8446  -9.5944  -9.5943  -9.5181  -9.5181
    -8.6799  -8.6799  -8.6669  -8.6669  -8.5685  -8.5684  -8.5679  -8.5678
    -7.8100  -7.8099  -7.8031  -7.8030  -7.7615  -7.7614  -7.7420  -7.7419
    -7.0119  -7.0118  -6.9761  -6.9761  -6.9092  -6.9092  -6.8778  -6.8778
    -6.8389  -6.8389  -6.8114  -6.8114  -6.6574  -6.6573  -6.6226  -6.6226
    -6.5166  -6.5165  -6.4672  -6.4671  -6.1129  -6.1128  -6.0942  -6.0942
    -5.9534  -5.9534  -5.9448  -5.9448  -5.6734  -5.6733  -5.6312  -5.6312
    -5.5776  -5.5775  -5.5576  -5.5575  -5.4965  -5.4963  -5.4315  -5.4314
    -5.1371  -5.1370  -5.1277  -5.1276  -5.0622  -5.0621  -5.0143  -5.0142
    -4.8795  -4.8795  -4.8389  -4.8389  -4.7624  -4.7623  -4.6989  -4.6988
    -4.6244  -4.6244  -4.6221  -4.6220  -4.5312  -4.5311  -4.4685  -4.4684
    -4.3348  -4.3348  -4.3019  -4.3018  -4.2607  -4.2607  -4.2449  -4.2449
    -4.1657  -4.1657  -4.1514  -4.1514  -4.0603  -4.0602  -4.0488  -4.0487
    -3.6623  -3.6622  -3.6525  -3.6524  -3.6122  -3.6121  -3.5878  -3.5877
    -3.4318  -3.4317  -3.4291  -3.4290  -2.9821  -2.9820  -2.9281  -2.9280
    -2.8498  -2.8497  -2.8063  -2.8062  -2.6915  -2.6915  -2.6776  -2.6775
    -2.5481  -2.5481  -2.5303  -2.5303  -2.4346  -2.4345  -2.4069  -2.4068
    -2.3477  -2.3476  -2.3139  -2.3137  -2.2597  -2.2594  -2.2504  -2.2502
    -2.0971  -2.0970  -2.0891  -2.0890  -2.0191  -2.0190  -2.0085  -2.0085
    -1.8820  -1.8820  -1.8777  -1.8776  -1.6332  -1.6332  -1.6057  -1.6056
    -1.6036  -1.6034  -1.5819  -1.5818  -1.5285  -1.5285  -1.4890  -1.4889
    -1.4336  -1.4335  -1.4306  -1.4304  -1.3232  -1.3231  -1.3105  -1.3105
    -1.2612  -1.2610  -1.2506  -1.2505  -1.1964  -1.1963  -1.1675  -1.1674
    -0.7583  -0.7583  -0.7493  -0.7493  -0.4758  -0.4758  -0.4702  -0.4702
     0.2669   0.2670   0.2685   0.2686   0.3083   0.3084   0.3097   0.3098
     0.7026   0.7027   0.7035   0.7036   0.8831   0.8832   0.8850   0.8851
     4.0172   4.0174   4.0230   4.0231   4.3055   4.3057   4.3176   4.3177
     4.5173   4.5175   4.5217   4.5218   5.0055   5.0057   5.0087   5.0088
     5.4667   5.4668   5.4798   5.4798   5.5331   5.5332   5.5593   5.5594
     6.0933   6.0933   6.2131   6.2132   6.4509   6.4510   6.7389   6.7389
     6.8361   6.8361   6.8523   6.8523   7.1365   7.1366   7.2327   7.2327
     7.3597   7.3598   7.4036   7.4036   7.5138   7.5138   7.5726   7.5727
     7.7458   7.7460   7.7924   7.7925   7.8670   7.8671

     highest occupied, lowest unoccupied level (ev):     0.9626    3.9305

!    total energy              =   -2402.63404043 Ry
     Harris-Foulkes estimate   =   -2402.63404043 Ry
     estimated scf accuracy    <          3.4E-09 Ry

     total all-electron energy =     -9227.424828 Ry

     The total energy is the sum of the following terms:

     one-electron contribution =   -1309.35421978 Ry
     hartree contribution      =     855.58391045 Ry
     xc contribution           =    -550.96823229 Ry
     ewald contribution        =    -659.29871554 Ry
     Dispersion Correction     =      -0.93471882 Ry
     one-center paw contrib.   =    -737.66206445 Ry

     convergence has been achieved in  23 iterations

     Forces acting on atoms (cartesian axes, Ry/au):

     atom    1 type  4   force =     0.00050195    0.00061464    0.00050394
     atom    2 type  4   force =    -0.00091132    0.00070321   -0.00084597
     atom    3 type  4   force =     0.00080467    0.00069143    0.00076584
     atom    4 type  4   force =    -0.00048235    0.00061555   -0.00048798
     atom    5 type  4   force =    -0.00050195   -0.00061464   -0.00050394
     atom    6 type  4   force =     0.00091132   -0.00070321    0.00084597
     atom    7 type  4   force =    -0.00080467   -0.00069143   -0.00076584
     atom    8 type  4   force =     0.00048235   -0.00061555    0.00048798
     atom    9 type  4   force =    -0.00032991    0.00077249   -0.00057361
     atom   10 type  4   force =     0.00022543    0.00087154    0.00057041
     atom   11 type  4   force =    -0.00026109    0.00087490   -0.00059012
     atom   12 type  4   force =     0.00033635    0.00082178    0.00062826
     atom   13 type  4   force =     0.00032991   -0.00077249    0.00057361
     atom   14 type  4   force =    -0.00022543   -0.00087154   -0.00057041
     atom   15 type  4   force =     0.00026109   -0.00087490    0.00059012
     atom   16 type  4   force =    -0.00033635   -0.00082178   -0.00062826
     atom   17 type  1   force =    -0.00112849   -0.00128056    0.00050429
     atom   18 type  1   force =     0.00162866   -0.00144639   -0.00015882
     atom   19 type  1   force =    -0.00147624   -0.00146695    0.00025657
     atom   20 type  1   force =     0.00110095   -0.00134669   -0.00058348
     atom   21 type  1   force =     0.00112849    0.00128056   -0.00050429
     atom   22 type  1   force =    -0.00162866    0.00144639    0.00015882
     atom   23 type  1   force =     0.00147624    0.00146695   -0.00025657
     atom   24 type  1   force =    -0.00110095    0.00134669    0.00058348
     atom   25 type  1   force =     0.00181280    0.00307314    0.00043455
     atom   26 type  1   force =    -0.00186461    0.00310448   -0.00043178
     atom   27 type  1   force =     0.00183126    0.00309328    0.00041963
     atom   28 type  1   force =    -0.00184080    0.00307381   -0.00040419
     atom   29 type  1   force =    -0.00181280   -0.00307314   -0.00043455
     atom   30 type  1   force =     0.00186461   -0.00310448    0.00043178
     atom   31 type  1   force =    -0.00183126   -0.00309328   -0.00041963
     atom   32 type  1   force =     0.00184080   -0.00307381    0.00040419
     atom   33 type  1   force =     0.00024093    0.00165744   -0.00184477
     atom   34 type  1   force =    -0.00026933    0.00166866    0.00180138
     atom   35 type  1   force =     0.00025953    0.00163214   -0.00183412
     atom   36 type  1   force =    -0.00025566    0.00165737    0.00180000
     atom   37 type  1   force =    -0.00024093   -0.00165744    0.00184477
     atom   38 type  1   force =     0.00026933   -0.00166866   -0.00180138
     atom   39 type  1   force =    -0.00025953   -0.00163214    0.00183412
     atom   40 type  1   force =     0.00025566   -0.00165737   -0.00180000
     atom   41 type  1   force =     0.00445685   -0.00231632   -0.00217117
     atom   42 type  1   force =    -0.00437349   -0.00233247    0.00222645
     atom   43 type  1   force =     0.00443594   -0.00225468   -0.00224575
     atom   44 type  1   force =    -0.00442243   -0.00230364    0.00223620
     atom   45 type  1   force =    -0.00445685    0.00231632    0.00217117
     atom   46 type  1   force =     0.00437349    0.00233247   -0.00222645
     atom   47 type  1   force =    -0.00443594    0.00225468    0.00224575
     atom   48 type  1   force =     0.00442243    0.00230364   -0.00223620
     atom   49 type  1   force =    -0.00471967    0.00448055   -0.00148376
     atom   50 type  1   force =     0.00421930    0.00464573    0.00121140
     atom   51 type  1   force =    -0.00423554    0.00445303   -0.00112343
     atom   52 type  1   force =     0.00444703    0.00452466    0.00131491
     atom   53 type  1   force =     0.00471967   -0.00448055    0.00148376
     atom   54 type  1   force =    -0.00421930   -0.00464573   -0.00121140
     atom   55 type  1   force =     0.00423554   -0.00445303    0.00112343
     atom   56 type  1   force =    -0.00444703   -0.00452466   -0.00131491
     atom   57 type  1   force =     0.00215842    0.00304399    0.00308652
     atom   58 type  1   force =    -0.00172566    0.00300628   -0.00279288
     atom   59 type  1   force =     0.00164821    0.00323588    0.00261726
     atom   60 type  1   force =    -0.00190042    0.00309949   -0.00289396
     atom   61 type  1   force =    -0.00215842   -0.00304399   -0.00308652
     atom   62 type  1   force =     0.00172566   -0.00300628    0.00279288
     atom   63 type  1   force =    -0.00164821   -0.00323588   -0.00261726
     atom   64 type  1   force =     0.00190042   -0.00309949    0.00289396
     atom   65 type  1   force =     0.00117007   -0.00396679   -0.00698752
     atom   66 type  1   force =    -0.00123107   -0.00395470    0.00701277
     atom   67 type  1   force =     0.00131545   -0.00401131   -0.00694982
     atom   68 type  1   force =    -0.00125971   -0.00397016    0.00700269
     atom   69 type  1   force =    -0.00117007    0.00396679    0.00698752
     atom   70 type  1   force =     0.00123107    0.00395470   -0.00701277
     atom   71 type  1   force =    -0.00131545    0.00401131    0.00694982
     atom   72 type  1   force =     0.00125971    0.00397016   -0.00700269
     atom   73 type  1   force =    -0.00120193   -0.00019813    0.00404366
     atom   74 type  1   force =     0.00149910   -0.00009415   -0.00408342
     atom   75 type  1   force =    -0.00167741   -0.00006538    0.00404056
     atom   76 type  1   force =     0.00173072   -0.00003231   -0.00407369
     atom   77 type  1   force =     0.00120193    0.00019813   -0.00404366
     atom   78 type  1   force =    -0.00149910    0.00009415    0.00408342
     atom   79 type  1   force =     0.00167741    0.00006538   -0.00404056
     atom   80 type  1   force =    -0.00173072    0.00003231    0.00407369
     atom   81 type  1   force =    -0.00311752   -0.00161057    0.00154274
     atom   82 type  1   force =     0.00283639   -0.00176566   -0.00142787
     atom   83 type  1   force =    -0.00271977   -0.00180428    0.00143641
     atom   84 type  1   force =     0.00261928   -0.00185495   -0.00140841
     atom   85 type  1   force =     0.00311752    0.00161057   -0.00154274
     atom   86 type  1   force =    -0.00283639    0.00176566    0.00142787
     atom   87 type  1   force =     0.00271977    0.00180428   -0.00143641
     atom   88 type  1   force =    -0.00261928    0.00185495    0.00140841
     atom   89 type  1   force =     0.00076547   -0.00173081    0.00239727
     atom   90 type  1   force =    -0.00069976   -0.00163075   -0.00254558
     atom   91 type  1   force =     0.00074985   -0.00175267    0.00237244
     atom   92 type  1   force =    -0.00066597   -0.00173859   -0.00238361
     atom   93 type  1   force =    -0.00076547    0.00173081   -0.00239727
     atom   94 type  1   force =     0.00069976    0.00163075    0.00254558
     atom   95 type  1   force =    -0.00074985    0.00175267   -0.00237244
     atom   96 type  1   force =     0.00066597    0.00173859    0.00238361
     atom   97 type  1   force =    -0.00369652   -0.00249517    0.00226619
     atom   98 type  1   force =     0.00367693   -0.00256454   -0.00216037
     atom   99 type  1   force =    -0.00372392   -0.00250556    0.00230009
     atom  100 type  1   force =     0.00365537   -0.00249726   -0.00230376
     atom  101 type  1   force =     0.00369652    0.00249517   -0.00226619
     atom  102 type  1   force =    -0.00367693    0.00256454    0.00216037
     atom  103 type  1   force =     0.00372392    0.00250556   -0.00230009
     atom  104 type  1   force =    -0.00365537    0.00249726    0.00230376
     atom  105 type  3   force =     0.00077482    0.00070739   -0.00052927
     atom  106 type  3   force =    -0.00069444    0.00064112    0.00054493
     atom  107 type  3   force =     0.00071471    0.00065573   -0.00054132
     atom  108 type  3   force =    -0.00077225    0.00070227    0.00052665
     atom  109 type  3   force =    -0.00077482   -0.00070739    0.00052927
     atom  110 type  3   force =     0.00069444   -0.00064112   -0.00054493
     atom  111 type  3   force =    -0.00071471   -0.00065573    0.00054132
     atom  112 type  3   force =     0.00077225   -0.00070227   -0.00052665
     atom  113 type  3   force =     0.00098318   -0.00137731   -0.00018681
     atom  114 type  3   force =    -0.00097774   -0.00137312    0.00018048
     atom  115 type  3   force =     0.00097682   -0.00136137   -0.00017363
     atom  116 type  3   force =    -0.00097698   -0.00137481    0.00017721
     atom  117 type  3   force =    -0.00098318    0.00137731    0.00018681
     atom  118 type  3   force =     0.00097774    0.00137312   -0.00018048
     atom  119 type  3   force =    -0.00097682    0.00136137    0.00017363
     atom  120 type  3   force =     0.00097698    0.00137481   -0.00017721
     atom  121 type  3   force =     0.00277027   -0.00220824   -0.00244479
     atom  122 type  3   force =    -0.00276985   -0.00221764    0.00245118
     atom  123 type  3   force =     0.00276823   -0.00220711   -0.00244391
     atom  124 type  3   force =    -0.00276633   -0.00221542    0.00245047
     atom  125 type  3   force =    -0.00277027    0.00220824    0.00244479
     atom  126 type  3   force =     0.00276985    0.00221764   -0.00245118
     atom  127 type  3   force =    -0.00276823    0.00220711    0.00244391
     atom  128 type  3   force =     0.00276633    0.00221542   -0.00245047
     atom  129 type  3   force =     0.00007442    0.00046682   -0.00040388
     atom  130 type  3   force =    -0.00007262    0.00046588    0.00042256
     atom  131 type  3   force =     0.00007131    0.00046627   -0.00040481
     atom  132 type  3   force =    -0.00007136    0.00046395    0.00042191
     atom  133 type  3   force =    -0.00007442   -0.00046682    0.00040388
     atom  134 type  3   force =     0.00007262   -0.00046588   -0.00042256
     atom  135 type  3   force =    -0.00007131   -0.00046627    0.00040481
     atom  136 type  3   force =     0.00007136   -0.00046395   -0.00042191
     atom  137 type  3   force =    -0.00088307   -0.00028339   -0.00055595
     atom  138 type  3   force =     0.00087429   -0.00026197    0.00053617
     atom  139 type  3   force =    -0.00088574   -0.00027497   -0.00055540
     atom  140 type  3   force =     0.00087985   -0.00027603    0.00054677
     atom  141 type  3   force =     0.00088307    0.00028339    0.00055595
     atom  142 type  3   force =    -0.00087429    0.00026197   -0.00053617
     atom  143 type  3   force =     0.00088574    0.00027497    0.00055540
     atom  144 type  3   force =    -0.00087985    0.00027603   -0.00054677
     atom  145 type  3   force =     0.00044889    0.00097377    0.00216031
     atom  146 type  3   force =    -0.00034875    0.00085564   -0.00216095
     atom  147 type  3   force =     0.00040202    0.00093606    0.00214778
     atom  148 type  3   force =    -0.00039898    0.00091876   -0.00215781
     atom  149 type  3   force =    -0.00044889   -0.00097377   -0.00216031
     atom  150 type  3   force =     0.00034875   -0.00085564    0.00216095
     atom  151 type  3   force =    -0.00040202   -0.00093606   -0.00214778
     atom  152 type  3   force =     0.00039898   -0.00091876    0.00215781
     atom  153 type  3   force =    -0.00182001    0.00204493    0.00096918
     atom  154 type  3   force =     0.00179401    0.00200316   -0.00102102
     atom  155 type  3   force =    -0.00176566    0.00189416    0.00111508
     atom  156 type  3   force =     0.00179731    0.00198986   -0.00102388
     atom  157 type  3   force =     0.00182001   -0.00204493   -0.00096918
     atom  158 type  3   force =    -0.00179401   -0.00200316    0.00102102
     atom  159 type  3   force =     0.00176566   -0.00189416   -0.00111508
     atom  160 type  3   force =    -0.00179731   -0.00198986    0.00102388
     atom  161 type  3   force =     0.00020112   -0.00022133   -0.00021373
     atom  162 type  3   force =    -0.00020756   -0.00021842    0.00021727
     atom  163 type  3   force =     0.00016732   -0.00020328   -0.00023652
     atom  164 type  3   force =    -0.00019360   -0.00022061    0.00022815
     atom  165 type  3   force =    -0.00020112    0.00022133    0.00021373
     atom  166 type  3   force =     0.00020756    0.00021842   -0.00021727
     atom  167 type  3   force =    -0.00016732    0.00020328    0.00023652
     atom  168 type  3   force =     0.00019360    0.00022061   -0.00022815
     atom  169 type  3   force =     0.00000207   -0.00067001   -0.00024879
     atom  170 type  3   force =    -0.00004238   -0.00066198    0.00021841
     atom  171 type  3   force =     0.00008800   -0.00064424   -0.00018029
     atom  172 type  3   force =    -0.00008507   -0.00064482    0.00018450
     atom  173 type  3   force =    -0.00000207    0.00067001    0.00024879
     atom  174 type  3   force =     0.00004238    0.00066198   -0.00021841
     atom  175 type  3   force =    -0.00008800    0.00064424    0.00018029
     atom  176 type  3   force =     0.00008507    0.00064482   -0.00018450
     atom  177 type  3   force =     0.00000381    0.00009857   -0.00031495
     atom  178 type  3   force =     0.00001341    0.00014722    0.00026077
     atom  179 type  3   force =    -0.00001430    0.00015114   -0.00025213
     atom  180 type  3   force =     0.00001812    0.00017065    0.00023353
     atom  181 type  3   force =    -0.00000381   -0.00009857    0.00031495
     atom  182 type  3   force =    -0.00001341   -0.00014722   -0.00026077
     atom  183 type  3   force =     0.00001430   -0.00015114    0.00025213
     atom  184 type  3   force =    -0.00001812   -0.00017065   -0.00023353
     atom  185 type  3   force =    -0.00040040    0.00059725    0.00041121
     atom  186 type  3   force =     0.00036305    0.00057359   -0.00037652
     atom  187 type  3   force =    -0.00042764    0.00060567    0.00041580
     atom  188 type  3   force =     0.00040008    0.00059289   -0.00039830
     atom  189 type  3   force =     0.00040040   -0.00059725   -0.00041121
     atom  190 type  3   force =    -0.00036305   -0.00057359    0.00037652
     atom  191 type  3   force =     0.00042764   -0.00060567   -0.00041580
     atom  192 type  3   force =    -0.00040008   -0.00059289    0.00039830
     atom  193 type  3   force =     0.00007520    0.00028991    0.00094540
     atom  194 type  3   force =    -0.00006795    0.00028889   -0.00094859
     atom  195 type  3   force =     0.00009154    0.00028685    0.00094649
     atom  196 type  3   force =    -0.00005150    0.00028372   -0.00094240
     atom  197 type  3   force =    -0.00007520   -0.00028991   -0.00094540
     atom  198 type  3   force =     0.00006795   -0.00028889    0.00094859
     atom  199 type  3   force =    -0.00009154   -0.00028685   -0.00094649
     atom  200 type  3   force =     0.00005150   -0.00028372    0.00094240

     Total force =     0.048283     Total SCF correction =     0.000160


     Computing stress (Cartesian axis) and pressure

          total   stress  (Ry/bohr**3)                   (kbar)     P=   -7.86
  -0.00005693   0.00000007   0.00002284         -8.37      0.01      3.36
   0.00000007  -0.00003290   0.00000002          0.01     -4.84      0.00
   0.00002284   0.00000002  -0.00007048          3.36      0.00    -10.37


     Writing output data file scf.save
 
     init_run     :    133.68s CPU    136.94s WALL (       1 calls)
     electrons    :   6507.48s CPU   6634.38s WALL (       1 calls)
     forces       :     70.25s CPU     70.84s WALL (       1 calls)
     stress       :    325.48s CPU    326.12s WALL (       1 calls)

     Called by init_run:
     wfcinit      :    112.64s CPU    115.61s WALL (       1 calls)
     potinit      :      7.23s CPU      7.26s WALL (       1 calls)

     Called by electrons:
     c_bands      :   5902.37s CPU   6007.41s WALL (      23 calls)
     sum_band     :    558.28s CPU    575.12s WALL (      23 calls)
     v_of_rho     :      6.10s CPU      6.52s WALL (      24 calls)
     newd         :     20.68s CPU     25.37s WALL (      24 calls)
     PAW_pot      :     18.43s CPU     18.44s WALL (      24 calls)
     mix_rho      :      1.76s CPU      1.82s WALL (      23 calls)

     Called by c_bands:
     init_us_2    :     17.48s CPU     17.57s WALL (     196 calls)
     cegterg      :   5812.21s CPU   5917.13s WALL (      92 calls)

     Called by sum_band:
     sum_band:bec :      0.20s CPU      0.20s WALL (      92 calls)
     addusdens    :     20.78s CPU     25.41s WALL (      23 calls)

     Called by *egterg:
     h_psi        :   2861.74s CPU   2937.43s WALL (     468 calls)
     s_psi        :    759.69s CPU    759.68s WALL (     468 calls)
     g_psi        :      9.10s CPU      9.10s WALL (     372 calls)
     cdiaghg      :    229.51s CPU    229.52s WALL (     464 calls)

     Called by h_psi:
     h_psi:pot    :   2849.53s CPU   2925.06s WALL (     468 calls)
     h_psi:calbec :    810.84s CPU    811.67s WALL (     468 calls)
     vloc_psi     :   1279.53s CPU   1354.23s WALL (     468 calls)
     add_vuspsi   :    759.16s CPU    759.15s WALL (     468 calls)

     General routines
     calbec       :   1165.90s CPU   1167.12s WALL (     580 calls)
     fft          :     17.49s CPU     18.24s WALL (     336 calls)
     fftw         :   1424.12s CPU   1510.37s WALL (  204350 calls)
 
     Parallel routines
     fft_scatter  :    616.85s CPU    703.44s WALL (  204686 calls)
 
     PWSCF        :     1h57m CPU        2h 0m WALL

 
   This run was terminated on:  12:15:50  22Dec2017            

=------------------------------------------------------------------------------=
   JOB DONE.
=------------------------------------------------------------------------------=
