
     Program PWSCF v.6.1 (svn rev. 13369) starts on  3Nov2017 at 21: 5:57 

     This program is part of the open-source Quantum ESPRESSO suite
     for quantum simulation of materials; please cite
         "P. Giannozzi et al., J. Phys.:Condens. Matter 21 395502 (2009);
          URL http://www.quantum-espresso.org", 
     in publications or presentations arising from this work. More details at
     http://www.quantum-espresso.org/quote

     Parallel version (MPI), running on     8 processors
     R & G space division:  proc/nbgrp/npool/nimage =       8
     Waiting for input...
     Reading input from standard input

     Current dimensions of program PWSCF are:
     Max number of different atomic species (ntypx) = 10
     Max number of k-points (npk) =  40000
     Max angular momentum in pseudopotentials (lmaxx) =  3
               file C.pbe-n-kjpaw_psl.0.1.UPF: wavefunction(s)  2P renormalized
               file N.pbe-n-kjpaw_psl.0.1.UPF: wavefunction(s)  2P renormalized
               file H.pbe-kjpaw_psl.0.1.UPF: wavefunction(s)  1S renormalized
               file O.pbe-n-kjpaw_psl.0.1.UPF: wavefunction(s)  2P renormalized

     -------------------------------------
     Parameters for Dispersion Correction:
     -------------------------------------
       atom      VdW radius       C_6     

        C          2.744         60.710
        N          2.640         42.670
        H          1.892          4.857
        O          2.536         24.284

     Subspace diagonalization in iterative solution of the eigenvalue problem:
     a serial algorithm will be used

 
     Parallelization info
     --------------------
     sticks:   dense  smooth     PW     G-vecs:    dense   smooth      PW
     Min         723     723    195                40460    40460    5638
     Max         724     724    196                40463    40463    5641
     Sum        5791    5791   1561               323701   323701   45111
 


     bravais-lattice index     =            0
     lattice parameter (alat)  =       9.9248  a.u.
     unit-cell volume          =    2396.0423 (a.u.)^3
     number of atoms/cell      =           40
     number of atomic types    =            4
     number of electrons       =       120.00
     number of Kohn-Sham states=           72
     kinetic-energy cutoff     =     100.0000  Ry
     charge density cutoff     =     400.0000  Ry
     convergence threshold     =      1.0E-08
     mixing beta               =       0.5000
     number of iterations used =            8  plain     mixing
     Exchange-correlation      =  SLA  PW   PBX  PBC ( 1  4  3  4 0 0)

     celldm(1)=   9.924842  celldm(2)=   0.000000  celldm(3)=   0.000000
     celldm(4)=   0.000000  celldm(5)=   0.000000  celldm(6)=   0.000000

     crystal axes: (cart. coord. in units of alat)
               a(1) = (   1.000000   0.000000   0.000000 )  
               a(2) = (   0.000000   1.845583   0.000000 )  
               a(3) = (  -0.327903   0.000000   1.327976 )  

     reciprocal axes: (cart. coord. in units 2 pi/alat)
               b(1) = (  1.000000  0.000000  0.246919 )  
               b(2) = (  0.000000  0.541834  0.000000 )  
               b(3) = (  0.000000  0.000000  0.753026 )  


     PseudoPot. # 1 for  C read from file:
     /scratch/ahofstet/pseudo/C.pbe-n-kjpaw_psl.0.1.UPF
     MD5 check sum: 430fe95172b1e11ef3f8ed03bac87931
     Pseudo is Projector augmented-wave + core cor, Zval =  4.0
     Generated using "atomic" code by A. Dal Corso  v.5.0.99 svn rev. 10869
     Shape of augmentation charge: BESSEL
     Using radial grid of 1073 points,  4 beta functions with: 
                l(1) =   0
                l(2) =   0
                l(3) =   1
                l(4) =   1
     Q(r) pseudized with 0 coefficients 


     PseudoPot. # 2 for  N read from file:
     /scratch/ahofstet/pseudo/N.pbe-n-kjpaw_psl.0.1.UPF
     MD5 check sum: f73187c8b701007e77325f868c9291d7
     Pseudo is Projector augmented-wave + core cor, Zval =  5.0
     Generated using "atomic" code by A. Dal Corso  v.5.0.99 svn rev. 10869
     Shape of augmentation charge: PSQ
     Using radial grid of 1085 points,  4 beta functions with: 
                l(1) =   0
                l(2) =   0
                l(3) =   1
                l(4) =   1
     Q(r) pseudized with 0 coefficients 


     PseudoPot. # 3 for  H read from file:
     /scratch/ahofstet/pseudo/H.pbe-kjpaw_psl.0.1.UPF
     MD5 check sum: 94e484f906d9e9773b2f6e52662335b2
     Pseudo is Projector augmented-wave, Zval =  1.0
     Generated using "atomic" code by A. Dal Corso  v.5.0.99 svn rev. 10869
     Shape of augmentation charge: PSQ
     Using radial grid of  929 points,  2 beta functions with: 
                l(1) =   0
                l(2) =   0
     Q(r) pseudized with 0 coefficients 


     PseudoPot. # 4 for  O read from file:
     /scratch/ahofstet/pseudo/O.pbe-n-kjpaw_psl.0.1.UPF
     MD5 check sum: 3f94a2996a3169367d6eb21d9b593f20
     Pseudo is Projector augmented-wave + core cor, Zval =  6.0
     Generated using "atomic" code by A. Dal Corso  v.5.0.99 svn rev. 10869
     Shape of augmentation charge: BESSEL
     Using radial grid of 1095 points,  4 beta functions with: 
                l(1) =   0
                l(2) =   0
                l(3) =   1
                l(4) =   1
     Q(r) pseudized with 0 coefficients 


     atomic species   valence    mass     pseudopotential
        C              4.00    12.01070      C( 1.00)
        N              5.00    14.00670      N( 1.00)
        H              1.00     1.00794      H( 1.00)
        O              6.00    15.99940      O( 1.00)

      4 Sym. Ops., with inversion, found ( 2 have fractional translation)



   Cartesian axes

     site n.     atom                  positions (alat units)
         1           N   tau(   1) = (   0.6193853   0.2389803   0.7877115  )
         2           N   tau(   2) = (  -0.1112399   1.1617716   1.2042525  )
         3           N   tau(   3) = (   0.0527116   1.6066024   0.5402645  )
         4           N   tau(   4) = (   0.7833368   0.6838111   0.1237235  )
         5           N   tau(   5) = (   0.4791658   0.4506309   0.7899181  )
         6           N   tau(   6) = (   0.0289797   1.3734222   1.2020459  )
         7           N   tau(   7) = (   0.1929312   1.3949517   0.5380579  )
         8           N   tau(   8) = (   0.6431173   0.4721604   0.1259301  )
         9           N   tau(   9) = (   0.2303481   0.4665337   0.7895199  )
        10           N   tau(  10) = (   0.2777973   1.3893251   1.2024441  )
        11           N   tau(  11) = (   0.4417488   1.3790489   0.5384561  )
        12           N   tau(  12) = (   0.3942997   0.4562576   0.1255319  )
        13           O   tau(  13) = (   0.1125908   0.2561139   0.7713677  )
        14           O   tau(  14) = (   0.3955547   1.1789052   1.2205963  )
        15           O   tau(  15) = (   0.5595062   1.5894688   0.5566083  )
        16           O   tau(  16) = (   0.2765423   0.6666774   0.1073797  )
        17           C   tau(  17) = (   0.6158997   0.6923534   0.8002368  )
        18           C   tau(  18) = (  -0.1077542   1.6151447   1.1917272  )
        19           C   tau(  19) = (   0.0561973   1.1532293   0.5277392  )
        20           C   tau(  20) = (   0.7798512   0.2304379   0.1362488  )
        21           H   tau(  21) = (   0.8167385   0.2626632   0.7626626  )
        22           H   tau(  22) = (  -0.3085930   1.1854545   1.2293013  )
        23           H   tau(  23) = (  -0.1446415   1.5829195   0.5653134  )
        24           H   tau(  24) = (   0.9806900   0.6601281   0.0986746  )
        25           H   tau(  25) = (   0.5346083   0.0811308   0.7100852  )
        26           H   tau(  26) = (  -0.0264628   1.0039222   1.2818788  )
        27           H   tau(  27) = (   0.1374887   1.7644518   0.6178908  )
        28           H   tau(  28) = (   0.6985598   0.8416605   0.0460972  )
        29           H   tau(  29) = (   0.7652506   0.6782590   0.9457462  )
        30           H   tau(  30) = (  -0.2571051   1.6010503   1.0462178  )
        31           H   tau(  31) = (  -0.0931536   1.1673237   0.3822298  )
        32           H   tau(  32) = (   0.9292021   0.2445324   0.2817582  )
        33           H   tau(  33) = (   0.4801578   0.8428220   0.8486559  )
        34           H   tau(  34) = (   0.0279876   1.7656133   1.1433081  )
        35           H   tau(  35) = (   0.1919391   1.0027606   0.4793201  )
        36           H   tau(  36) = (   0.6441093   0.0799693   0.1846679  )
        37           H   tau(  37) = (   0.7023493   0.7273111   0.6135638  )
        38           H   tau(  38) = (  -0.1942038   1.6501024   1.3784001  )
        39           H   tau(  39) = (  -0.0302523   1.1182715   0.7144121  )
        40           H   tau(  40) = (   0.8663008   0.1954802  -0.0504242  )

     number of k points=    14
                       cart. coord. in units 2pi/alat
        k(    1) = (   0.0000000   0.0000000   0.0000000), wk =   0.0833333
        k(    2) = (   0.0000000   0.0000000   0.2510086), wk =   0.1666667
        k(    3) = (   0.0000000  -0.2709172   0.0000000), wk =   0.0833333
        k(    4) = (   0.0000000  -0.2709172   0.2510086), wk =   0.1666667
        k(    5) = (   0.2500000   0.0000000   0.0617298), wk =   0.1666667
        k(    6) = (   0.2500000   0.0000000   0.3127384), wk =   0.1666667
        k(    7) = (   0.2500000   0.0000000  -0.1892787), wk =   0.1666667
        k(    8) = (   0.2500000  -0.2709172   0.0617298), wk =   0.1666667
        k(    9) = (   0.2500000  -0.2709172   0.3127384), wk =   0.1666667
        k(   10) = (   0.2500000  -0.2709172  -0.1892787), wk =   0.1666667
        k(   11) = (  -0.5000000   0.0000000  -0.1234597), wk =   0.0833333
        k(   12) = (  -0.5000000   0.0000000   0.1275489), wk =   0.1666667
        k(   13) = (  -0.5000000  -0.2709172  -0.1234597), wk =   0.0833333
        k(   14) = (  -0.5000000  -0.2709172   0.1275489), wk =   0.1666667

     Dense  grid:   323701 G-vectors     FFT dimensions: (  64, 120,  90)

     Estimated max dynamical RAM per process >     170.35MB

     Estimated total allocated dynamical RAM >    1362.83MB

     Check: negative/imaginary core charge=   -0.000002    0.000000

     Initial potential from superposition of free atoms

     starting charge  119.99955, renormalised to  120.00000
     Starting wfc are  100 randomized atomic wfcs
     Checking if some PAW data can be deallocated... 

     total cpu time spent up to now is       11.2 secs

     per-process dynamical memory:   193.6 Mb

     Self-consistent Calculation

     iteration #  1     ecut=   100.00 Ry     beta=0.50
     Davidson diagonalization with overlap
     ethr =  1.00E-02,  avg # of iterations =  3.1

     total cpu time spent up to now is       29.4 secs

     total energy              =    -601.48511905 Ry
     Harris-Foulkes estimate   =    -603.26969311 Ry
     estimated scf accuracy    <       3.48567687 Ry

     iteration #  2     ecut=   100.00 Ry     beta=0.50
     Davidson diagonalization with overlap
     ethr =  2.90E-03,  avg # of iterations =  2.8

     total cpu time spent up to now is       43.0 secs

     total energy              =    -601.96334341 Ry
     Harris-Foulkes estimate   =    -602.27830965 Ry
     estimated scf accuracy    <       0.66455384 Ry

     iteration #  3     ecut=   100.00 Ry     beta=0.50
     Davidson diagonalization with overlap
     ethr =  5.54E-04,  avg # of iterations =  5.3

     total cpu time spent up to now is       59.9 secs

     total energy              =    -602.14318125 Ry
     Harris-Foulkes estimate   =    -602.22030141 Ry
     estimated scf accuracy    <       0.20262672 Ry

     iteration #  4     ecut=   100.00 Ry     beta=0.50
     Davidson diagonalization with overlap
     ethr =  1.69E-04,  avg # of iterations =  2.6

     total cpu time spent up to now is       72.3 secs

     total energy              =    -602.16186352 Ry
     Harris-Foulkes estimate   =    -602.17028000 Ry
     estimated scf accuracy    <       0.02393295 Ry

     iteration #  5     ecut=   100.00 Ry     beta=0.50
     Davidson diagonalization with overlap
     ethr =  1.99E-05,  avg # of iterations =  6.9

     total cpu time spent up to now is       93.4 secs

     total energy              =    -602.16912721 Ry
     Harris-Foulkes estimate   =    -602.17613057 Ry
     estimated scf accuracy    <       0.02151946 Ry

     iteration #  6     ecut=   100.00 Ry     beta=0.50
     Davidson diagonalization with overlap
     ethr =  1.79E-05,  avg # of iterations =  2.0

     total cpu time spent up to now is      104.7 secs

     total energy              =    -602.16999095 Ry
     Harris-Foulkes estimate   =    -602.17160227 Ry
     estimated scf accuracy    <       0.00487921 Ry

     iteration #  7     ecut=   100.00 Ry     beta=0.50
     Davidson diagonalization with overlap
     ethr =  4.07E-06,  avg # of iterations =  3.4

     total cpu time spent up to now is      119.4 secs

     total energy              =    -602.17089435 Ry
     Harris-Foulkes estimate   =    -602.17108144 Ry
     estimated scf accuracy    <       0.00037977 Ry

     iteration #  8     ecut=   100.00 Ry     beta=0.50
     Davidson diagonalization with overlap
     ethr =  3.16E-07,  avg # of iterations =  3.6

     total cpu time spent up to now is      136.2 secs

     total energy              =    -602.17101404 Ry
     Harris-Foulkes estimate   =    -602.17106857 Ry
     estimated scf accuracy    <       0.00014650 Ry

     iteration #  9     ecut=   100.00 Ry     beta=0.50
     Davidson diagonalization with overlap
     ethr =  1.22E-07,  avg # of iterations =  1.0

     total cpu time spent up to now is      146.9 secs

     total energy              =    -602.17101731 Ry
     Harris-Foulkes estimate   =    -602.17102773 Ry
     estimated scf accuracy    <       0.00002017 Ry

     iteration # 10     ecut=   100.00 Ry     beta=0.50
     Davidson diagonalization with overlap
     ethr =  1.68E-08,  avg # of iterations =  4.0

     total cpu time spent up to now is      165.2 secs

     total energy              =    -602.17103589 Ry
     Harris-Foulkes estimate   =    -602.17104008 Ry
     estimated scf accuracy    <       0.00001507 Ry

     iteration # 11     ecut=   100.00 Ry     beta=0.50
     Davidson diagonalization with overlap
     ethr =  1.26E-08,  avg # of iterations =  1.0

     total cpu time spent up to now is      176.0 secs

     total energy              =    -602.17103379 Ry
     Harris-Foulkes estimate   =    -602.17103642 Ry
     estimated scf accuracy    <       0.00000555 Ry

     iteration # 12     ecut=   100.00 Ry     beta=0.50
     Davidson diagonalization with overlap
     ethr =  4.62E-09,  avg # of iterations =  3.1

     total cpu time spent up to now is      191.3 secs

     total energy              =    -602.17103592 Ry
     Harris-Foulkes estimate   =    -602.17103600 Ry
     estimated scf accuracy    <       0.00000035 Ry

     iteration # 13     ecut=   100.00 Ry     beta=0.50
     Davidson diagonalization with overlap
     ethr =  2.93E-10,  avg # of iterations =  3.0

     total cpu time spent up to now is      203.3 secs

     total energy              =    -602.17103587 Ry
     Harris-Foulkes estimate   =    -602.17103595 Ry
     estimated scf accuracy    <       0.00000021 Ry

     iteration # 14     ecut=   100.00 Ry     beta=0.50
     Davidson diagonalization with overlap
     ethr =  1.72E-10,  avg # of iterations =  3.0

     total cpu time spent up to now is      217.3 secs

     End of self-consistent calculation

          k = 0.0000 0.0000 0.0000 ( 40509 PWs)   bands (ev):

   -22.4753 -22.4409 -22.4260 -22.3971 -19.3040 -19.2706 -19.2438 -19.2127
   -15.5864 -15.5204 -15.3521 -15.3324 -12.4482 -12.4360 -12.4281 -12.4241
    -9.3084  -9.1285  -9.1097  -9.1052  -7.7324  -7.6160  -7.5806  -7.5357
    -7.1330  -7.1043  -6.6516  -6.4527  -6.4420  -6.3714  -5.7220  -5.6759
    -4.9596  -4.8580  -4.8275  -4.8166  -4.0040  -4.0023  -3.9672  -3.6573
    -3.5853  -3.5813  -3.5628  -3.5366  -2.6617  -2.6458  -2.6144  -2.5824
    -2.0082  -2.0049  -1.8351  -1.7324   0.3518   0.4048   0.4291   0.5542
     0.7208   0.8029   1.0032   1.0136   4.5832   4.5877   4.6422   4.7279
     6.2770   6.7604   7.1494   8.0053   8.2533   8.5503   8.6718   8.7998

          k = 0.0000 0.0000 0.2510 ( 40405 PWs)   bands (ev):

   -22.4630 -22.4384 -22.4300 -22.4081 -19.2958 -19.2791 -19.2361 -19.2206
   -15.5699 -15.5369 -15.3467 -15.3368 -12.4477 -12.4418 -12.4279 -12.4256
    -9.2798  -9.2039  -9.0939  -9.0778  -7.7131  -7.6576  -7.5627  -7.5371
    -7.1195  -7.1080  -6.4503  -6.4257  -6.3953  -6.2565  -5.9691  -5.8791
    -4.9333  -4.8821  -4.8256  -4.8231  -3.9559  -3.9528  -3.8782  -3.7133
    -3.6683  -3.6281  -3.5176  -3.5083  -2.6459  -2.6253  -2.6235  -2.5951
    -1.9936  -1.9570  -1.8964  -1.8178   0.3531   0.3777   0.4779   0.5336
     0.7407   0.8446   0.8696   0.9709   4.5631   4.5891   4.6089   4.6632
     6.8059   7.3534   7.4211   7.9610   8.1338   8.2828   8.2907   8.4984

          k = 0.0000-0.2709 0.0000 ( 40462 PWs)   bands (ev):

   -22.4626 -22.4626 -22.4070 -22.4070 -19.2923 -19.2923 -19.2232 -19.2232
   -15.5495 -15.5495 -15.3472 -15.3472 -12.5083 -12.5083 -12.3525 -12.3525
    -9.2553  -9.2553  -9.1099  -9.1099  -7.6889  -7.6889  -7.4692  -7.4692
    -7.1243  -7.1243  -6.5648  -6.5648  -6.4042  -6.4042  -5.7010  -5.7010
    -5.0902  -5.0902  -4.6598  -4.6598  -3.9255  -3.9255  -3.8510  -3.8510
    -3.6477  -3.6477  -3.5693  -3.5693  -2.6373  -2.6373  -2.5925  -2.5925
    -2.0162  -2.0162  -1.7665  -1.7665   0.3991   0.3991   0.5122   0.5122
     0.7584   0.7584   1.0046   1.0046   4.5713   4.5713   4.6710   4.6710
     6.4597   6.4597   7.5564   7.5564   8.4275   8.4275   8.5653   8.5653

          k = 0.0000-0.2709 0.2510 ( 40482 PWs)   bands (ev):

   -22.4540 -22.4540 -22.4158 -22.4158 -19.2895 -19.2895 -19.2263 -19.2263
   -15.5470 -15.5470 -15.3492 -15.3492 -12.5109 -12.5109 -12.3532 -12.3532
    -9.2268  -9.2268  -9.1438  -9.1438  -7.6936  -7.6936  -7.4625  -7.4625
    -7.1118  -7.1118  -6.4459  -6.4459  -6.3336  -6.3336  -5.9307  -5.9307
    -5.0905  -5.0905  -4.6597  -4.6597  -3.8901  -3.8901  -3.7944  -3.7944
    -3.6870  -3.6870  -3.5826  -3.5826  -2.6251  -2.6251  -2.5984  -2.5984
    -1.9909  -1.9909  -1.8338  -1.8338   0.3928   0.3928   0.5145   0.5145
     0.7800   0.7800   0.9294   0.9294   4.5533   4.5533   4.6261   4.6261
     7.0189   7.0189   7.8058   7.8058   8.1139   8.1139   8.3305   8.3305

          k = 0.2500 0.0000 0.0617 ( 40465 PWs)   bands (ev):

   -22.4382 -22.4064 -22.3922 -22.3651 -19.4474 -19.4026 -19.3755 -19.3396
   -15.3854 -15.3222 -15.1848 -15.1546 -12.4878 -12.4174 -12.3777 -12.3522
    -9.6360  -9.4354  -9.1691  -9.1667  -7.9369  -7.9288  -7.4263  -7.3411
    -6.6998  -6.6372  -6.5088  -6.3789  -6.3344  -6.2894  -5.7245  -5.6667
    -5.3239  -5.2831  -4.8112  -4.7429  -4.0115  -4.0041  -3.8991  -3.8856
    -3.7887  -3.6956  -3.6006  -3.5714  -2.7992  -2.7406  -2.7373  -2.7190
    -2.2163  -2.0254  -1.8523  -1.6802   0.4022   0.4734   0.6898   0.7241
     0.9552   1.0377   1.0629   1.2218   4.4365   4.5338   4.5941   4.6666
     6.5796   7.0274   7.3713   7.8968   8.2061   8.3837   8.5450   8.5566

          k = 0.2500 0.0000 0.3127 ( 40453 PWs)   bands (ev):

   -22.4250 -22.4055 -22.3948 -22.3767 -19.4421 -19.4080 -19.3696 -19.3457
   -15.3650 -15.3427 -15.1807 -15.1578 -12.4897 -12.4303 -12.3782 -12.3423
    -9.6384  -9.4339  -9.1960  -9.1441  -7.9376  -7.9270  -7.4009  -7.3770
    -6.6574  -6.6183  -6.3616  -6.2871  -6.2680  -6.1967  -5.9887  -5.8879
    -5.3333  -5.2973  -4.7890  -4.7798  -4.0019  -3.9570  -3.9496  -3.8260
    -3.8103  -3.6034  -3.5890  -3.5860  -2.7762  -2.7568  -2.7533  -2.6948
    -2.2295  -1.9757  -1.9289  -1.7794   0.3982   0.4926   0.6832   0.7240
     0.9255   1.0380   1.0875   1.1292   4.4272   4.5512   4.5519   4.5984
     7.2309   7.5722   7.7462   7.8511   7.9550   8.1740   8.2824   8.4308

          k = 0.2500 0.0000-0.1893 ( 40466 PWs)   bands (ev):

   -22.4285 -22.4020 -22.3974 -22.3741 -19.4305 -19.4198 -19.3635 -19.3516
   -15.3741 -15.3332 -15.1732 -15.1659 -12.4616 -12.4559 -12.3896 -12.3333
    -9.5479  -9.5449  -9.1830  -9.1352  -7.9405  -7.9215  -7.4413  -7.3325
    -6.6811  -6.6067  -6.4070  -6.3253  -6.3019  -6.2292  -5.8630  -5.8333
    -5.3311  -5.3192  -4.8419  -4.7628  -4.0510  -4.0179  -3.9110  -3.7059
    -3.6939  -3.6539  -3.6006  -3.5969  -2.7867  -2.7628  -2.7372  -2.6890
    -2.1337  -2.0693  -1.9725  -1.8177   0.4259   0.4527   0.6752   0.7481
     0.8830   1.0414   1.1075   1.1868   4.4854   4.4942   4.5437   4.6144
     6.8900   7.3057   7.3440   8.0438   8.2021   8.3407   8.5801   8.6162

          k = 0.2500-0.2709 0.0617 ( 40472 PWs)   bands (ev):

   -22.4265 -22.4265 -22.3744 -22.3744 -19.4309 -19.4309 -19.3516 -19.3516
   -15.3500 -15.3500 -15.1744 -15.1744 -12.4682 -12.4682 -12.3461 -12.3461
    -9.5705  -9.5705  -9.1430  -9.1430  -7.9331  -7.9331  -7.3114  -7.3114
    -6.7339  -6.7339  -6.5003  -6.5003  -6.2978  -6.2978  -5.6940  -5.6940
    -5.1629  -5.1629  -4.8605  -4.8605  -4.0620  -4.0620  -3.8567  -3.8567
    -3.7653  -3.7653  -3.5720  -3.5720  -2.8308  -2.8308  -2.6694  -2.6694
    -2.1309  -2.1309  -1.7555  -1.7555   0.4603   0.4603   0.7345   0.7345
     0.9625   0.9625   1.1595   1.1595   4.4775   4.4775   4.6195   4.6195
     6.7486   6.7486   7.7136   7.7136   8.2272   8.2272   8.4059   8.4059

          k = 0.2500-0.2709 0.3127 ( 40418 PWs)   bands (ev):

   -22.4175 -22.4175 -22.3836 -22.3836 -19.4284 -19.4284 -19.3543 -19.3543
   -15.3469 -15.3469 -15.1771 -15.1771 -12.4731 -12.4731 -12.3439 -12.3439
    -9.5679  -9.5679  -9.1504  -9.1504  -7.9333  -7.9333  -7.3044  -7.3044
    -6.7385  -6.7385  -6.3417  -6.3417  -6.2331  -6.2331  -5.9347  -5.9347
    -5.1783  -5.1783  -4.8628  -4.8628  -4.0561  -4.0561  -3.8891  -3.8891
    -3.6675  -3.6675  -3.5821  -3.5821  -2.8215  -2.8215  -2.6659  -2.6659
    -2.1148  -2.1148  -1.8419  -1.8419   0.4595   0.4595   0.7354   0.7354
     0.9739   0.9739   1.1025   1.1025   4.4697   4.4697   4.5727   4.5727
     7.4055   7.4055   7.8721   7.8721   8.0501   8.0501   8.1994   8.1994

          k = 0.2500-0.2709-0.1893 ( 40450 PWs)   bands (ev):

   -22.4194 -22.4194 -22.3817 -22.3817 -19.4258 -19.4258 -19.3568 -19.3568
   -15.3475 -15.3475 -15.1766 -15.1766 -12.4695 -12.4695 -12.3474 -12.3474
    -9.5651  -9.5651  -9.1524  -9.1524  -7.9294  -7.9294  -7.3106  -7.3106
    -6.7430  -6.7430  -6.3687  -6.3687  -6.2719  -6.2719  -5.8561  -5.8561
    -5.1781  -5.1781  -4.8780  -4.8780  -4.1049  -4.1049  -3.8063  -3.8063
    -3.6456  -3.6456  -3.5964  -3.5964  -2.8270  -2.8270  -2.6615  -2.6615
    -2.0911  -2.0911  -1.9042  -1.9042   0.4605   0.4605   0.7301   0.7301
     0.9560   0.9560   1.1473   1.1473   4.4846   4.4846   4.5630   4.5630
     7.0400   7.0400   7.7241   7.7241   8.2660   8.2660   8.5064   8.5065

          k =-0.5000 0.0000-0.1235 ( 40426 PWs)   bands (ev):

   -22.3990 -22.3701 -22.3566 -22.3316 -19.5837 -19.5283 -19.5018 -19.4611
   -15.1720 -15.1272 -15.0343 -14.9817 -12.5187 -12.3907 -12.3186 -12.3111
    -9.9026  -9.6217  -9.3211  -9.2704  -8.0289  -7.9521  -7.1833  -7.0992
    -6.5238  -6.5146  -6.4334  -6.4102  -6.3902  -6.3185  -5.6572  -5.6231
    -5.3717  -5.3594  -4.9134  -4.8940  -4.0945  -4.0242  -3.8733  -3.8713
    -3.8568  -3.6721  -3.6606  -3.6588  -2.9851  -2.9763  -2.8519  -2.8020
    -2.4414  -2.0913  -1.8509  -1.6565   0.4712   0.5898   0.8564   0.8576
     1.1556   1.2076   1.2604   1.3790   4.2978   4.4559   4.5311   4.6240
     7.1483   7.4513   7.8013   7.8764   7.8804   8.0059   8.2643   8.2746

          k =-0.5000 0.0000 0.1275 ( 40478 PWs)   bands (ev):

   -22.3885 -22.3673 -22.3605 -22.3412 -19.5701 -19.5424 -19.4916 -19.4712
   -15.1608 -15.1385 -15.0208 -14.9945 -12.4941 -12.4335 -12.3090 -12.3086
    -9.8427  -9.7066  -9.2945  -9.2734  -8.0095  -7.9710  -7.1657  -7.1240
    -6.4996  -6.4939  -6.4312  -6.4196  -6.2342  -6.1649  -5.8598  -5.8144
    -5.3819  -5.3705  -4.9327  -4.9284  -3.9934  -3.9600  -3.9460  -3.7737
    -3.7619  -3.7332  -3.6690  -3.6051  -3.0026  -2.9918  -2.8399  -2.8158
    -2.3613  -2.0632  -2.0151  -1.7920   0.5014   0.5581   0.8656   0.8660
     1.1449   1.1666   1.2972   1.3486   4.3363   4.4436   4.4833   4.5632
     7.4600   7.5862   7.6631   7.9038   8.0255   8.1738   8.3054   8.5067

          k =-0.5000-0.2709-0.1235 ( 40468 PWs)   bands (ev):

   -22.3884 -22.3884 -22.3403 -22.3403 -19.5631 -19.5631 -19.4744 -19.4744
   -15.1478 -15.1478 -15.0101 -15.0101 -12.4293 -12.4293 -12.3454 -12.3454
    -9.7605  -9.7605  -9.2924  -9.2924  -7.9883  -7.9883  -7.0825  -7.0825
    -6.6939  -6.6939  -6.4335  -6.4335  -6.2469  -6.2469  -5.6443  -5.6443
    -5.3173  -5.3173  -4.8533  -4.8533  -4.1693  -4.1693  -4.0107  -4.0107
    -3.7233  -3.7233  -3.5229  -3.5229  -2.9288  -2.9288  -2.8973  -2.8973
    -2.2755  -2.2755  -1.7494  -1.7494   0.5427   0.5427   0.9116   0.9116
     1.1547   1.1547   1.3110   1.3110   4.3830   4.3830   4.5667   4.5667
     7.2751   7.2751   7.8563   7.8563   8.1138   8.1138   8.2211   8.2211

          k =-0.5000-0.2709 0.1275 ( 40490 PWs)   bands (ev):

   -22.3809 -22.3809 -22.3480 -22.3479 -19.5579 -19.5579 -19.4798 -19.4798
   -15.1446 -15.1446 -15.0130 -15.0130 -12.4202 -12.4202 -12.3574 -12.3574
    -9.7544  -9.7544  -9.3001  -9.3001  -7.9868  -7.9868  -7.0793  -7.0793
    -6.7059  -6.7059  -6.3341  -6.3341  -6.1727  -6.1727  -5.8367  -5.8367
    -5.3283  -5.3283  -4.8695  -4.8695  -4.1944  -4.1944  -3.8813  -3.8813
    -3.6954  -3.6954  -3.5378  -3.5378  -2.9294  -2.9294  -2.9106  -2.9106
    -2.2020  -2.2020  -1.9149  -1.9149   0.5477   0.5477   0.9076   0.9076
     1.1607   1.1607   1.2912   1.2912   4.3935   4.3935   4.5119   4.5119
     7.5742   7.5742   7.8251   7.8251   8.0451   8.0451   8.4350   8.4350

     highest occupied, lowest unoccupied level (ev):     1.3790    4.2978

!    total energy              =    -602.17103591 Ry
     Harris-Foulkes estimate   =    -602.17103591 Ry
     estimated scf accuracy    <          2.9E-09 Ry

     total all-electron energy =     -2244.200538 Ry

     The total energy is the sum of the following terms:

     one-electron contribution =    -329.70197424 Ry
     hartree contribution      =     210.10931794 Ry
     xc contribution           =    -125.59686428 Ry
     ewald contribution        =    -192.81539165 Ry
     Dispersion Correction     =      -0.16580139 Ry
     one-center paw contrib.   =    -164.00032229 Ry

     convergence has been achieved in  14 iterations

     Forces acting on atoms (cartesian axes, Ry/au):

     atom    1 type  2   force =    -0.01245502   -0.03853250    0.00431060
     atom    2 type  2   force =     0.01245502   -0.03853250   -0.00431060
     atom    3 type  2   force =     0.01245502    0.03853250   -0.00431060
     atom    4 type  2   force =    -0.01245502    0.03853250    0.00431060
     atom    5 type  2   force =    -0.02805492    0.04038365    0.00058007
     atom    6 type  2   force =     0.02805492    0.04038365   -0.00058007
     atom    7 type  2   force =     0.02805492   -0.04038365   -0.00058007
     atom    8 type  2   force =    -0.02805492   -0.04038365    0.00058007
     atom    9 type  2   force =     0.02871435    0.03491125   -0.00053686
     atom   10 type  2   force =    -0.02871435    0.03491125    0.00053686
     atom   11 type  2   force =    -0.02871435   -0.03491125    0.00053686
     atom   12 type  2   force =     0.02871435   -0.03491125   -0.00053686
     atom   13 type  4   force =     0.01424112   -0.04427121   -0.00535794
     atom   14 type  4   force =    -0.01424112   -0.04427121    0.00535794
     atom   15 type  4   force =    -0.01424112    0.04427121    0.00535794
     atom   16 type  4   force =     0.01424112    0.04427121   -0.00535794
     atom   17 type  1   force =     0.00024486   -0.00094939    0.00440884
     atom   18 type  1   force =    -0.00024486   -0.00094939   -0.00440884
     atom   19 type  1   force =    -0.00024486    0.00094939   -0.00440884
     atom   20 type  1   force =     0.00024486    0.00094939    0.00440884
     atom   21 type  3   force =    -0.00093434    0.00897656    0.00380517
     atom   22 type  3   force =     0.00093434    0.00897656   -0.00380517
     atom   23 type  3   force =     0.00093434   -0.00897656   -0.00380517
     atom   24 type  3   force =    -0.00093434   -0.00897656    0.00380517
     atom   25 type  3   force =    -0.00833818    0.00017034   -0.00165052
     atom   26 type  3   force =     0.00833818    0.00017034    0.00165052
     atom   27 type  3   force =     0.00833818   -0.00017034    0.00165052
     atom   28 type  3   force =    -0.00833818   -0.00017034   -0.00165052
     atom   29 type  3   force =     0.00101155    0.00139473   -0.00026900
     atom   30 type  3   force =    -0.00101155    0.00139473    0.00026900
     atom   31 type  3   force =    -0.00101155   -0.00139473    0.00026900
     atom   32 type  3   force =     0.00101155   -0.00139473   -0.00026900
     atom   33 type  3   force =     0.00071249   -0.00036569   -0.00015746
     atom   34 type  3   force =    -0.00071249   -0.00036569    0.00015746
     atom   35 type  3   force =    -0.00071249    0.00036569    0.00015746
     atom   36 type  3   force =     0.00071249    0.00036569   -0.00015746
     atom   37 type  3   force =     0.00341922    0.00226293   -0.00349639
     atom   38 type  3   force =    -0.00341922    0.00226293    0.00349639
     atom   39 type  3   force =    -0.00341922   -0.00226293    0.00349639
     atom   40 type  3   force =     0.00341922   -0.00226293   -0.00349639

     Total force =     0.184750     Total SCF correction =     0.000132


     Computing stress (Cartesian axis) and pressure

          total   stress  (Ry/bohr**3)                   (kbar)     P=   14.63
   0.00009118   0.00000000  -0.00000859         13.41      0.00     -1.26
   0.00000000   0.00024604   0.00000000          0.00     36.19      0.00
  -0.00000859   0.00000000  -0.00003887         -1.26      0.00     -5.72


     Writing output data file scf.save
 
     init_run     :     10.01s CPU     10.44s WALL (       1 calls)
     electrons    :    200.33s CPU    206.23s WALL (       1 calls)
     forces       :      5.45s CPU      5.48s WALL (       1 calls)
     stress       :     13.86s CPU     13.87s WALL (       1 calls)

     Called by init_run:
     wfcinit      :      5.44s CPU      5.76s WALL (       1 calls)
     potinit      :      1.61s CPU      1.64s WALL (       1 calls)

     Called by electrons:
     c_bands      :    171.16s CPU    176.14s WALL (      14 calls)
     sum_band     :     24.21s CPU     24.94s WALL (      14 calls)
     v_of_rho     :      0.69s CPU      0.77s WALL (      15 calls)
     newd         :      1.39s CPU      1.46s WALL (      15 calls)
     PAW_pot      :      2.57s CPU      2.58s WALL (      15 calls)
     mix_rho      :      0.16s CPU      0.17s WALL (      14 calls)

     Called by c_bands:
     init_us_2    :      2.53s CPU      2.54s WALL (     434 calls)
     cegterg      :    163.45s CPU    168.41s WALL (     196 calls)

     Called by sum_band:
     sum_band:bec :      0.03s CPU      0.02s WALL (     196 calls)
     addusdens    :      1.49s CPU      1.50s WALL (      14 calls)

     Called by *egterg:
     h_psi        :    112.79s CPU    117.73s WALL (     837 calls)
     s_psi        :     11.13s CPU     11.13s WALL (     837 calls)
     g_psi        :      1.02s CPU      1.02s WALL (     627 calls)
     cdiaghg      :      9.61s CPU      9.72s WALL (     823 calls)

     Called by h_psi:
     h_psi:pot    :    111.76s CPU    116.68s WALL (     837 calls)
     h_psi:calbec :     10.57s CPU     10.61s WALL (     837 calls)
     vloc_psi     :     90.28s CPU     95.15s WALL (     837 calls)
     add_vuspsi   :     10.92s CPU     10.92s WALL (     837 calls)

     General routines
     calbec       :     16.19s CPU     16.25s WALL (    1103 calls)
     fft          :      0.54s CPU      0.67s WALL (     219 calls)
     fftw         :     96.98s CPU    102.38s WALL (   92296 calls)
 
     Parallel routines
     fft_scatter  :     27.70s CPU     30.44s WALL (   92515 calls)
 
     PWSCF        :  3m53.17s CPU     4m 0.71s WALL

 
   This run was terminated on:  21: 9:58   3Nov2017            

=------------------------------------------------------------------------------=
   JOB DONE.
=------------------------------------------------------------------------------=
