
     Program PWSCF v.6.1 (svn rev. 13369) starts on  4Nov2017 at 14: 3:54 

     This program is part of the open-source Quantum ESPRESSO suite
     for quantum simulation of materials; please cite
         "P. Giannozzi et al., J. Phys.:Condens. Matter 21 395502 (2009);
          URL http://www.quantum-espresso.org", 
     in publications or presentations arising from this work. More details at
     http://www.quantum-espresso.org/quote

     Parallel version (MPI), running on     8 processors
     R & G space division:  proc/nbgrp/npool/nimage =       8
     Waiting for input...
     Reading input from standard input

     Current dimensions of program PWSCF are:
     Max number of different atomic species (ntypx) = 10
     Max number of k-points (npk) =  40000
     Max angular momentum in pseudopotentials (lmaxx) =  3
               file C.pbe-n-kjpaw_psl.0.1.UPF: wavefunction(s)  2P renormalized
               file N.pbe-n-kjpaw_psl.0.1.UPF: wavefunction(s)  2P renormalized
               file H.pbe-kjpaw_psl.0.1.UPF: wavefunction(s)  1S renormalized
               file O.pbe-n-kjpaw_psl.0.1.UPF: wavefunction(s)  2P renormalized

     -------------------------------------
     Parameters for Dispersion Correction:
     -------------------------------------
       atom      VdW radius       C_6     

        C          2.744         60.710
        N          2.640         42.670
        H          1.892          4.857
        O          2.536         24.284

     Subspace diagonalization in iterative solution of the eigenvalue problem:
     a serial algorithm will be used

 
     Parallelization info
     --------------------
     sticks:   dense  smooth     PW     G-vecs:    dense   smooth      PW
     Min         692     692    186               161663   161663   22629
     Max         693     693    187               161675   161675   22641
     Sum        5539    5539   1491              1293329  1293329  181071
 


     bravais-lattice index     =            0
     lattice parameter (alat)  =      10.2537  a.u.
     unit-cell volume          =    9572.3148 (a.u.)^3
     number of atoms/cell      =          152
     number of atomic types    =            4
     number of electrons       =       372.00
     number of Kohn-Sham states=          223
     kinetic-energy cutoff     =     100.0000  Ry
     charge density cutoff     =     400.0000  Ry
     convergence threshold     =      1.0E-08
     mixing beta               =       0.5000
     number of iterations used =            8  plain     mixing
     Exchange-correlation      =  SLA  PW   PBX  PBC ( 1  4  3  4 0 0)

     celldm(1)=  10.253654  celldm(2)=   0.000000  celldm(3)=   0.000000
     celldm(4)=   0.000000  celldm(5)=   0.000000  celldm(6)=   0.000000

     crystal axes: (cart. coord. in units of alat)
               a(1) = (   1.000000   0.000000   0.000000 )  
               a(2) = (  -0.255975   1.655409   0.000000 )  
               a(3) = (  -0.455459  -0.204559   5.363838 )  

     reciprocal axes: (cart. coord. in units 2 pi/alat)
               b(1) = (  1.000000  0.154629  0.090810 )  
               b(2) = (  0.000000  0.604080  0.023038 )  
               b(3) = (  0.000000  0.000000  0.186434 )  


     PseudoPot. # 1 for  C read from file:
     /scratch/ahofstet/pseudo/C.pbe-n-kjpaw_psl.0.1.UPF
     MD5 check sum: 430fe95172b1e11ef3f8ed03bac87931
     Pseudo is Projector augmented-wave + core cor, Zval =  4.0
     Generated using "atomic" code by A. Dal Corso  v.5.0.99 svn rev. 10869
     Shape of augmentation charge: BESSEL
     Using radial grid of 1073 points,  4 beta functions with: 
                l(1) =   0
                l(2) =   0
                l(3) =   1
                l(4) =   1
     Q(r) pseudized with 0 coefficients 


     PseudoPot. # 2 for  N read from file:
     /scratch/ahofstet/pseudo/N.pbe-n-kjpaw_psl.0.1.UPF
     MD5 check sum: f73187c8b701007e77325f868c9291d7
     Pseudo is Projector augmented-wave + core cor, Zval =  5.0
     Generated using "atomic" code by A. Dal Corso  v.5.0.99 svn rev. 10869
     Shape of augmentation charge: PSQ
     Using radial grid of 1085 points,  4 beta functions with: 
                l(1) =   0
                l(2) =   0
                l(3) =   1
                l(4) =   1
     Q(r) pseudized with 0 coefficients 


     PseudoPot. # 3 for  H read from file:
     /scratch/ahofstet/pseudo/H.pbe-kjpaw_psl.0.1.UPF
     MD5 check sum: 94e484f906d9e9773b2f6e52662335b2
     Pseudo is Projector augmented-wave, Zval =  1.0
     Generated using "atomic" code by A. Dal Corso  v.5.0.99 svn rev. 10869
     Shape of augmentation charge: PSQ
     Using radial grid of  929 points,  2 beta functions with: 
                l(1) =   0
                l(2) =   0
     Q(r) pseudized with 0 coefficients 


     PseudoPot. # 4 for  O read from file:
     /scratch/ahofstet/pseudo/O.pbe-n-kjpaw_psl.0.1.UPF
     MD5 check sum: 3f94a2996a3169367d6eb21d9b593f20
     Pseudo is Projector augmented-wave + core cor, Zval =  6.0
     Generated using "atomic" code by A. Dal Corso  v.5.0.99 svn rev. 10869
     Shape of augmentation charge: BESSEL
     Using radial grid of 1095 points,  4 beta functions with: 
                l(1) =   0
                l(2) =   0
                l(3) =   1
                l(4) =   1
     Q(r) pseudized with 0 coefficients 


     atomic species   valence    mass     pseudopotential
        C              4.00    12.01070      C( 1.00)
        N              5.00    14.00670      N( 1.00)
        H              1.00     1.00794      H( 1.00)
        O              6.00    15.99940      O( 1.00)

      2 Sym. Ops., with inversion, found



   Cartesian axes

     site n.     atom                  positions (alat units)
         1           O   tau(   1) = (   0.1992862   1.2682248   0.6850828  )
         2           O   tau(   2) = (   0.0892797   0.1826249   4.6787550  )
         3           O   tau(   3) = (   0.0246793   1.4727267   1.0081583  )
         4           O   tau(   4) = (   0.2638865  -0.0218770   4.3556795  )
         5           C   tau(   5) = (   0.0556672   1.3898895   0.5095813  )
         6           C   tau(   6) = (   0.2328986   0.0609602   4.8542564  )
         7           C   tau(   7) = (  -0.1719147   1.2953200   0.4395762  )
         8           C   tau(   8) = (   0.4604806   0.1555297   4.9242616  )
         9           H   tau(   9) = (   0.7509343   1.1354288   0.5343798  )
        10           H   tau(  10) = (  -0.4623685   0.3154210   4.8294580  )
        11           C   tau(  11) = (   0.7052914   1.4002364   0.2391705  )
        12           C   tau(  12) = (  -0.4167255   0.0506133   5.1246672  )
        13           H   tau(  13) = (   0.5363896   1.3119049   0.1775009  )
        14           H   tau(  14) = (  -0.2478238   0.1389449   5.1863369  )
        15           C   tau(  15) = (  -0.1927806   1.6020578   0.1083673  )
        16           C   tau(  16) = (   0.4813464  -0.1512080   5.2554705  )
        17           C   tau(  17) = (   0.2894321   0.0420565   0.1920797  )
        18           C   tau(  18) = (  -0.0008662   1.4087933   5.1717580  )
        19           H   tau(  19) = (   0.3731117   0.2015567   0.1043942  )
        20           H   tau(  20) = (  -0.0845458   1.2492931   5.2594435  )
        21           C   tau(  21) = (   0.1582395   1.5940066   0.3923160  )
        22           C   tau(  22) = (   0.1303263  -0.1431569   4.9715218  )
        23           H   tau(  23) = (   0.5848379   0.0182285   0.4609684  )
        24           H   tau(  24) = (  -0.2962720   1.4326212   4.9028694  )
        25           C   tau(  25) = (   0.1801885   1.3317423   0.9294517  )
        26           C   tau(  26) = (   0.1083774   0.1191074   4.4343861  )
        27           C   tau(  27) = (   0.3844758   1.2092514   1.0694457  )
        28           C   tau(  28) = (  -0.0959099   0.2415983   4.2943921  )
        29           H   tau(  29) = (   0.4014202   1.0178426   1.0047187  )
        30           H   tau(  30) = (  -0.1128543   0.4330072   4.3591191  )
        31           H   tau(  31) = (   0.5596786   1.2983240   1.0110031  )
        32           H   tau(  32) = (  -0.2711127   0.1525258   4.3528346  )
        33           C   tau(  33) = (   0.3625431   1.2234688   1.3487477  )
        34           C   tau(  34) = (  -0.0739772   0.2273809   4.0150901  )
        35           H   tau(  35) = (   0.1849987   1.1382170   1.4096681  )
        36           H   tau(  36) = (   0.1035672   0.3126328   3.9541696  )
        37           H   tau(  37) = (   0.3530948   1.4180139   1.4057781  )
        38           H   tau(  38) = (  -0.0645289   0.0328359   3.9580597  )
        39           C   tau(  39) = (   0.5798935   1.0970183   1.4734961  )
        40           C   tau(  40) = (  -0.2913276   0.3538315   3.8903417  )
        41           H   tau(  41) = (   0.5827772   0.8999651   1.4233500  )
        42           H   tau(  42) = (  -0.2942113   0.5508847   3.9404877  )
        43           H   tau(  43) = (   0.7563240   1.1754438   1.4001652  )
        44           H   tau(  44) = (  -0.4677581   0.2754059   3.9636726  )
        45           C   tau(  45) = (   0.5771786   1.1250459   1.7535687  )
        46           C   tau(  46) = (  -0.2886127   0.3258039   3.6102691  )
        47           H   tau(  47) = (   0.4001708   1.0479320   1.8267680  )
        48           H   tau(  48) = (  -0.1116049   0.4029177   3.5370698  )
        49           H   tau(  49) = (  -0.4251034   1.3230974   1.8002004  )
        50           H   tau(  50) = (   0.7136693   0.1277524   3.5636374  )
        51           C   tau(  51) = (  -0.2055209   1.0020686   1.8810104  )
        52           C   tau(  52) = (   0.4940868   0.4487811   3.4828273  )
        53           H   tau(  53) = (   0.7922135   0.8022366   1.8438979  )
        54           H   tau(  54) = (  -0.5036476   0.6486131   3.5199398  )
        55           H   tau(  55) = (  -0.0298077   1.0728940   1.7988155  )
        56           H   tau(  56) = (   0.3183736   0.3779557   3.5650222  )
        57           C   tau(  57) = (  -0.1983192   1.0473384   2.1589105  )
        58           C   tau(  58) = (   0.4868851   0.4035114   3.2049273  )
        59           H   tau(  59) = (  -0.3722516   0.9741055   2.2433284  )
        60           H   tau(  60) = (   0.6608174   0.4767443   3.1205094  )
        61           H   tau(  61) = (  -0.2015709   1.2477481   2.1932288  )
        62           H   tau(  62) = (   0.4901368   0.2031016   3.1706089  )
        63           C   tau(  63) = (   0.0248288   0.9356376   2.2879304  )
        64           C   tau(  64) = (   0.2637371   0.5152122   3.0759073  )
        65           H   tau(  65) = (   0.0262670   0.7342307   2.2613412  )
        66           H   tau(  66) = (   0.2622988   0.7166191   3.1024965  )
        67           H   tau(  67) = (   0.1972604   1.0052773   2.1986030  )
        68           H   tau(  68) = (   0.0913055   0.4455725   3.1652348  )
        69           C   tau(  69) = (   0.0327046   0.9996816   2.5614164  )
        70           C   tau(  70) = (   0.2558613   0.4511682   2.8024214  )
        71           H   tau(  71) = (   0.1994911   0.9301936   2.6511948  )
        72           H   tau(  72) = (   0.0890748   0.5206561   2.7126429  )
        73           H   tau(  73) = (  -0.1275272   0.9240202   2.6594805  )
        74           H   tau(  74) = (   0.4160931   0.5268295   2.7043573  )
        75           H   tau(  75) = (   0.0286541   1.2005334   2.5856488  )
        76           H   tau(  76) = (   0.2599118   0.2503163   2.7781890  )
        77           O   tau(  77) = (  -0.4666140   1.0590998   4.6625318  )
        78           O   tau(  78) = (   0.7551799   0.3917499   0.7013059  )
        79           O   tau(  79) = (   0.3724762   0.7189949   4.4759243  )
        80           O   tau(  80) = (  -0.0839103   0.7318548   0.8879135  )
        81           C   tau(  81) = (  -0.3688311   0.9183018   4.8550685  )
        82           C   tau(  82) = (   0.6573969   0.5325480   0.5087692  )
        83           C   tau(  83) = (  -0.4834839   0.9256575   5.0840541  )
        84           C   tau(  84) = (   0.7720498   0.5251922   0.2797837  )
        85           H   tau(  85) = (  -0.6496632   1.0345045   5.1099500  )
        86           H   tau(  86) = (   0.9382291   0.4163452   0.2538877  )
        87           C   tau(  87) = (  -0.3693308   0.8065707   5.2825829  )
        88           C   tau(  88) = (   0.6578967   0.6442790   0.0812549  )
        89           H   tau(  89) = (  -0.0032610   1.0246520   0.0970812  )
        90           H   tau(  90) = (   0.2918268   0.4261977   5.2667566  )
        91           C   tau(  91) = (  -0.1437969   0.6821901   5.2568048  )
        92           C   tau(  92) = (   0.4323628   0.7686596   0.1070330  )
        93           C   tau(  93) = (  -0.0362066   0.6748318   5.0187167  )
        94           C   tau(  94) = (   0.3247724   0.7760179   0.3451211  )
        95           H   tau(  95) = (   0.1302967   0.5696484   4.9829579  )
        96           H   tau(  96) = (   0.1582691   0.8812014   0.3808798  )
        97           C   tau(  97) = (  -0.1482515   0.7924761   4.8198373  )
        98           C   tau(  98) = (   0.4368174   0.6583736   0.5440005  )
        99           H   tau(  99) = (  -0.0617260   0.7869253   4.6382504  )
       100           H   tau( 100) = (   0.3502919   0.6639244   0.7255874  )
       101           C   tau( 101) = (  -0.5788516   0.9373815   4.4714566  )
       102           C   tau( 102) = (   0.8674174   0.5134683   0.8923812  )
       103           C   tau( 103) = (   0.3798336   1.1127202   4.2600122  )
       104           C   tau( 104) = (  -0.0912677   0.3381295   1.1038255  )
       105           H   tau( 105) = (  -0.4448636   1.1010006   4.1508180  )
       106           H   tau( 106) = (   0.7334295   0.3498492   1.2130198  )
       107           H   tau( 107) = (   0.3676670   1.3029627   4.3283870  )
       108           H   tau( 108) = (  -0.0791011   0.1478871   1.0354508  )
       109           C   tau( 109) = (   0.1610145   1.0487156   4.0974229  )
       110           C   tau( 110) = (   0.1275514   0.4021342   1.2664148  )
       111           H   tau( 111) = (  -0.0133809   1.0903818   4.1991494  )
       112           H   tau( 112) = (   0.3019468   0.3604680   1.1646884  )
       113           H   tau( 113) = (   0.1603713   0.8496757   4.0576657  )
       114           H   tau( 114) = (   0.1281945   0.6011740   1.3061720  )
       115           C   tau( 115) = (   0.1630615   1.1948824   3.8565811  )
       116           C   tau( 116) = (   0.1255043   0.2559673   1.5072567  )
       117           H   tau( 117) = (   0.1629013   1.3936766   3.8983876  )
       118           H   tau( 118) = (   0.1256646   0.0571731   1.4654501  )
       119           H   tau( 119) = (   0.3414589   1.1565064   3.7594069  )
       120           H   tau( 120) = (  -0.0528930   0.2943433   1.6044309  )
       121           C   tau( 121) = (  -0.0510402   1.1320863   3.6874334  )
       122           C   tau( 122) = (   0.3396061   0.3187635   1.6764044  )
       123           H   tau( 123) = (  -0.2294190   1.1742400   3.7831053  )
       124           H   tau( 124) = (   0.5179849   0.2766098   1.5807324  )
       125           H   tau( 125) = (  -0.0528159   0.9317533   3.6518489  )
       126           H   tau( 126) = (   0.3413818   0.5190964   1.7119888  )
       127           C   tau( 127) = (  -0.0458424   1.2705382   3.4418661  )
       128           C   tau( 128) = (   0.3344082   0.1803115   1.9219717  )
       129           H   tau( 129) = (   0.1317599   1.2271604   3.3452724  )
       130           H   tau( 130) = (   0.1568059   0.2236894   2.0185654  )
       131           H   tau( 131) = (  -0.0422503   1.4708070   3.4774972  )
       132           H   tau( 132) = (   0.3308162  -0.0199573   1.8863405  )
       133           C   tau( 133) = (  -0.2612965   1.2071082   3.2740299  )
       134           C   tau( 134) = (   0.5498624   0.2437416   2.0898078  )
       135           H   tau( 135) = (  -0.2626989   1.0065373   3.2388491  )
       136           H   tau( 136) = (   0.5512648   0.4443125   2.1249887  )
       137           H   tau( 137) = (  -0.4393859   1.2483707   3.3705602  )
       138           H   tau( 138) = (   0.7279518   0.2024790   1.9932775  )
       139           C   tau( 139) = (  -0.2576578   1.3441357   3.0275849  )
       140           C   tau( 140) = (   0.5462237   0.1067140   2.3362528  )
       141           H   tau( 141) = (  -0.2648518   1.5445399   3.0614533  )
       142           H   tau( 142) = (   0.5534177  -0.0936901   2.3023844  )
       143           H   tau( 143) = (  -0.0758667   1.3086988   2.9368474  )
       144           H   tau( 144) = (   0.3644326   0.1421509   2.4269903  )
       145           C   tau( 145) = (   0.5332379   1.2673826   2.8578598  )
       146           C   tau( 146) = (  -0.2446720   0.1834672   2.5059779  )
       147           H   tau( 147) = (   0.5435370   1.3585168   2.6777168  )
       148           H   tau( 148) = (  -0.2549711   0.0923329   2.6861209  )
       149           H   tau( 149) = (   0.3493695   1.3127302   2.9396189  )
       150           H   tau( 150) = (  -0.0608036   0.1381195   2.4242189  )
       151           H   tau( 151) = (  -0.4647402   1.0669409   2.8246565  )
       152           H   tau( 152) = (   0.7533060   0.3839089   2.5391813  )

     number of k points=     6
                       cart. coord. in units 2pi/alat
        k(    1) = (   0.0000000   0.0000000   0.0000000), wk =   0.2500000
        k(    2) = (   0.0000000  -0.3020401  -0.0115188), wk =   0.2500000
        k(    3) = (   0.2500000   0.0386574   0.0227025), wk =   0.5000000
        k(    4) = (   0.2500000  -0.2633828   0.0111837), wk =   0.5000000
        k(    5) = (  -0.5000000  -0.0773147  -0.0454050), wk =   0.2500000
        k(    6) = (  -0.5000000  -0.3793549  -0.0569238), wk =   0.2500000

     Dense  grid:  1293329 G-vectors     FFT dimensions: (  72, 120, 360)

     Estimated max dynamical RAM per process >    1376.35MB

     Estimated total allocated dynamical RAM >   11010.79MB

     Check: negative/imaginary core charge=   -0.000002    0.000000

     Initial potential from superposition of free atoms

     starting charge  371.99669, renormalised to  372.00000
     Starting wfc are  356 randomized atomic wfcs
     Checking if some PAW data can be deallocated... 

     total cpu time spent up to now is       81.5 secs

     per-process dynamical memory:   879.6 Mb

     Self-consistent Calculation

     iteration #  1     ecut=   100.00 Ry     beta=0.50
     Davidson diagonalization with overlap
     ethr =  1.00E-02,  avg # of iterations =  4.3

     total cpu time spent up to now is      287.2 secs

     total energy              =   -1536.76269994 Ry
     Harris-Foulkes estimate   =   -1545.68862066 Ry
     estimated scf accuracy    <      16.79906988 Ry

     iteration #  2     ecut=   100.00 Ry     beta=0.50
     Davidson diagonalization with overlap
     ethr =  4.52E-03,  avg # of iterations =  3.7

     total cpu time spent up to now is      394.5 secs

     total energy              =   -1536.96566078 Ry
     Harris-Foulkes estimate   =   -1538.20550089 Ry
     estimated scf accuracy    <       2.28627281 Ry

     iteration #  3     ecut=   100.00 Ry     beta=0.50
     Davidson diagonalization with overlap
     ethr =  6.15E-04,  avg # of iterations =  5.0

     total cpu time spent up to now is      628.9 secs

     total energy              =   -1539.66313823 Ry
     Harris-Foulkes estimate   =   -1541.11312447 Ry
     estimated scf accuracy    <       4.44548379 Ry

     iteration #  4     ecut=   100.00 Ry     beta=0.50
     Davidson diagonalization with overlap
     ethr =  6.15E-04,  avg # of iterations =  1.2

     total cpu time spent up to now is      728.3 secs

     total energy              =   -1538.43685721 Ry
     Harris-Foulkes estimate   =   -1539.79057460 Ry
     estimated scf accuracy    <       1.93243819 Ry

     iteration #  5     ecut=   100.00 Ry     beta=0.50
     Davidson diagonalization with overlap
     ethr =  5.19E-04,  avg # of iterations =  5.7

     total cpu time spent up to now is      936.4 secs

     total energy              =   -1539.76033129 Ry
     Harris-Foulkes estimate   =   -1540.44396445 Ry
     estimated scf accuracy    <       2.24678429 Ry

     iteration #  6     ecut=   100.00 Ry     beta=0.50
     Davidson diagonalization with overlap
     ethr =  5.19E-04,  avg # of iterations =  1.0

     total cpu time spent up to now is     1035.3 secs

     total energy              =   -1539.22505733 Ry
     Harris-Foulkes estimate   =   -1539.80283690 Ry
     estimated scf accuracy    <       1.08315673 Ry

     iteration #  7     ecut=   100.00 Ry     beta=0.50
     Davidson diagonalization with overlap
     ethr =  2.91E-04,  avg # of iterations =  4.7

     total cpu time spent up to now is     1202.6 secs

     total energy              =   -1539.70031277 Ry
     Harris-Foulkes estimate   =   -1539.73032627 Ry
     estimated scf accuracy    <       0.10935354 Ry

     iteration #  8     ecut=   100.00 Ry     beta=0.50
     Davidson diagonalization with overlap
     ethr =  2.94E-05,  avg # of iterations =  5.3

     total cpu time spent up to now is     1315.2 secs

     total energy              =   -1539.67673475 Ry
     Harris-Foulkes estimate   =   -1539.70461146 Ry
     estimated scf accuracy    <       0.05590418 Ry

     iteration #  9     ecut=   100.00 Ry     beta=0.50
     Davidson diagonalization with overlap
     ethr =  1.50E-05,  avg # of iterations = 11.5

     total cpu time spent up to now is     1508.1 secs

     total energy              =   -1539.69838503 Ry
     Harris-Foulkes estimate   =   -1539.69916090 Ry
     estimated scf accuracy    <       0.00246968 Ry

     iteration # 10     ecut=   100.00 Ry     beta=0.50
     Davidson diagonalization with overlap
     ethr =  6.64E-07,  avg # of iterations =  8.8

     total cpu time spent up to now is     1650.9 secs

     total energy              =   -1539.69826555 Ry
     Harris-Foulkes estimate   =   -1539.69881422 Ry
     estimated scf accuracy    <       0.00086694 Ry

     iteration # 11     ecut=   100.00 Ry     beta=0.50
     Davidson diagonalization with overlap
     ethr =  2.33E-07,  avg # of iterations =  6.5

     total cpu time spent up to now is     1832.6 secs

     total energy              =   -1539.69870916 Ry
     Harris-Foulkes estimate   =   -1539.69886272 Ry
     estimated scf accuracy    <       0.00040090 Ry

     iteration # 12     ecut=   100.00 Ry     beta=0.50
     Davidson diagonalization with overlap
     ethr =  1.08E-07,  avg # of iterations =  1.3

     total cpu time spent up to now is     1932.5 secs

     total energy              =   -1539.69865233 Ry
     Harris-Foulkes estimate   =   -1539.69872295 Ry
     estimated scf accuracy    <       0.00014631 Ry

     iteration # 13     ecut=   100.00 Ry     beta=0.50
     Davidson diagonalization with overlap
     ethr =  3.93E-08,  avg # of iterations =  4.0

     total cpu time spent up to now is     2100.4 secs

     total energy              =   -1539.69874605 Ry
     Harris-Foulkes estimate   =   -1539.69874842 Ry
     estimated scf accuracy    <       0.00002857 Ry

     iteration # 14     ecut=   100.00 Ry     beta=0.50
     Davidson diagonalization with overlap
     ethr =  7.68E-09,  avg # of iterations =  2.5

     total cpu time spent up to now is     2202.6 secs

     total energy              =   -1539.69873685 Ry
     Harris-Foulkes estimate   =   -1539.69874701 Ry
     estimated scf accuracy    <       0.00002433 Ry

     iteration # 15     ecut=   100.00 Ry     beta=0.50
     Davidson diagonalization with overlap
     ethr =  6.54E-09,  avg # of iterations =  2.7

     total cpu time spent up to now is     2307.6 secs

     total energy              =   -1539.69873755 Ry
     Harris-Foulkes estimate   =   -1539.69873877 Ry
     estimated scf accuracy    <       0.00000481 Ry

     iteration # 16     ecut=   100.00 Ry     beta=0.50
     Davidson diagonalization with overlap
     ethr =  1.29E-09,  avg # of iterations =  4.0

     total cpu time spent up to now is     2487.7 secs

     total energy              =   -1539.69874000 Ry
     Harris-Foulkes estimate   =   -1539.69874016 Ry
     estimated scf accuracy    <       0.00000047 Ry

     iteration # 17     ecut=   100.00 Ry     beta=0.50
     Davidson diagonalization with overlap
     ethr =  1.27E-10,  avg # of iterations =  2.0

     total cpu time spent up to now is     2591.8 secs

     total energy              =   -1539.69873999 Ry
     Harris-Foulkes estimate   =   -1539.69874004 Ry
     estimated scf accuracy    <       0.00000013 Ry

     iteration # 18     ecut=   100.00 Ry     beta=0.50
     Davidson diagonalization with overlap
     ethr =  3.57E-11,  avg # of iterations =  4.0

     total cpu time spent up to now is     2769.0 secs

     total energy              =   -1539.69874005 Ry
     Harris-Foulkes estimate   =   -1539.69874006 Ry
     estimated scf accuracy    <       0.00000004 Ry

     iteration # 19     ecut=   100.00 Ry     beta=0.50
     Davidson diagonalization with overlap
     ethr =  9.69E-12,  avg # of iterations =  1.0

     total cpu time spent up to now is     2867.5 secs

     total energy              =   -1539.69874003 Ry
     Harris-Foulkes estimate   =   -1539.69874005 Ry
     estimated scf accuracy    <       0.00000002 Ry

     iteration # 20     ecut=   100.00 Ry     beta=0.50
     Davidson diagonalization with overlap
     ethr =  6.44E-12,  avg # of iterations =  3.8

     total cpu time spent up to now is     3024.7 secs

     End of self-consistent calculation

          k = 0.0000 0.0000 0.0000 (161745 PWs)   bands (ev):

   -22.4051 -22.4051 -22.2034 -22.2033 -20.2142 -20.2141 -20.0511 -20.0509
   -16.3126 -16.1785 -15.7254 -15.6626 -14.8456 -14.8199 -14.7665 -14.7478
   -14.4176 -14.3482 -14.3217 -14.2594 -13.9934 -13.9387 -13.5182 -13.4452
   -13.3844 -13.2828 -13.2266 -13.0551 -13.0000 -12.9662 -12.7521 -12.6865
   -12.3257 -12.2219 -11.9759 -11.8734 -11.2566 -11.1798 -10.8284 -10.7464
   -10.3129 -10.2342 -10.2238 -10.1509  -9.8467  -9.7567  -9.4041  -9.3585
    -9.2797  -9.2171  -9.0631  -8.9458  -8.7177  -8.6307  -8.5831  -8.5818
    -8.5445  -8.4831  -8.4815  -8.4627  -8.4378  -8.4096  -8.3208  -8.2375
    -7.3832  -7.3105  -6.8688  -6.8211  -6.7845  -6.7286  -6.6368  -6.6298
    -6.4732  -6.4523  -6.3980  -6.3626  -6.2585  -6.2388  -6.2211  -6.1503
    -6.1283  -6.0373  -6.0192  -5.8698  -5.8140  -5.6870  -5.6491  -5.5122
    -5.5018  -5.4826  -5.4345  -5.4071  -5.3252  -5.2712  -5.2586  -5.1846
    -5.1567  -5.0974  -5.0101  -4.9497  -4.9213  -4.8996  -4.8639  -4.8323
    -4.7943  -4.7511  -4.6861  -4.6589  -4.6476  -4.6269  -4.5329  -4.4517
    -4.3378  -4.3248  -4.1412  -4.1081  -4.0252  -3.9764  -3.9610  -3.9601
    -3.9206  -3.8721  -3.8450  -3.8126  -3.7812  -3.6412  -3.5565  -3.4563
    -3.4231  -3.4096  -3.2972  -3.2873  -3.2250  -3.2229  -3.2036  -3.1728
    -3.1181  -3.0950  -3.0826  -3.0383  -3.0085  -3.0012  -2.9711  -2.9397
    -2.8561  -2.8357  -2.8133  -2.7650  -2.7254  -2.6708  -2.6641  -2.6123
    -2.5934  -2.5067  -2.5044  -2.4580  -2.3996  -2.3918  -2.2773  -2.2769
    -2.2689  -2.2563  -2.2121  -2.1367  -2.1261  -2.0516  -2.0282  -2.0061
    -1.9254  -1.8937  -1.8662  -1.8602  -1.8207  -1.7240  -1.5874  -1.4775
    -1.3476  -1.2619  -1.1015  -1.0633  -0.9773  -0.9317  -0.9058  -0.7470
    -0.0958  -0.0513   3.4937   3.7091   3.8907   4.0408   4.2458   4.2884
     4.5427   4.6402   4.7512   4.8509   4.8773   5.1954   5.2171   5.2637
     5.2822   5.3535   5.4145   5.5656   5.6302   5.8398   6.0605   6.2020
     6.2274   6.5945   6.7306   6.7873   6.7983   6.9705   7.0172   7.1007
     7.2331   7.2596   7.3008   7.3090   7.3472   7.3657   7.4602

          k = 0.0000-0.3020-0.0115 (161632 PWs)   bands (ev):

   -22.4050 -22.4050 -22.2035 -22.2035 -20.2142 -20.2141 -20.0510 -20.0509
   -16.2673 -16.2316 -15.7203 -15.6621 -14.8375 -14.8185 -14.7689 -14.7553
   -14.4024 -14.3536 -14.3233 -14.2746 -13.9825 -13.9291 -13.5393 -13.4918
   -13.3264 -13.2663 -13.1675 -13.1366 -12.9850 -12.9623 -12.7656 -12.7206
   -12.2579 -12.2054 -11.9999 -11.9269 -11.2100 -11.1494 -10.8491 -10.8175
   -10.2703 -10.2078 -10.1813 -10.1779  -9.8567  -9.8069  -9.4001  -9.3630
    -9.2548  -9.2153  -9.0502  -8.9740  -8.6798  -8.6690  -8.5583  -8.5486
    -8.5087  -8.5043  -8.5034  -8.4751  -8.4573  -8.4291  -8.2894  -8.2687
    -7.3894  -7.3204  -6.8538  -6.8203  -6.7561  -6.7468  -6.6521  -6.6076
    -6.4954  -6.4062  -6.3414  -6.3385  -6.3112  -6.2802  -6.2135  -6.1617
    -6.1397  -6.0868  -5.9698  -5.9344  -5.7795  -5.6950  -5.6235  -5.5616
    -5.5114  -5.4531  -5.3772  -5.3398  -5.3157  -5.2573  -5.2031  -5.1884
    -5.1578  -5.0990  -5.0337  -4.9830  -4.9743  -4.9073  -4.8772  -4.8499
    -4.7855  -4.7725  -4.7031  -4.6554  -4.6524  -4.6460  -4.5478  -4.4147
    -4.3368  -4.3042  -4.1368  -4.1219  -4.0886  -4.0083  -3.9937  -3.9719
    -3.9340  -3.9251  -3.8261  -3.8164  -3.7178  -3.6870  -3.5244  -3.5075
    -3.4434  -3.4308  -3.2855  -3.2608  -3.2258  -3.1862  -3.1779  -3.1622
    -3.1217  -3.1216  -3.0643  -3.0107  -2.9748  -2.9744  -2.9249  -2.8999
    -2.8139  -2.8072  -2.7409  -2.7340  -2.7072  -2.6643  -2.6574  -2.6489
    -2.5600  -2.5385  -2.4938  -2.4622  -2.4097  -2.3679  -2.2756  -2.2628
    -2.2359  -2.2291  -2.2215  -2.1815  -2.1690  -2.1338  -2.1136  -2.0375
    -1.9306  -1.8994  -1.8745  -1.8488  -1.8342  -1.7334  -1.5513  -1.5019
    -1.3104  -1.2763  -1.0984  -1.0515  -1.0059  -0.9118  -0.8739  -0.8013
    -0.0876  -0.0628   3.5835   3.6240   3.9533   4.0233   4.2674   4.2839
     4.5248   4.6278   4.7586   4.8254   5.0029   5.2029   5.2526   5.2552
     5.2766   5.3054   5.3870   5.5002   5.6513   5.7363   5.9017   5.9541
     6.1748   6.2688   6.6062   6.6923   6.8693   6.9894   7.0547   7.1461
     7.2426   7.2631   7.3886   7.4457   7.5784   7.5983   7.6280

          k = 0.2500 0.0387 0.0227 (161679 PWs)   bands (ev):

   -22.4038 -22.4037 -22.2024 -22.2023 -20.2155 -20.2154 -20.0503 -20.0502
   -16.2617 -16.1576 -15.7163 -15.6588 -14.8162 -14.7976 -14.7500 -14.7294
   -14.3952 -14.3515 -14.3159 -14.2581 -13.9890 -13.9385 -13.5382 -13.4745
   -13.3452 -13.2986 -13.2878 -13.2158 -13.0162 -12.9674 -12.7709 -12.7246
   -12.2885 -12.2387 -11.9961 -11.9237 -11.2353 -11.1840 -10.8513 -10.8021
   -10.2952 -10.2301 -10.1756 -10.1139  -9.8595  -9.7919  -9.3486  -9.2689
    -9.2585  -9.2092  -9.0720  -8.9700  -8.7106  -8.7066  -8.6912  -8.6451
    -8.6311  -8.5827  -8.5424  -8.4796  -8.4580  -8.4011  -8.3069  -8.2221
    -7.3881  -7.3118  -6.8688  -6.8166  -6.7640  -6.6979  -6.6135  -6.5928
    -6.5369  -6.5064  -6.4715  -6.3754  -6.3581  -6.3051  -6.2335  -6.2087
    -6.1915  -6.1014  -6.0201  -5.9457  -5.7905  -5.6849  -5.6528  -5.5735
    -5.5173  -5.4849  -5.4114  -5.3354  -5.2930  -5.2725  -5.2106  -5.2005
    -5.1623  -5.0826  -5.0438  -4.9882  -4.9398  -4.8674  -4.8515  -4.8090
    -4.7921  -4.7530  -4.7029  -4.6789  -4.6540  -4.5691  -4.5016  -4.4620
    -4.3543  -4.3226  -4.1714  -4.0990  -4.0805  -4.0212  -4.0117  -3.9395
    -3.8910  -3.8359  -3.8326  -3.8203  -3.7655  -3.6911  -3.5779  -3.5030
    -3.4450  -3.4014  -3.3033  -3.2601  -3.2231  -3.2093  -3.1693  -3.1248
    -3.1229  -3.0820  -3.0654  -3.0056  -2.9896  -2.9379  -2.9155  -2.8965
    -2.8029  -2.7150  -2.7038  -2.6835  -2.6705  -2.5977  -2.5201  -2.5171
    -2.4981  -2.4458  -2.3997  -2.3737  -2.3561  -2.2809  -2.2452  -2.1820
    -2.1615  -2.1226  -2.0914  -1.9707  -1.9469  -1.9274  -1.9012  -1.8752
    -1.8617  -1.8516  -1.8439  -1.8281  -1.7783  -1.7289  -1.4946  -1.4248
    -1.1501  -1.0806  -1.0520  -1.0143  -0.9981  -0.9220  -0.7807  -0.6757
     0.0112   0.0558   3.3665   3.5425   3.8146   3.9077   4.2033   4.2970
     4.3517   4.4550   4.4791   4.5411   4.8413   4.9559   5.1484   5.2314
     5.2533   5.3878   5.5845   5.6927   5.8856   5.9621   6.1052   6.1590
     6.2301   6.3327   6.3684   6.4221   6.4963   6.5338   6.6599   6.7807
     6.8111   6.9022   6.9316   7.0099   7.0631   7.1025   7.1636

          k = 0.2500-0.2634 0.0112 (161641 PWs)   bands (ev):

   -22.4037 -22.4037 -22.2024 -22.2024 -20.2155 -20.2154 -20.0503 -20.0502
   -16.2316 -16.1914 -15.7254 -15.6468 -14.8161 -14.7931 -14.7510 -14.7323
   -14.4054 -14.3429 -14.3103 -14.2600 -14.0029 -13.9273 -13.5284 -13.4730
   -13.3690 -13.2896 -13.2755 -13.2169 -13.0375 -12.9544 -12.7672 -12.7231
   -12.3109 -12.2187 -11.9995 -11.9205 -11.2475 -11.1715 -10.8609 -10.7933
   -10.3051 -10.2246 -10.2009 -10.0814  -9.8609  -9.7932  -9.3482  -9.2747
    -9.2521  -9.2169  -9.0646  -8.9760  -8.7065  -8.6914  -8.6652  -8.6623
    -8.6401  -8.5891  -8.5377  -8.4760  -8.4719  -8.4002  -8.3044  -8.2338
    -7.3869  -7.2999  -6.8555  -6.8157  -6.7637  -6.7226  -6.5987  -6.5786
    -6.5112  -6.5010  -6.4459  -6.3881  -6.3845  -6.3345  -6.2727  -6.2401
    -6.1286  -6.1201  -5.9896  -5.9602  -5.8049  -5.6856  -5.6608  -5.5948
    -5.5019  -5.4205  -5.3853  -5.3554  -5.3125  -5.2710  -5.2561  -5.1834
    -5.1273  -5.0939  -5.0076  -4.9897  -4.9272  -4.9059  -4.8545  -4.8372
    -4.7964  -4.7726  -4.7006  -4.6748  -4.6252  -4.5972  -4.5122  -4.4307
    -4.3599  -4.3453  -4.1676  -4.1028  -4.0793  -3.9989  -3.9870  -3.9643
    -3.8991  -3.8869  -3.8309  -3.8069  -3.7429  -3.7179  -3.6259  -3.4915
    -3.4111  -3.3892  -3.3380  -3.2382  -3.2161  -3.2130  -3.2033  -3.1371
    -3.0840  -3.0693  -3.0269  -3.0029  -2.9762  -2.9526  -2.9340  -2.8948
    -2.7580  -2.7390  -2.7169  -2.6650  -2.6410  -2.5900  -2.5206  -2.5017
    -2.4241  -2.4037  -2.3908  -2.3773  -2.3485  -2.3044  -2.2640  -2.2128
    -2.1903  -2.1667  -2.1537  -1.9667  -1.9305  -1.9201  -1.9039  -1.8899
    -1.8675  -1.8505  -1.8421  -1.8312  -1.7865  -1.7316  -1.5225  -1.3846
    -1.1379  -1.0737  -1.0603  -1.0381  -0.9816  -0.9337  -0.7932  -0.6666
     0.0136   0.0512   3.4218   3.5018   3.8407   3.9395   4.1976   4.2924
     4.3550   4.4473   4.4823   4.5332   5.0732   5.1005   5.2234   5.2575
     5.3116   5.3498   5.4248   5.5823   5.6598   5.8771   5.9132   6.1238
     6.1852   6.3355   6.3989   6.4137   6.4905   6.6454   6.7278   6.7699
     6.8243   6.9415   7.0089   7.0180   7.1040   7.1923   7.2946

          k =-0.5000-0.0773-0.0454 (161674 PWs)   bands (ev):

   -22.4024 -22.4024 -22.2013 -22.2013 -20.2168 -20.2168 -20.0496 -20.0496
   -16.1936 -16.1484 -15.7089 -15.6570 -14.7890 -14.7684 -14.7332 -14.7134
   -14.3840 -14.3402 -14.3074 -14.2635 -13.9869 -13.9424 -13.5434 -13.5008
   -13.3544 -13.3419 -13.3339 -13.2836 -13.0394 -12.9945 -12.7954 -12.7551
   -12.2793 -12.2213 -12.0340 -11.9672 -11.2243 -11.1717 -10.8915 -10.8435
   -10.2810 -10.2198 -10.1614 -10.0761  -9.8627  -9.8282  -9.3119  -9.2253
    -9.2212  -9.1740  -9.0607  -8.9980  -8.7711  -8.7690  -8.7198  -8.7188
    -8.6580  -8.6471  -8.5681  -8.5553  -8.5154  -8.3920  -8.3265  -8.1933
    -7.3768  -7.3140  -6.8654  -6.8097  -6.7343  -6.6933  -6.6085  -6.6046
    -6.5525  -6.5358  -6.4777  -6.4742  -6.3707  -6.3497  -6.2684  -6.2490
    -6.1892  -6.1676  -6.0293  -6.0193  -5.7680  -5.7168  -5.6677  -5.6562
    -5.5493  -5.4575  -5.3752  -5.3558  -5.3383  -5.3042  -5.2184  -5.1889
    -5.1636  -5.0652  -4.9772  -4.9696  -4.9392  -4.9382  -4.8916  -4.8307
    -4.8015  -4.7530  -4.7529  -4.6611  -4.6017  -4.5331  -4.4729  -4.4470
    -4.3758  -4.3350  -4.2010  -4.1402  -4.0608  -4.0603  -4.0475  -3.9700
    -3.9141  -3.8234  -3.7859  -3.7551  -3.6932  -3.6752  -3.5644  -3.5106
    -3.4110  -3.3834  -3.3166  -3.2436  -3.1924  -3.1684  -3.1549  -3.1450
    -3.1062  -3.0978  -3.0238  -2.9715  -2.9678  -2.9453  -2.8744  -2.8714
    -2.8266  -2.6585  -2.5813  -2.5662  -2.5120  -2.5042  -2.4925  -2.4722
    -2.3896  -2.3895  -2.3279  -2.3048  -2.2454  -2.2348  -2.1226  -2.0421
    -2.0214  -1.9754  -1.9676  -1.9426  -1.9326  -1.9151  -1.8704  -1.8489
    -1.8377  -1.7739  -1.6513  -1.6332  -1.5954  -1.5882  -1.4330  -1.4158
    -1.1035  -1.0877  -1.0166  -0.9440  -0.7349  -0.7233  -0.6320  -0.5667
     0.1225   0.1832   3.3281   3.3290   3.6466   3.6957   4.0821   4.1146
     4.2194   4.2899   4.3308   4.3315   5.0056   5.1201   5.1683   5.2195
     5.2331   5.2951   5.5648   5.6124   5.6637   5.6976   5.8143   5.8282
     5.9936   6.0912   6.2624   6.3008   6.3022   6.3037   6.3748   6.4050
     6.4606   6.6235   6.6745   6.8139   6.8520   6.9242   7.0589

          k =-0.5000-0.3794-0.0569 (161582 PWs)   bands (ev):

   -22.4024 -22.4024 -22.2013 -22.2013 -20.2168 -20.2168 -20.0496 -20.0496
   -16.1933 -16.1461 -15.7341 -15.6335 -14.7924 -14.7687 -14.7338 -14.7079
   -14.3956 -14.3463 -14.3064 -14.2389 -14.0067 -13.9409 -13.5309 -13.4582
   -13.3816 -13.3666 -13.3170 -13.3070 -13.0578 -12.9810 -12.7821 -12.7212
   -12.3233 -12.2676 -11.9989 -11.9172 -11.2652 -11.2123 -10.8527 -10.7887
   -10.3270 -10.2481 -10.1975 -10.0431  -9.8530  -9.7856  -9.3233  -9.2568
    -9.2010  -9.1571  -9.0917  -8.9841  -8.7791  -8.7729  -8.7173  -8.7076
    -8.6474  -8.6307  -8.6031  -8.5330  -8.5235  -8.3691  -8.3335  -8.2098
    -7.3757  -7.2641  -6.8607  -6.8052  -6.7559  -6.7336  -6.6068  -6.5510
    -6.5450  -6.5197  -6.5185  -6.4401  -6.3850  -6.3749  -6.3058  -6.2907
    -6.1581  -6.0832  -6.0632  -5.9989  -5.7952  -5.7112  -5.6704  -5.5879
    -5.5831  -5.4652  -5.4561  -5.3668  -5.3283  -5.3078  -5.2269  -5.2242
    -5.1556  -5.1411  -5.0270  -5.0037  -4.9318  -4.9316  -4.7946  -4.7645
    -4.7568  -4.7324  -4.7118  -4.6925  -4.6715  -4.5255  -4.4953  -4.4201
    -4.3595  -4.3024  -4.1843  -4.1117  -4.0726  -4.0379  -3.9749  -3.9629
    -3.9398  -3.8226  -3.7956  -3.7723  -3.7557  -3.6894  -3.5450  -3.5069
    -3.3915  -3.3727  -3.3068  -3.2702  -3.2118  -3.2036  -3.1529  -3.1525
    -3.1011  -3.0772  -3.0749  -3.0271  -2.9471  -2.9276  -2.9099  -2.8835
    -2.7130  -2.6554  -2.6463  -2.5704  -2.5228  -2.4975  -2.4534  -2.4184
    -2.4170  -2.4158  -2.3664  -2.3577  -2.2206  -2.2004  -2.1398  -2.0602
    -2.0097  -1.9731  -1.9725  -1.9418  -1.9153  -1.9076  -1.8645  -1.8461
    -1.8289  -1.7559  -1.6471  -1.6446  -1.5977  -1.5845  -1.5050  -1.3376
    -1.1131  -1.0960  -1.0137  -0.9543  -0.7161  -0.7160  -0.6867  -0.5607
     0.1235   0.1858   3.2965   3.3912   3.6039   3.7375   4.0555   4.1732
     4.1980   4.2808   4.3243   4.3323   5.0253   5.2596   5.2921   5.3081
     5.4160   5.4764   5.5230   5.6250   5.6485   5.8527   5.8678   5.8710
     5.9535   6.0444   6.1103   6.1402   6.2910   6.3008   6.3909   6.5304
     6.5969   6.6237   6.6857   6.7313   6.7856   6.8771   7.1457

     highest occupied, lowest unoccupied level (ev):     0.1858    3.2965

!    total energy              =   -1539.69874004 Ry
     Harris-Foulkes estimate   =   -1539.69874004 Ry
     estimated scf accuracy    <          7.0E-09 Ry

     total all-electron energy =     -5876.319601 Ry

     The total energy is the sum of the following terms:

     one-electron contribution =   -1754.86568491 Ry
     hartree contribution      =    1003.18348536 Ry
     xc contribution           =    -367.86870874 Ry
     ewald contribution        =      55.70342062 Ry
     Dispersion Correction     =      -0.61112035 Ry
     one-center paw contrib.   =    -475.24013203 Ry

     convergence has been achieved in  20 iterations

     Forces acting on atoms (cartesian axes, Ry/au):

     atom    1 type  4   force =     0.00032706   -0.00147195    0.00404239
     atom    2 type  4   force =    -0.00032706    0.00147195   -0.00404239
     atom    3 type  4   force =     0.00424113   -0.00578339    0.00145308
     atom    4 type  4   force =    -0.00424113    0.00578339   -0.00145308
     atom    5 type  1   force =     0.00535266    0.00531593    0.00239347
     atom    6 type  1   force =    -0.00535266   -0.00531593   -0.00239347
     atom    7 type  1   force =    -0.00447861   -0.00382890   -0.00539743
     atom    8 type  1   force =     0.00447861    0.00382890    0.00539743
     atom    9 type  3   force =     0.00149017    0.00093661   -0.00009462
     atom   10 type  3   force =    -0.00149017   -0.00093661    0.00009462
     atom   11 type  1   force =     0.01642897    0.00268460   -0.00301699
     atom   12 type  1   force =    -0.01642897   -0.00268460    0.00301699
     atom   13 type  3   force =    -0.00328974    0.00330324    0.00310128
     atom   14 type  3   force =     0.00328974   -0.00330324   -0.00310128
     atom   15 type  1   force =    -0.00565631   -0.00866995    0.00583856
     atom   16 type  1   force =     0.00565631    0.00866995   -0.00583856
     atom   17 type  1   force =     0.00176953    0.00036711    0.01583814
     atom   18 type  1   force =    -0.00176953   -0.00036711   -0.01583814
     atom   19 type  3   force =     0.00041844    0.00049525   -0.00029935
     atom   20 type  3   force =    -0.00041844   -0.00049525    0.00029935
     atom   21 type  1   force =    -0.01747054    0.00325285   -0.00488837
     atom   22 type  1   force =     0.01747054   -0.00325285    0.00488837
     atom   23 type  3   force =     0.00325680   -0.00278054   -0.00342594
     atom   24 type  3   force =    -0.00325680    0.00278054    0.00342594
     atom   25 type  1   force =    -0.00571819    0.00875603   -0.00579632
     atom   26 type  1   force =     0.00571819   -0.00875603    0.00579632
     atom   27 type  1   force =     0.01243447    0.00138965    0.00155491
     atom   28 type  1   force =    -0.01243447   -0.00138965   -0.00155491
     atom   29 type  3   force =    -0.00238585   -0.00130319    0.00101428
     atom   30 type  3   force =     0.00238585    0.00130319   -0.00101428
     atom   31 type  3   force =    -0.00817506   -0.00206084    0.00016472
     atom   32 type  3   force =     0.00817506    0.00206084   -0.00016472
     atom   33 type  1   force =    -0.01864064   -0.00627082    0.00233339
     atom   34 type  1   force =     0.01864064    0.00627082   -0.00233339
     atom   35 type  3   force =     0.01621934    0.00616247   -0.00506115
     atom   36 type  3   force =    -0.01621934   -0.00616247    0.00506115
     atom   37 type  3   force =     0.00041897    0.00096939    0.00035861
     atom   38 type  3   force =    -0.00041897   -0.00096939   -0.00035861
     atom   39 type  1   force =     0.01978251    0.00694272   -0.00156060
     atom   40 type  1   force =    -0.01978251   -0.00694272    0.00156060
     atom   41 type  3   force =    -0.00085048   -0.00087858    0.00064805
     atom   42 type  3   force =     0.00085048    0.00087858   -0.00064805
     atom   43 type  3   force =    -0.01661708   -0.00574712    0.00522308
     atom   44 type  3   force =     0.01661708    0.00574712   -0.00522308
     atom   45 type  1   force =    -0.02031976   -0.00568337    0.00237842
     atom   46 type  1   force =     0.02031976    0.00568337   -0.00237842
     atom   47 type  3   force =     0.01562209    0.00603445   -0.00423286
     atom   48 type  3   force =    -0.01562209   -0.00603445    0.00423286
     atom   49 type  3   force =     0.00028246    0.00063231    0.00025574
     atom   50 type  3   force =    -0.00028246   -0.00063231   -0.00025574
     atom   51 type  1   force =     0.02148100    0.00540907   -0.00308310
     atom   52 type  1   force =    -0.02148100   -0.00540907    0.00308310
     atom   53 type  3   force =    -0.00035841   -0.00161877   -0.00008935
     atom   54 type  3   force =     0.00035841    0.00161877    0.00008935
     atom   55 type  3   force =    -0.01512850   -0.00589260    0.00545889
     atom   56 type  3   force =     0.01512850    0.00589260   -0.00545889
     atom   57 type  1   force =    -0.02073564   -0.00655524    0.00310828
     atom   58 type  1   force =     0.02073564    0.00655524   -0.00310828
     atom   59 type  3   force =     0.01646188    0.00551646   -0.00565082
     atom   60 type  3   force =    -0.01646188   -0.00551646    0.00565082
     atom   61 type  3   force =     0.00065735    0.00162215    0.00016644
     atom   62 type  3   force =    -0.00065735   -0.00162215   -0.00016644
     atom   63 type  1   force =     0.01760231    0.00563533   -0.00669083
     atom   64 type  1   force =    -0.01760231   -0.00563533    0.00669083
     atom   65 type  3   force =    -0.00075315   -0.00169947    0.00054777
     atom   66 type  3   force =     0.00075315    0.00169947   -0.00054777
     atom   67 type  3   force =    -0.01579557   -0.00538475    0.00517485
     atom   68 type  3   force =     0.01579557    0.00538475   -0.00517485
     atom   69 type  1   force =    -0.00030525   -0.00052487   -0.00283781
     atom   70 type  1   force =     0.00030525    0.00052487    0.00283781
     atom   71 type  3   force =     0.00082915   -0.00121390    0.00016953
     atom   72 type  3   force =    -0.00082915    0.00121390   -0.00016953
     atom   73 type  3   force =    -0.00065508   -0.00084413    0.00022400
     atom   74 type  3   force =     0.00065508    0.00084413   -0.00022400
     atom   75 type  3   force =     0.00040647    0.00163656   -0.00095138
     atom   76 type  3   force =    -0.00040647   -0.00163656    0.00095138
     atom   77 type  4   force =     0.00135993    0.00066307   -0.00237827
     atom   78 type  4   force =    -0.00135993   -0.00066307    0.00237827
     atom   79 type  4   force =     0.00002397    0.00047034   -0.00096358
     atom   80 type  4   force =    -0.00002397   -0.00047034    0.00096358
     atom   81 type  1   force =    -0.00182344    0.00247918    0.00521532
     atom   82 type  1   force =     0.00182344   -0.00247918   -0.00521532
     atom   83 type  1   force =     0.01709177   -0.00152965    0.00548968
     atom   84 type  1   force =    -0.01709177    0.00152965   -0.00548968
     atom   85 type  3   force =    -0.00372064   -0.00359887   -0.00085690
     atom   86 type  3   force =     0.00372064    0.00359887    0.00085690
     atom   87 type  1   force =    -0.00387609    0.01296018   -0.00879143
     atom   88 type  1   force =     0.00387609   -0.01296018    0.00879143
     atom   89 type  3   force =    -0.00038120   -0.00041912   -0.00001608
     atom   90 type  3   force =     0.00038120    0.00041912    0.00001608
     atom   91 type  1   force =     0.00611538   -0.00156983   -0.01150488
     atom   92 type  1   force =    -0.00611538    0.00156983    0.01150488
     atom   93 type  1   force =    -0.01741761   -0.00139313    0.00420368
     atom   94 type  1   force =     0.01741761    0.00139313   -0.00420368
     atom   95 type  3   force =     0.00325787    0.00454879    0.00038432
     atom   96 type  3   force =    -0.00325787   -0.00454879   -0.00038432
     atom   97 type  1   force =     0.00557290   -0.00587806    0.00091874
     atom   98 type  1   force =    -0.00557290    0.00587806   -0.00091874
     atom   99 type  3   force =    -0.00174258   -0.00005001    0.00275272
     atom  100 type  3   force =     0.00174258    0.00005001   -0.00275272
     atom  101 type  1   force =    -0.00229033    0.00212790   -0.00185088
     atom  102 type  1   force =     0.00229033   -0.00212790    0.00185088
     atom  103 type  1   force =     0.01772052   -0.00087101   -0.00506590
     atom  104 type  1   force =    -0.01772052    0.00087101    0.00506590
     atom  105 type  3   force =    -0.01541996    0.00274064    0.00643206
     atom  106 type  3   force =     0.01541996   -0.00274064   -0.00643206
     atom  107 type  3   force =    -0.00061811   -0.00098366    0.00064959
     atom  108 type  3   force =     0.00061811    0.00098366   -0.00064959
     atom  109 type  1   force =    -0.02074969    0.00301223    0.00318211
     atom  110 type  1   force =     0.02074969   -0.00301223   -0.00318211
     atom  111 type  3   force =     0.01554664   -0.00427178   -0.00713864
     atom  112 type  3   force =    -0.01554664    0.00427178    0.00713864
     atom  113 type  3   force =     0.00077925   -0.00036620    0.00013709
     atom  114 type  3   force =    -0.00077925    0.00036620   -0.00013709
     atom  115 type  1   force =     0.02253076   -0.00324237   -0.00367116
     atom  116 type  1   force =    -0.02253076    0.00324237    0.00367116
     atom  117 type  3   force =    -0.00113534    0.00079114    0.00056028
     atom  118 type  3   force =     0.00113534   -0.00079114   -0.00056028
     atom  119 type  3   force =    -0.01654964    0.00359738    0.00628122
     atom  120 type  3   force =     0.01654964   -0.00359738   -0.00628122
     atom  121 type  1   force =    -0.02146669    0.00376944    0.00333786
     atom  122 type  1   force =     0.02146669   -0.00376944   -0.00333786
     atom  123 type  3   force =     0.01633689   -0.00392267   -0.00717267
     atom  124 type  3   force =    -0.01633689    0.00392267    0.00717267
     atom  125 type  3   force =    -0.00032977   -0.00054145   -0.00058100
     atom  126 type  3   force =     0.00032977    0.00054145    0.00058100
     atom  127 type  1   force =     0.02091051   -0.00419713   -0.00323777
     atom  128 type  1   force =    -0.02091051    0.00419713    0.00323777
     atom  129 type  3   force =    -0.01680132    0.00424773    0.00748966
     atom  130 type  3   force =     0.01680132   -0.00424773   -0.00748966
     atom  131 type  3   force =    -0.00085151    0.00059105   -0.00000609
     atom  132 type  3   force =     0.00085151   -0.00059105    0.00000609
     atom  133 type  1   force =    -0.02096801    0.00399531    0.00438528
     atom  134 type  1   force =     0.02096801   -0.00399531   -0.00438528
     atom  135 type  3   force =     0.00027509    0.00014777   -0.00032118
     atom  136 type  3   force =    -0.00027509   -0.00014777    0.00032118
     atom  137 type  3   force =     0.01651662   -0.00401593   -0.00696941
     atom  138 type  3   force =    -0.01651662    0.00401593    0.00696941
     atom  139 type  1   force =     0.02151100   -0.00242789   -0.00142699
     atom  140 type  1   force =    -0.02151100    0.00242789    0.00142699
     atom  141 type  3   force =    -0.00050870    0.00023996    0.00060850
     atom  142 type  3   force =     0.00050870   -0.00023996   -0.00060850
     atom  143 type  3   force =    -0.01838303    0.00372678    0.00809512
     atom  144 type  3   force =     0.01838303   -0.00372678   -0.00809512
     atom  145 type  1   force =    -0.02144411   -0.00080087    0.00548227
     atom  146 type  1   force =     0.02144411    0.00080087   -0.00548227
     atom  147 type  3   force =     0.00036680   -0.00070368   -0.00164999
     atom  148 type  3   force =    -0.00036680    0.00070368    0.00164999
     atom  149 type  3   force =     0.01858754   -0.00392143   -0.00663171
     atom  150 type  3   force =    -0.01858754    0.00392143    0.00663171
     atom  151 type  3   force =     0.00083462    0.00320759    0.00247004
     atom  152 type  3   force =    -0.00083462   -0.00320759   -0.00247004

     Total force =     0.167508     Total SCF correction =     0.000153


     Computing stress (Cartesian axis) and pressure

          total   stress  (Ry/bohr**3)                   (kbar)     P=   -8.89
  -0.00011162  -0.00001481   0.00005256        -16.42     -2.18      7.73
  -0.00001481  -0.00004981   0.00000119         -2.18     -7.33      0.18
   0.00005256   0.00000119  -0.00001989          7.73      0.18     -2.93


     Writing output data file scf.save
 
     init_run     :     77.59s CPU     80.81s WALL (       1 calls)
     electrons    :   2812.58s CPU   2943.46s WALL (       1 calls)
     forces       :     37.58s CPU     38.01s WALL (       1 calls)
     stress       :    232.65s CPU    233.18s WALL (       1 calls)

     Called by init_run:
     wfcinit      :     58.33s CPU     61.30s WALL (       1 calls)
     potinit      :      6.64s CPU      6.72s WALL (       1 calls)

     Called by electrons:
     c_bands      :   2488.92s CPU   2599.06s WALL (      20 calls)
     sum_band     :    295.29s CPU    312.62s WALL (      20 calls)
     v_of_rho     :      4.81s CPU      5.26s WALL (      21 calls)
     newd         :     11.91s CPU     14.71s WALL (      21 calls)
     PAW_pot      :     10.08s CPU     10.10s WALL (      21 calls)
     mix_rho      :      1.27s CPU      1.44s WALL (      20 calls)

     Called by c_bands:
     init_us_2    :     17.38s CPU     17.45s WALL (     258 calls)
     cegterg      :   2425.24s CPU   2535.27s WALL (     120 calls)

     Called by sum_band:
     sum_band:bec :      0.12s CPU      0.12s WALL (     120 calls)
     addusdens    :     12.67s CPU     15.37s WALL (      20 calls)

     Called by *egterg:
     h_psi        :   1447.52s CPU   1537.77s WALL (     624 calls)
     s_psi        :    265.20s CPU    265.24s WALL (     624 calls)
     g_psi        :      8.33s CPU      8.33s WALL (     498 calls)
     cdiaghg      :    120.18s CPU    120.24s WALL (     618 calls)

     Called by h_psi:
     h_psi:pot    :   1437.95s CPU   1528.05s WALL (     624 calls)
     h_psi:calbec :    255.15s CPU    255.58s WALL (     624 calls)
     vloc_psi     :    917.71s CPU   1007.34s WALL (     624 calls)
     add_vuspsi   :    265.08s CPU    265.13s WALL (     624 calls)

     General routines
     calbec       :    363.04s CPU    363.66s WALL (     774 calls)
     fft          :      4.53s CPU      5.25s WALL (     297 calls)
     fftw         :   1008.38s CPU   1111.91s WALL (  181610 calls)
 
     Parallel routines
     fft_scatter  :    274.13s CPU    378.04s WALL (  181907 calls)
 
     PWSCF        : 52m55.21s CPU    55m47.14s WALL

 
   This run was terminated on:  14:59:41   4Nov2017            

=------------------------------------------------------------------------------=
   JOB DONE.
=------------------------------------------------------------------------------=
