
     Program PWSCF v.6.1 (svn rev. 13369) starts on 21Dec2017 at  5:10: 5 

     This program is part of the open-source Quantum ESPRESSO suite
     for quantum simulation of materials; please cite
         "P. Giannozzi et al., J. Phys.:Condens. Matter 21 395502 (2009);
          URL http://www.quantum-espresso.org", 
     in publications or presentations arising from this work. More details at
     http://www.quantum-espresso.org/quote

     Parallel version (MPI), running on     8 processors
     R & G space division:  proc/nbgrp/npool/nimage =       8
     Waiting for input...
     Reading input from standard input

     Current dimensions of program PWSCF are:
     Max number of different atomic species (ntypx) = 10
     Max number of k-points (npk) =  40000
     Max angular momentum in pseudopotentials (lmaxx) =  3
               file C.pbe-n-kjpaw_psl.0.1.UPF: wavefunction(s)  2P renormalized
               file N.pbe-n-kjpaw_psl.0.1.UPF: wavefunction(s)  2P renormalized
               file H.pbe-kjpaw_psl.0.1.UPF: wavefunction(s)  1S renormalized
               file O.pbe-n-kjpaw_psl.0.1.UPF: wavefunction(s)  2P renormalized

     -------------------------------------
     Parameters for Dispersion Correction:
     -------------------------------------
       atom      VdW radius       C_6     

        C          2.744         60.710
        N          2.640         42.670
        H          1.892          4.857
        O          2.536         24.284

     Subspace diagonalization in iterative solution of the eigenvalue problem:
     a serial algorithm will be used

 
     Parallelization info
     --------------------
     sticks:   dense  smooth     PW     G-vecs:    dense   smooth      PW
     Min         639     639    167               120643   120643   16159
     Max         640     640    168               120648   120648   16166
     Sum        5117    5117   1343               965175   965175  129303
 


     bravais-lattice index     =            0
     lattice parameter (alat)  =      11.9015  a.u.
     unit-cell volume          =    7145.6617 (a.u.)^3
     number of atoms/cell      =          124
     number of atomic types    =            4
     number of electrons       =       336.00
     number of Kohn-Sham states=          201
     kinetic-energy cutoff     =     100.0000  Ry
     charge density cutoff     =     400.0000  Ry
     convergence threshold     =      1.0E-08
     mixing beta               =       0.5000
     number of iterations used =            8  plain     mixing
     Exchange-correlation      =  SLA  PW   PBX  PBC ( 1  4  3  4 0 0)

     celldm(1)=  11.901495  celldm(2)=   0.000000  celldm(3)=   0.000000
     celldm(4)=   0.000000  celldm(5)=   0.000000  celldm(6)=   0.000000

     crystal axes: (cart. coord. in units of alat)
               a(1) = (   1.000000   0.000000   0.000000 )  
               a(2) = (   0.000000   1.135599   0.000000 )  
               a(3) = (   0.000000   0.000000   3.732614 )  

     reciprocal axes: (cart. coord. in units 2 pi/alat)
               b(1) = (  1.000000  0.000000  0.000000 )  
               b(2) = (  0.000000  0.880593  0.000000 )  
               b(3) = (  0.000000  0.000000  0.267909 )  


     PseudoPot. # 1 for  C read from file:
     /scratch/ahofstet/pseudo/C.pbe-n-kjpaw_psl.0.1.UPF
     MD5 check sum: 430fe95172b1e11ef3f8ed03bac87931
     Pseudo is Projector augmented-wave + core cor, Zval =  4.0
     Generated using "atomic" code by A. Dal Corso  v.5.0.99 svn rev. 10869
     Shape of augmentation charge: BESSEL
     Using radial grid of 1073 points,  4 beta functions with: 
                l(1) =   0
                l(2) =   0
                l(3) =   1
                l(4) =   1
     Q(r) pseudized with 0 coefficients 


     PseudoPot. # 2 for  N read from file:
     /scratch/ahofstet/pseudo/N.pbe-n-kjpaw_psl.0.1.UPF
     MD5 check sum: f73187c8b701007e77325f868c9291d7
     Pseudo is Projector augmented-wave + core cor, Zval =  5.0
     Generated using "atomic" code by A. Dal Corso  v.5.0.99 svn rev. 10869
     Shape of augmentation charge: PSQ
     Using radial grid of 1085 points,  4 beta functions with: 
                l(1) =   0
                l(2) =   0
                l(3) =   1
                l(4) =   1
     Q(r) pseudized with 0 coefficients 


     PseudoPot. # 3 for  H read from file:
     /scratch/ahofstet/pseudo/H.pbe-kjpaw_psl.0.1.UPF
     MD5 check sum: 94e484f906d9e9773b2f6e52662335b2
     Pseudo is Projector augmented-wave, Zval =  1.0
     Generated using "atomic" code by A. Dal Corso  v.5.0.99 svn rev. 10869
     Shape of augmentation charge: PSQ
     Using radial grid of  929 points,  2 beta functions with: 
                l(1) =   0
                l(2) =   0
     Q(r) pseudized with 0 coefficients 


     PseudoPot. # 4 for  O read from file:
     /scratch/ahofstet/pseudo/O.pbe-n-kjpaw_psl.0.1.UPF
     MD5 check sum: 3f94a2996a3169367d6eb21d9b593f20
     Pseudo is Projector augmented-wave + core cor, Zval =  6.0
     Generated using "atomic" code by A. Dal Corso  v.5.0.99 svn rev. 10869
     Shape of augmentation charge: BESSEL
     Using radial grid of 1095 points,  4 beta functions with: 
                l(1) =   0
                l(2) =   0
                l(3) =   1
                l(4) =   1
     Q(r) pseudized with 0 coefficients 


     atomic species   valence    mass     pseudopotential
        C              4.00    12.01070      C( 1.00)
        N              5.00    14.00670      N( 1.00)
        H              1.00     1.00794      H( 1.00)
        O              6.00    15.99940      O( 1.00)

     No symmetry found
          (note:  1 additional sym.ops. were found but ignored
           their fractional translations are incommensurate with FFT grid)


   Cartesian axes

     site n.     atom                  positions (alat units)
         1           O   tau(   1) = (   0.7060315   0.7890617   0.2610792  )
         2           O   tau(   2) = (   0.7941880   0.3466357   2.1272871  )
         3           O   tau(   3) = (   0.2060315   0.9143362   3.4715343  )
         4           O   tau(   4) = (   0.2941880   0.2211636   1.6053265  )
         5           O   tau(   5) = (   0.6452613   0.9847395   0.5705399  )
         6           O   tau(   6) = (   0.8547674   0.1508955   2.4367579  )
         7           O   tau(   7) = (   0.1452613   0.7186584   3.1620737  )
         8           O   tau(   8) = (   0.3547674   0.4169038   1.2958556  )
         9           O   tau(   9) = (   0.6187250   0.6262875   0.5616251  )
        10           O   tau(  10) = (   0.8812809   0.5093592   2.4279170  )
        11           O   tau(  11) = (   0.1187250   1.0771104   3.1709884  )
        12           O   tau(  12) = (   0.3812809   0.0584401   1.3046966  )
        13           O   tau(  13) = (   0.3685666   0.8298806   0.3762769  )
        14           O   tau(  14) = (   0.1315786   0.3058170   2.2427089  )
        15           O   tau(  15) = (   0.8685666   0.8735173   3.3563366  )
        16           O   tau(  16) = (   0.6315786   0.2619823   1.4899046  )
        17           C   tau(  17) = (   0.5826207   0.8091762   0.4425134  )
        18           C   tau(  18) = (   0.9174712   0.3264904   2.3088036  )
        19           C   tau(  19) = (   0.0826207   0.8942217   3.2901001  )
        20           C   tau(  20) = (   0.4174712   0.2413089   1.4238099  )
        21           C   tau(  21) = (   0.6847666   0.9766221   0.1251232  )
        22           C   tau(  22) = (   0.8154620   0.1590654   1.9913533  )
        23           C   tau(  23) = (   0.1847666   0.7267758   3.6074903  )
        24           C   tau(  24) = (   0.3154620   0.4087339   1.7412603  )
        25           H   tau(  25) = (   0.5207820   0.9856155   0.0661012  )
        26           H   tau(  26) = (   0.9794681   0.1500074   1.9324044  )
        27           H   tau(  27) = (   0.0207820   0.7177824   3.6665124  )
        28           H   tau(  28) = (   0.4794681   0.4177919   1.8002091  )
        29           H   tau(  29) = (   0.7916374   0.9504239   3.7232830  )
        30           H   tau(  30) = (   0.7086605   0.1852969   1.8568454  )
        31           H   tau(  31) = (   0.2916374   0.7529740   0.0093305  )
        32           H   tau(  32) = (   0.2086605   0.3825024   1.8757681  )
        33           C   tau(  33) = (   0.7445568   0.0363979   0.2488112  )
        34           C   tau(  34) = (   0.7555649   1.0992999   2.1149972  )
        35           C   tau(  35) = (   0.2445568   0.5314014   3.4838023  )
        36           C   tau(  36) = (   0.2555649   0.6040980   1.6176164  )
        37           C   tau(  37) = (   0.6280788   0.0498668   0.4582002  )
        38           C   tau(  38) = (   0.8720425   1.0857930   2.3243911  )
        39           C   tau(  39) = (   0.1280788   0.5179325   3.2744134  )
        40           C   tau(  40) = (   0.3720425   0.6176049   1.4082224  )
        41           H   tau(  41) = (   0.6987247   0.1701365   0.5631584  )
        42           H   tau(  42) = (   0.8014586   0.9654753   2.4293213  )
        43           H   tau(  43) = (   0.1987247   0.3976628   3.1694551  )
        44           H   tau(  44) = (   0.3014586   0.7379226   1.3032923  )
        45           H   tau(  45) = (   0.4589824   0.0875093   0.4342022  )
        46           H   tau(  46) = (   0.0411622   1.0482337   2.3003673  )
        47           H   tau(  47) = (   0.9589824   0.4802900   3.2984113  )
        48           H   tau(  48) = (   0.5411622   0.6551642   1.4322462  )
        49           C   tau(  49) = (   0.7977949   0.2371341   0.1312697  )
        50           C   tau(  50) = (   0.7022241   0.8986365   1.9973728  )
        51           C   tau(  51) = (   0.2977949   0.3306652   3.6013438  )
        52           C   tau(  52) = (   0.2022241   0.8047614   1.7352407  )
        53           H   tau(  53) = (   0.7491031   0.3875174   0.2039602  )
        54           H   tau(  54) = (   0.7508526   0.7481939   2.0699978  )
        55           H   tau(  55) = (   0.2491031   0.1802819   3.5286533  )
        56           H   tau(  56) = (   0.2508526   0.9552040   1.6626157  )
        57           H   tau(  57) = (   0.7878179   0.2339052   3.6910047  )
        58           H   tau(  58) = (   0.7121511   0.9019317   1.8245010  )
        59           H   tau(  59) = (   0.2878179   0.3338941   0.0416088  )
        60           H   tau(  60) = (   0.2121511   0.8014662   1.9081125  )
        61           C   tau(  61) = (   0.9719079   0.1084643   0.2351523  )
        62           C   tau(  62) = (   0.5281774   1.0273183   2.1013478  )
        63           C   tau(  63) = (   0.4719079   0.4593350   3.4974612  )
        64           C   tau(  64) = (   0.0281774   0.6760796   1.6312658  )
        65           H   tau(  65) = (   0.0768613   1.1542757   0.1307831  )
        66           H   tau(  66) = (   0.4232042  -0.0184145   1.9970421  )
        67           H   tau(  67) = (   0.5768613   0.5491222   3.6018305  )
        68           H   tau(  68) = (   0.9232042   0.5862138   1.7355715  )
        69           H   tau(  69) = (   0.0472048   0.1724393   0.3771938  )
        70           H   tau(  70) = (   0.4529114   0.9633009   2.2433806  )
        71           H   tau(  71) = (   0.5472048   0.3953600   3.3554197  )
        72           H   tau(  72) = (   0.9529114   0.7400970   1.4892329  )
        73           C   tau(  73) = (   0.4828275   0.6145046   0.7472438  )
        74           C   tau(  74) = (   0.0170021   0.5210245   2.6136745  )
        75           C   tau(  75) = (   0.9828275   1.0888933   2.9853697  )
        76           C   tau(  76) = (   0.5170021   0.0467748   1.1189390  )
        77           H   tau(  77) = (   0.5377122   0.7348287   0.8625287  )
        78           H   tau(  78) = (   0.9620013   0.4006159   2.7288039  )
        79           H   tau(  79) = (   0.0377122   0.9685692   2.8700848  )
        80           H   tau(  80) = (   0.4620013   0.1671834   1.0038096  )
        81           H   tau(  81) = (   0.5110515   0.4567358   0.8154000  )
        82           H   tau(  82) = (   0.9887044   0.6787481   2.6819271  )
        83           H   tau(  83) = (   0.0110515   0.1110635   2.9172135  )
        84           H   tau(  84) = (   0.4887044   1.0246498   1.0506864  )
        85           C   tau(  85) = (   0.2529639   0.6473623   0.6908909  )
        86           C   tau(  86) = (   0.2469142   0.4881921   2.5575041  )
        87           C   tau(  87) = (   0.7529639   1.0560356   3.0417226  )
        88           C   tau(  88) = (   0.7469142   0.0796072   1.1751094  )
        89           C   tau(  89) = (   0.2220970   0.8386318   0.5508501  )
        90           C   tau(  90) = (   0.2778645   0.2969638   2.4174184  )
        91           C   tau(  91) = (   0.7220970   0.8647661   3.1817634  )
        92           C   tau(  92) = (   0.7778645   0.2708355   1.3151951  )
        93           H   tau(  93) = (   0.0626365   0.8429491   0.4797123  )
        94           H   tau(  94) = (   0.4374134   0.2925745   2.3464790  )
        95           H   tau(  95) = (   0.5626365   0.8604488   3.2529013  )
        96           H   tau(  96) = (   0.9374134   0.2752248   1.3861345  )
        97           H   tau(  97) = (   0.2500052   0.9851313   0.6423136  )
        98           H   tau(  98) = (   0.2497670   0.1504603   2.5088201  )
        99           H   tau(  99) = (   0.7500052   0.7182666   3.0903000  )
       100           H   tau( 100) = (   0.7497670   0.4173390   1.2237934  )
       101           C   tau( 101) = (   0.0833302   0.6005320   0.8536268  )
       102           C   tau( 102) = (   0.4164346   0.5349312   2.7203819  )
       103           C   tau( 103) = (   0.5833302   1.1028659   2.8789867  )
       104           C   tau( 104) = (   0.9164346   0.0328681   1.0122317  )
       105           H   tau( 105) = (   0.9474995   0.7082668   0.8550925  )
       106           H   tau( 106) = (   0.5522361   0.4271408   2.7218898  )
       107           H   tau( 107) = (   0.4474995   0.9951311   2.8775211  )
       108           H   tau( 108) = (   0.0522361   0.1406585   1.0107237  )
       109           H   tau( 109) = (   0.1332640   0.5384368   1.0075927  )
       110           H   tau( 110) = (   0.3664292   0.5969407   2.8743390  )
       111           H   tau( 111) = (   0.6332640   0.0293625   2.7250209  )
       112           H   tau( 112) = (   0.8664292   1.1064572   0.8582745  )
       113           C   tau( 113) = (   0.1081763   0.4599465   0.6614439  )
       114           C   tau( 114) = (   0.3917417   0.6756152   2.5282470  )
       115           C   tau( 115) = (   0.6081763   0.1078528   3.0711697  )
       116           C   tau( 116) = (   0.8917417   1.0277827   1.2043665  )
       117           H   tau( 117) = (   0.1731980   0.3018685   0.6862324  )
       118           H   tau( 118) = (   0.3266904   0.8336840   2.5530600  )
       119           H   tau( 119) = (   0.6731980   0.2659308   3.0463811  )
       120           H   tau( 120) = (   0.8266904   0.8697139   1.1795535  )
       121           H   tau( 121) = (  -0.0128847   0.4742557   0.5386915  )
       122           H   tau( 122) = (   0.5128744   0.6613705   2.4055618  )
       123           H   tau( 123) = (   0.4871153   0.0935436   3.1939220  )
       124           H   tau( 124) = (   1.0128744   1.0420274   1.3270517  )

     number of k points=     5
                       cart. coord. in units 2pi/alat
        k(    1) = (   0.0000000   0.0000000   0.0000000), wk =   0.2222222
        k(    2) = (   0.0000000   0.2935309   0.0000000), wk =   0.4444444
        k(    3) = (   0.3333333   0.0000000   0.0000000), wk =   0.4444444
        k(    4) = (   0.3333333   0.2935309   0.0000000), wk =   0.4444444
        k(    5) = (   0.3333333  -0.2935309   0.0000000), wk =   0.4444444

     Dense  grid:   965175 G-vectors     FFT dimensions: (  75,  90, 288)

     Estimated max dynamical RAM per process >     879.69MB

     Estimated total allocated dynamical RAM >    7037.54MB

     Check: negative/imaginary core charge=   -0.000002    0.000000

     Initial potential from superposition of free atoms

     starting charge  335.99754, renormalised to  336.00000
     Starting wfc are  304 randomized atomic wfcs
     Checking if some PAW data can be deallocated... 

     total cpu time spent up to now is       42.6 secs

     per-process dynamical memory:   531.8 Mb

     Self-consistent Calculation

     iteration #  1     ecut=   100.00 Ry     beta=0.50
     Davidson diagonalization with overlap
     ethr =  1.00E-02,  avg # of iterations =  3.2

     total cpu time spent up to now is      163.3 secs

     total energy              =   -1551.36073171 Ry
     Harris-Foulkes estimate   =   -1557.40131222 Ry
     estimated scf accuracy    <      11.83819392 Ry

     iteration #  2     ecut=   100.00 Ry     beta=0.50
     Davidson diagonalization with overlap
     ethr =  3.52E-03,  avg # of iterations =  2.0

     total cpu time spent up to now is      222.7 secs

     total energy              =   -1551.74810306 Ry
     Harris-Foulkes estimate   =   -1552.34368447 Ry
     estimated scf accuracy    <       1.32461027 Ry

     iteration #  3     ecut=   100.00 Ry     beta=0.50
     Davidson diagonalization with overlap
     ethr =  3.94E-04,  avg # of iterations =  5.0

     total cpu time spent up to now is      376.9 secs

     total energy              =   -1553.69843141 Ry
     Harris-Foulkes estimate   =   -1554.16388029 Ry
     estimated scf accuracy    <       2.70916396 Ry

     iteration #  4     ecut=   100.00 Ry     beta=0.50
     Davidson diagonalization with overlap
     ethr =  3.94E-04,  avg # of iterations =  1.2

     total cpu time spent up to now is      434.5 secs

     total energy              =   -1552.25969871 Ry
     Harris-Foulkes estimate   =   -1553.71687627 Ry
     estimated scf accuracy    <       1.83324246 Ry

     iteration #  5     ecut=   100.00 Ry     beta=0.50
     Davidson diagonalization with overlap
     ethr =  3.94E-04,  avg # of iterations =  5.0

     total cpu time spent up to now is      576.7 secs

     total energy              =   -1552.85460152 Ry
     Harris-Foulkes estimate   =   -1554.36983491 Ry
     estimated scf accuracy    <       3.23890812 Ry

     iteration #  6     ecut=   100.00 Ry     beta=0.50
     Davidson diagonalization with overlap
     ethr =  3.94E-04,  avg # of iterations =  5.0

     total cpu time spent up to now is      652.0 secs

     total energy              =   -1553.05946811 Ry
     Harris-Foulkes estimate   =   -1553.17958335 Ry
     estimated scf accuracy    <       0.31311802 Ry

     iteration #  7     ecut=   100.00 Ry     beta=0.50
     Davidson diagonalization with overlap
     ethr =  9.32E-05,  avg # of iterations =  7.0

     total cpu time spent up to now is      785.9 secs

     total energy              =   -1553.30941268 Ry
     Harris-Foulkes estimate   =   -1553.31489212 Ry
     estimated scf accuracy    <       0.02204408 Ry

     iteration #  8     ecut=   100.00 Ry     beta=0.50
     Davidson diagonalization with overlap
     c_bands:  1 eigenvalues not converged
     ethr =  6.56E-06,  avg # of iterations = 11.0

     total cpu time spent up to now is      863.4 secs

     total energy              =   -1553.30606377 Ry
     Harris-Foulkes estimate   =   -1553.31087167 Ry
     estimated scf accuracy    <       0.01115702 Ry

     iteration #  9     ecut=   100.00 Ry     beta=0.50
     Davidson diagonalization with overlap
     c_bands:  1 eigenvalues not converged
     c_bands:  1 eigenvalues not converged
     ethr =  3.32E-06,  avg # of iterations = 13.0

     total cpu time spent up to now is      979.8 secs

     total energy              =   -1553.30911593 Ry
     Harris-Foulkes estimate   =   -1553.30908904 Ry
     estimated scf accuracy    <       0.00014934 Ry

     iteration # 10     ecut=   100.00 Ry     beta=0.50
     Davidson diagonalization with overlap
     ethr =  4.44E-08,  avg # of iterations =  4.0

     total cpu time spent up to now is     1092.6 secs

     total energy              =   -1553.30925675 Ry
     Harris-Foulkes estimate   =   -1553.30923002 Ry
     estimated scf accuracy    <       0.00025335 Ry

     iteration # 11     ecut=   100.00 Ry     beta=0.50
     Davidson diagonalization with overlap
     ethr =  4.44E-08,  avg # of iterations =  1.0

     total cpu time spent up to now is     1149.9 secs

     total energy              =   -1553.30916695 Ry
     Harris-Foulkes estimate   =   -1553.30926466 Ry
     estimated scf accuracy    <       0.00029488 Ry

     iteration # 12     ecut=   100.00 Ry     beta=0.50
     Davidson diagonalization with overlap
     ethr =  4.44E-08,  avg # of iterations =  3.6

     total cpu time spent up to now is     1217.4 secs

     total energy              =   -1553.30918276 Ry
     Harris-Foulkes estimate   =   -1553.30918836 Ry
     estimated scf accuracy    <       0.00010567 Ry

     iteration # 13     ecut=   100.00 Ry     beta=0.50
     Davidson diagonalization with overlap
     ethr =  3.14E-08,  avg # of iterations =  1.0

     total cpu time spent up to now is     1274.6 secs

     total energy              =   -1553.30918740 Ry
     Harris-Foulkes estimate   =   -1553.30918496 Ry
     estimated scf accuracy    <       0.00009651 Ry

     iteration # 14     ecut=   100.00 Ry     beta=0.50
     Davidson diagonalization with overlap
     ethr =  2.87E-08,  avg # of iterations =  1.0

     total cpu time spent up to now is     1332.3 secs

     total energy              =   -1553.30915956 Ry
     Harris-Foulkes estimate   =   -1553.30918866 Ry
     estimated scf accuracy    <       0.00009999 Ry

     iteration # 15     ecut=   100.00 Ry     beta=0.50
     Davidson diagonalization with overlap
     ethr =  2.87E-08,  avg # of iterations =  1.0

     total cpu time spent up to now is     1389.7 secs

     total energy              =   -1553.30913713 Ry
     Harris-Foulkes estimate   =   -1553.30916352 Ry
     estimated scf accuracy    <       0.00004623 Ry

     iteration # 16     ecut=   100.00 Ry     beta=0.50
     Davidson diagonalization with overlap
     ethr =  1.38E-08,  avg # of iterations =  4.0

     total cpu time spent up to now is     1500.5 secs

     total energy              =   -1553.30915878 Ry
     Harris-Foulkes estimate   =   -1553.30916684 Ry
     estimated scf accuracy    <       0.00002044 Ry

     iteration # 17     ecut=   100.00 Ry     beta=0.50
     Davidson diagonalization with overlap
     ethr =  6.08E-09,  avg # of iterations =  2.0

     total cpu time spent up to now is     1560.2 secs

     total energy              =   -1553.30915727 Ry
     Harris-Foulkes estimate   =   -1553.30915997 Ry
     estimated scf accuracy    <       0.00000740 Ry

     iteration # 18     ecut=   100.00 Ry     beta=0.50
     Davidson diagonalization with overlap
     ethr =  2.20E-09,  avg # of iterations =  4.0

     total cpu time spent up to now is     1692.6 secs

     total energy              =   -1553.30915536 Ry
     Harris-Foulkes estimate   =   -1553.30916919 Ry
     estimated scf accuracy    <       0.00002825 Ry

     iteration # 19     ecut=   100.00 Ry     beta=0.50
     Davidson diagonalization with overlap
     ethr =  2.20E-09,  avg # of iterations =  4.0

     total cpu time spent up to now is     1805.5 secs

     total energy              =   -1553.30916226 Ry
     Harris-Foulkes estimate   =   -1553.30916130 Ry
     estimated scf accuracy    <       0.00000307 Ry

     iteration # 20     ecut=   100.00 Ry     beta=0.50
     Davidson diagonalization with overlap
     ethr =  9.15E-10,  avg # of iterations =  5.0

     total cpu time spent up to now is     1904.6 secs

     total energy              =   -1553.30916110 Ry
     Harris-Foulkes estimate   =   -1553.30916351 Ry
     estimated scf accuracy    <       0.00000987 Ry

     iteration # 21     ecut=   100.00 Ry     beta=0.50
     Davidson diagonalization with overlap
     ethr =  9.15E-10,  avg # of iterations =  1.0

     total cpu time spent up to now is     1962.1 secs

     total energy              =   -1553.30916465 Ry
     Harris-Foulkes estimate   =   -1553.30916124 Ry
     estimated scf accuracy    <       0.00000567 Ry

     iteration # 22     ecut=   100.00 Ry     beta=0.50
     Davidson diagonalization with overlap
     ethr =  9.15E-10,  avg # of iterations =  3.0

     total cpu time spent up to now is     2028.6 secs

     total energy              =   -1553.30915748 Ry
     Harris-Foulkes estimate   =   -1553.30916512 Ry
     estimated scf accuracy    <       0.00001325 Ry

     iteration # 23     ecut=   100.00 Ry     beta=0.50
     Davidson diagonalization with overlap
     ethr =  9.15E-10,  avg # of iterations =  4.0

     total cpu time spent up to now is     2144.2 secs

     total energy              =   -1553.30916029 Ry
     Harris-Foulkes estimate   =   -1553.30916032 Ry
     estimated scf accuracy    <       0.00000012 Ry

     iteration # 24     ecut=   100.00 Ry     beta=0.50
     Davidson diagonalization with overlap
     ethr =  3.68E-11,  avg # of iterations =  2.8

     total cpu time spent up to now is     2206.6 secs

     total energy              =   -1553.30916028 Ry
     Harris-Foulkes estimate   =   -1553.30916030 Ry
     estimated scf accuracy    <       0.00000007 Ry

     iteration # 25     ecut=   100.00 Ry     beta=0.50
     Davidson diagonalization with overlap
     ethr =  2.20E-11,  avg # of iterations =  4.0

     total cpu time spent up to now is     2301.9 secs

     total energy              =   -1553.30916028 Ry
     Harris-Foulkes estimate   =   -1553.30916030 Ry
     estimated scf accuracy    <       0.00000005 Ry

     iteration # 26     ecut=   100.00 Ry     beta=0.50
     Davidson diagonalization with overlap
     ethr =  1.47E-11,  avg # of iterations =  1.0

     total cpu time spent up to now is     2359.2 secs

     total energy              =   -1553.30916027 Ry
     Harris-Foulkes estimate   =   -1553.30916029 Ry
     estimated scf accuracy    <       0.00000002 Ry

     iteration # 27     ecut=   100.00 Ry     beta=0.50
     Davidson diagonalization with overlap
     ethr =  5.52E-12,  avg # of iterations =  4.0

     total cpu time spent up to now is     2474.0 secs

     total energy              =   -1553.30916028 Ry
     Harris-Foulkes estimate   =   -1553.30916029 Ry
     estimated scf accuracy    <       0.00000001 Ry

     iteration # 28     ecut=   100.00 Ry     beta=0.50
     Davidson diagonalization with overlap
     ethr =  4.16E-12,  avg # of iterations =  1.0

     total cpu time spent up to now is     2531.5 secs

     End of self-consistent calculation

          k = 0.0000 0.0000 0.0000 (120647 PWs)   bands (ev):

   -22.2868 -22.2854 -22.2833 -22.2819 -19.5463 -19.5451 -19.5408 -19.5397
   -19.2288 -19.2279 -19.2244 -19.2235 -19.1290 -19.1277 -19.1225 -19.1212
   -15.5507 -15.5428 -15.5133 -15.5023 -15.3228 -15.3127 -15.2751 -15.2682
   -12.5308 -12.5073 -12.4929 -12.4678 -11.4194 -11.4170 -11.3997 -11.3987
   -10.9828 -10.9811 -10.9731 -10.9634 -10.8421 -10.8043 -10.7621 -10.7328
    -9.3672  -9.3589  -9.3570  -9.3502  -8.5337  -8.5250  -8.5220  -8.5048
    -8.4002  -8.3914  -8.2440  -8.2423  -7.9972  -7.9937  -7.9313  -7.9275
    -7.1691  -7.1411  -7.1331  -7.1078  -7.0177  -6.9973  -6.9887  -6.9497
    -6.8313  -6.7221  -6.7177  -6.5184  -6.2097  -6.0864  -6.0485  -6.0031
    -5.8955  -5.8437  -5.8143  -5.7499  -5.5818  -5.5417  -5.5386  -5.5036
    -5.3626  -5.3509  -5.3355  -5.2736  -4.9120  -4.8908  -4.8721  -4.8620
    -4.8348  -4.6147  -4.5687  -4.3949  -4.3287  -4.2574  -4.2467  -4.2272
    -4.1916  -4.1056  -4.0622  -3.9818  -3.7138  -3.6869  -3.6816  -3.6468
    -3.6432  -3.6260  -3.5881  -3.5394  -3.5223  -3.4752  -3.4461  -3.4290
    -3.1410  -3.1390  -3.1006  -3.0923  -3.0451  -2.9926  -2.9390  -2.9150
    -2.5972  -2.5878  -2.5548  -2.5502  -2.3301  -2.3273  -2.3270  -2.3255
    -1.8473  -1.8172  -1.7786  -1.7376  -1.7045  -1.5817  -1.5647  -1.4483
    -1.2584  -1.2116  -1.2003  -1.1800  -1.1272  -1.0805  -1.0044  -0.9925
    -0.8496  -0.8213  -0.8001  -0.7918  -0.6964  -0.6566  -0.5212  -0.4622
    -0.3956  -0.3230  -0.3034  -0.2888  -0.2493  -0.2409  -0.1871  -0.1663
    -0.1443  -0.1411  -0.0735  -0.0693   0.0572   0.0612   0.0945   0.0956
     6.1363   6.1528   6.3303   6.3372   6.8029   6.8195   6.9378   7.0003
     7.1487   7.1582   7.2030   7.2803   7.4060   7.5388   7.5552   7.5741
     7.5919   7.6441   7.8000   7.9013   7.9160   7.9165   7.9616   7.9965
     8.0292   8.0590   8.0843   8.1768   8.4370   8.4384   8.4433   8.4923
     8.5199

          k = 0.0000 0.2935 0.0000 (120609 PWs)   bands (ev):

   -22.2861 -22.2849 -22.2826 -22.2814 -19.5478 -19.5467 -19.5425 -19.5414
   -19.2288 -19.2279 -19.2243 -19.2234 -19.1299 -19.1287 -19.1233 -19.1221
   -15.5282 -15.5228 -15.5085 -15.5017 -15.3314 -15.3270 -15.2883 -15.2851
   -12.5029 -12.4907 -12.4781 -12.4655 -11.4133 -11.4119 -11.4006 -11.3996
   -10.9958 -10.9931 -10.9868 -10.9821 -10.8264 -10.8091 -10.7424 -10.7290
    -9.3178  -9.3165  -9.3141  -9.3128  -8.6077  -8.5782  -8.5712  -8.5483
    -8.3778  -8.3651  -8.2346  -8.2302  -8.0192  -7.9903  -7.9774  -7.9681
    -7.1580  -7.1358  -7.1227  -7.1065  -7.0195  -6.9989  -6.9892  -6.9736
    -6.7012  -6.6834  -6.6235  -6.5332  -6.3599  -6.2368  -6.2200  -6.1390
    -5.9194  -5.8706  -5.8142  -5.7563  -5.5423  -5.5420  -5.4862  -5.4406
    -5.4230  -5.3360  -5.2948  -5.2648  -4.9039  -4.8916  -4.8624  -4.8435
    -4.7014  -4.5597  -4.5019  -4.3860  -4.3405  -4.3392  -4.3161  -4.3051
    -4.1736  -4.1705  -3.9562  -3.9550  -3.7155  -3.7067  -3.6632  -3.6580
    -3.6350  -3.5395  -3.5379  -3.4959  -3.4937  -3.4397  -3.3772  -3.3756
    -3.2100  -3.2071  -3.1663  -3.1064  -3.0729  -3.0418  -3.0004  -2.9815
    -2.5961  -2.5881  -2.5793  -2.5526  -2.3373  -2.3317  -2.3178  -2.3099
    -1.8412  -1.8203  -1.7490  -1.7296  -1.6503  -1.5685  -1.5559  -1.4871
    -1.2747  -1.2457  -1.1829  -1.1356  -1.0484  -0.9788  -0.9552  -0.9511
    -0.7920  -0.7735  -0.7558  -0.7114  -0.7088  -0.6606  -0.5111  -0.4953
    -0.4081  -0.3557  -0.3466  -0.3060  -0.2852  -0.2585  -0.1629  -0.1512
    -0.1382  -0.1265  -0.1124  -0.0799   0.0748   0.0851   0.1097   0.1169
     6.3082   6.3506   6.3724   6.5198   6.5633   6.6697   6.8545   6.9003
     7.0919   7.2054   7.2634   7.3290   7.3515   7.4242   7.4360   7.5275
     7.5409   7.6223   7.6549   7.7843   7.8302   7.8659   7.9367   7.9614
     8.1148   8.1761   8.2551   8.2610   8.3560   8.4713   8.4862   8.5188
     8.5503

          k = 0.3333 0.0000 0.0000 (120752 PWs)   bands (ev):

   -22.2835 -22.2821 -22.2817 -22.2803 -19.5452 -19.5440 -19.5425 -19.5413
   -19.2349 -19.2340 -19.2328 -19.2319 -19.1273 -19.1260 -19.1241 -19.1228
   -15.5315 -15.5287 -15.5057 -15.5019 -15.3210 -15.3154 -15.2960 -15.2913
   -12.5285 -12.5136 -12.5095 -12.4940 -11.4059 -11.4024 -11.3964 -11.3936
   -10.9615 -10.9546 -10.9501 -10.9401 -10.8291 -10.7967 -10.7915 -10.7641
    -9.2864  -9.2802  -9.2715  -9.2662  -8.6202  -8.5848  -8.5405  -8.5010
    -8.3981  -8.3807  -8.3221  -8.3123  -8.0049  -7.9341  -7.9176  -7.8617
    -7.2062  -7.1870  -7.1150  -7.1082  -6.9788  -6.9550  -6.9461  -6.9346
    -6.7039  -6.6918  -6.5393  -6.5377  -6.3018  -6.2150  -6.1786  -6.1113
    -5.8846  -5.8208  -5.7816  -5.7134  -5.5936  -5.5373  -5.4978  -5.4800
    -5.4282  -5.4011  -5.3862  -5.3482  -4.9618  -4.9222  -4.9081  -4.8990
    -4.7235  -4.5842  -4.5317  -4.4046  -4.3217  -4.3046  -4.3033  -4.2745
    -4.2169  -4.1822  -4.1303  -4.1118  -3.7362  -3.7273  -3.6642  -3.6628
    -3.6478  -3.6108  -3.5522  -3.5190  -3.5125  -3.4698  -3.4585  -3.4115
    -3.2930  -3.2032  -3.1929  -3.1880  -3.0804  -3.0332  -3.0062  -2.9751
    -2.5105  -2.5097  -2.4627  -2.4614  -2.2870  -2.2856  -2.2830  -2.2809
    -1.8928  -1.8656  -1.8541  -1.8024  -1.7111  -1.6332  -1.5986  -1.5381
    -1.2770  -1.2367  -1.1316  -1.0992  -1.0202  -0.9880  -0.9065  -0.8780
    -0.7955  -0.7554  -0.7490  -0.6958  -0.6300  -0.5966  -0.5786  -0.5531
    -0.3652  -0.3192  -0.2750  -0.2347  -0.2222  -0.2126  -0.1598  -0.1471
    -0.1320  -0.0849  -0.0756  -0.0503   0.0860   0.0895   0.1071   0.1078
     6.0786   6.0910   6.5420   6.5452   6.5940   6.6538   6.9464   7.0123
     7.0374   7.0990   7.1997   7.2522   7.2760   7.3727   7.3881   7.4673
     7.5059   7.6370   7.6644   7.7514   7.7854   7.8735   8.0239   8.1103
     8.1180   8.1323   8.1854   8.2275   8.3494   8.3943   8.4105   8.4656
     8.6645

          k = 0.3333 0.2935 0.0000 (120682 PWs)   bands (ev):

   -22.2828 -22.2816 -22.2810 -22.2798 -19.5467 -19.5455 -19.5441 -19.5429
   -19.2349 -19.2340 -19.2327 -19.2318 -19.1281 -19.1270 -19.1249 -19.1237
   -15.5295 -15.5271 -15.5133 -15.5106 -15.3156 -15.3125 -15.2911 -15.2882
   -12.5183 -12.5114 -12.5029 -12.4957 -11.3957 -11.3942 -11.3866 -11.3856
   -10.9727 -10.9673 -10.9638 -10.9574 -10.7974 -10.7840 -10.7554 -10.7437
    -9.3186  -9.3171  -9.2716  -9.2702  -8.5789  -8.5705  -8.5235  -8.5103
    -8.3871  -8.3679  -8.3031  -8.2938  -7.9679  -7.9461  -7.9305  -7.9080
    -7.2166  -7.1990  -7.1619  -7.1528  -7.0523  -7.0414  -7.0099  -6.9968
    -6.6373  -6.6175  -6.5536  -6.5359  -6.2582  -6.2461  -6.0736  -6.0542
    -5.8576  -5.8443  -5.8022  -5.7708  -5.7101  -5.6578  -5.5523  -5.5356
    -5.4320  -5.4285  -5.4011  -5.3641  -4.9225  -4.9047  -4.8784  -4.8565
    -4.6410  -4.5229  -4.5097  -4.4217  -4.3235  -4.3200  -4.2993  -4.2640
    -4.1938  -4.1835  -4.1076  -4.0887  -3.6963  -3.6732  -3.6450  -3.6282
    -3.5842  -3.5632  -3.5372  -3.5310  -3.5133  -3.4803  -3.4136  -3.3921
    -3.2849  -3.2537  -3.2268  -3.1696  -3.1393  -3.1117  -3.0656  -3.0349
    -2.5076  -2.4987  -2.4822  -2.4668  -2.3666  -2.3614  -2.3375  -2.3317
    -1.8337  -1.8105  -1.7777  -1.7445  -1.6578  -1.6084  -1.5878  -1.5483
    -1.2025  -1.1845  -1.1432  -1.1113  -0.9966  -0.9647  -0.9046  -0.8966
    -0.7850  -0.7736  -0.7141  -0.6943  -0.6330  -0.6141  -0.5277  -0.5159
    -0.3322  -0.3122  -0.2934  -0.2750  -0.2295  -0.2225  -0.1946  -0.1861
    -0.0888  -0.0717  -0.0566  -0.0390   0.1190   0.1224   0.1404   0.1426
     6.2394   6.2678   6.4544   6.4963   6.6257   6.6494   6.7166   6.8824
     6.9991   7.0653   7.0755   7.1325   7.2280   7.2850   7.3759   7.4449
     7.4968   7.5358   7.6284   7.6863   7.8483   7.9313   7.9909   8.0587
     8.1087   8.1816   8.3076   8.3858   8.4269   8.4641   8.5279   8.5589
     8.5771

          k = 0.3333-0.2935 0.0000 (120682 PWs)   bands (ev):

   -22.2828 -22.2816 -22.2810 -22.2798 -19.5467 -19.5455 -19.5441 -19.5429
   -19.2349 -19.2340 -19.2327 -19.2318 -19.1281 -19.1270 -19.1249 -19.1237
   -15.5295 -15.5271 -15.5133 -15.5106 -15.3156 -15.3125 -15.2911 -15.2882
   -12.5183 -12.5114 -12.5029 -12.4957 -11.3957 -11.3942 -11.3866 -11.3856
   -10.9727 -10.9673 -10.9638 -10.9574 -10.7974 -10.7840 -10.7554 -10.7437
    -9.3186  -9.3171  -9.2716  -9.2702  -8.5789  -8.5705  -8.5235  -8.5103
    -8.3871  -8.3679  -8.3031  -8.2938  -7.9679  -7.9461  -7.9305  -7.9080
    -7.2166  -7.1990  -7.1619  -7.1528  -7.0523  -7.0414  -7.0099  -6.9968
    -6.6373  -6.6175  -6.5536  -6.5359  -6.2582  -6.2461  -6.0736  -6.0542
    -5.8576  -5.8443  -5.8022  -5.7708  -5.7101  -5.6578  -5.5523  -5.5356
    -5.4320  -5.4285  -5.4011  -5.3641  -4.9225  -4.9047  -4.8784  -4.8565
    -4.6410  -4.5229  -4.5097  -4.4217  -4.3235  -4.3200  -4.2993  -4.2640
    -4.1938  -4.1835  -4.1076  -4.0887  -3.6963  -3.6732  -3.6450  -3.6282
    -3.5842  -3.5632  -3.5372  -3.5310  -3.5133  -3.4803  -3.4136  -3.3921
    -3.2849  -3.2537  -3.2268  -3.1696  -3.1393  -3.1117  -3.0656  -3.0349
    -2.5076  -2.4987  -2.4822  -2.4668  -2.3666  -2.3614  -2.3375  -2.3317
    -1.8337  -1.8105  -1.7777  -1.7445  -1.6578  -1.6084  -1.5878  -1.5483
    -1.2025  -1.1845  -1.1432  -1.1113  -0.9966  -0.9647  -0.9046  -0.8966
    -0.7850  -0.7736  -0.7141  -0.6943  -0.6330  -0.6141  -0.5277  -0.5159
    -0.3322  -0.3122  -0.2934  -0.2750  -0.2295  -0.2225  -0.1946  -0.1861
    -0.0888  -0.0717  -0.0566  -0.0390   0.1190   0.1224   0.1404   0.1426
     6.2394   6.2678   6.4544   6.4963   6.6257   6.6494   6.7166   6.8824
     6.9991   7.0653   7.0755   7.1325   7.2280   7.2850   7.3759   7.4449
     7.4968   7.5358   7.6284   7.6863   7.8483   7.9313   7.9909   8.0587
     8.1087   8.1816   8.3076   8.3858   8.4269   8.4641   8.5279   8.5589
     8.5769

     highest occupied, lowest unoccupied level (ev):     0.1426    6.0786

!    total energy              =   -1553.30916028 Ry
     Harris-Foulkes estimate   =   -1553.30916028 Ry
     estimated scf accuracy    <          4.4E-09 Ry

     total all-electron energy =     -5836.479624 Ry

     The total energy is the sum of the following terms:

     one-electron contribution =   -1049.85826090 Ry
     hartree contribution      =     652.73257741 Ry
     xc contribution           =    -347.63519861 Ry
     ewald contribution        =    -363.21163571 Ry
     Dispersion Correction     =      -0.55680459 Ry
     one-center paw contrib.   =    -444.77983788 Ry

     convergence has been achieved in  28 iterations

     Forces acting on atoms (cartesian axes, Ry/au):

     atom    1 type  4   force =    -0.00530845    0.00236823   -0.00307266
     atom    2 type  4   force =     0.00531249   -0.00237312   -0.00302901
     atom    3 type  4   force =    -0.00531613   -0.00236942    0.00307320
     atom    4 type  4   force =     0.00530487    0.00237248    0.00302856
     atom    5 type  4   force =    -0.00113145    0.00316567   -0.00125088
     atom    6 type  4   force =     0.00109624   -0.00315795   -0.00121718
     atom    7 type  4   force =    -0.00112557   -0.00316553    0.00125058
     atom    8 type  4   force =     0.00110233    0.00315758    0.00121783
     atom    9 type  4   force =    -0.00432644    0.00198814   -0.00608003
     atom   10 type  4   force =     0.00432317   -0.00199718   -0.00602703
     atom   11 type  4   force =    -0.00432297   -0.00198817    0.00607999
     atom   12 type  4   force =     0.00432678    0.00199762    0.00602739
     atom   13 type  4   force =     0.00730320    0.00049053   -0.00333888
     atom   14 type  4   force =    -0.00731487   -0.00048818   -0.00335179
     atom   15 type  4   force =     0.00730330   -0.00049018    0.00333858
     atom   16 type  4   force =    -0.00731511    0.00048857    0.00335168
     atom   17 type  1   force =    -0.00163661   -0.00090994    0.00050571
     atom   18 type  1   force =     0.00155405    0.00090814    0.00039805
     atom   19 type  1   force =    -0.00160274    0.00090979   -0.00050568
     atom   20 type  1   force =     0.00158874   -0.00090803   -0.00039808
     atom   21 type  1   force =     0.00007093   -0.00131436    0.00264555
     atom   22 type  1   force =    -0.00016475    0.00133123    0.00259504
     atom   23 type  1   force =     0.00007767    0.00131405   -0.00264575
     atom   24 type  1   force =    -0.00015893   -0.00133104   -0.00259530
     atom   25 type  3   force =    -0.00047837    0.00082150   -0.00069538
     atom   26 type  3   force =     0.00049165   -0.00081492   -0.00069167
     atom   27 type  3   force =    -0.00047719   -0.00082149    0.00069502
     atom   28 type  3   force =     0.00049222    0.00081498    0.00069172
     atom   29 type  3   force =    -0.00003686    0.00000272   -0.00086520
     atom   30 type  3   force =     0.00006443   -0.00001623   -0.00084341
     atom   31 type  3   force =    -0.00003691   -0.00000287    0.00086466
     atom   32 type  3   force =     0.00006466    0.00001622    0.00084352
     atom   33 type  1   force =    -0.00108573   -0.00357479    0.00303005
     atom   34 type  1   force =     0.00104758    0.00354669    0.00304493
     atom   35 type  1   force =    -0.00106430    0.00357476   -0.00302921
     atom   36 type  1   force =     0.00106863   -0.00354700   -0.00304497
     atom   37 type  1   force =     0.00459822   -0.00239332   -0.00188145
     atom   38 type  1   force =    -0.00454199    0.00239887   -0.00199851
     atom   39 type  1   force =     0.00458590    0.00239336    0.00188223
     atom   40 type  1   force =    -0.00455459   -0.00239906    0.00199862
     atom   41 type  3   force =    -0.00068427   -0.00112545   -0.00104102
     atom   42 type  3   force =     0.00064466    0.00108726   -0.00101093
     atom   43 type  3   force =    -0.00068374    0.00112534    0.00104092
     atom   44 type  3   force =     0.00064507   -0.00108716    0.00101090
     atom   45 type  3   force =    -0.00276447    0.00035926   -0.00176690
     atom   46 type  3   force =     0.00270909   -0.00035333   -0.00174064
     atom   47 type  3   force =    -0.00276593   -0.00035966    0.00176736
     atom   48 type  3   force =     0.00270786    0.00035288    0.00174032
     atom   49 type  1   force =     0.00132402    0.00288463    0.00122920
     atom   50 type  1   force =    -0.00132455   -0.00297665    0.00138807
     atom   51 type  1   force =     0.00133894   -0.00288431   -0.00122898
     atom   52 type  1   force =    -0.00130949    0.00297601   -0.00138830
     atom   53 type  3   force =     0.00340865   -0.00409123   -0.00187079
     atom   54 type  3   force =    -0.00340927    0.00413376   -0.00190390
     atom   55 type  3   force =     0.00340912    0.00409156    0.00187083
     atom   56 type  3   force =    -0.00340878   -0.00413356    0.00190387
     atom   57 type  3   force =    -0.00060383   -0.00074452    0.00127523
     atom   58 type  3   force =     0.00063510    0.00075185    0.00120820
     atom   59 type  3   force =    -0.00060360    0.00074477   -0.00127562
     atom   60 type  3   force =     0.00063536   -0.00075172   -0.00120793
     atom   61 type  1   force =     0.00368446    0.00424703    0.00128966
     atom   62 type  1   force =    -0.00369319   -0.00415278    0.00117701
     atom   63 type  1   force =     0.00368969   -0.00424714   -0.00128957
     atom   64 type  1   force =    -0.00368592    0.00415221   -0.00117665
     atom   65 type  3   force =     0.00016168   -0.00087859    0.00075366
     atom   66 type  3   force =    -0.00008451    0.00081949    0.00081950
     atom   67 type  3   force =     0.00016141    0.00087879   -0.00075339
     atom   68 type  3   force =    -0.00008460   -0.00081929   -0.00081974
     atom   69 type  3   force =    -0.00110730   -0.00147386   -0.00100989
     atom   70 type  3   force =     0.00106180    0.00140917   -0.00090531
     atom   71 type  3   force =    -0.00110727    0.00147395    0.00100971
     atom   72 type  3   force =     0.00106194   -0.00140917    0.00090552
     atom   73 type  1   force =     0.00703506    0.00187694    0.00549772
     atom   74 type  1   force =    -0.00702647   -0.00176039    0.00549937
     atom   75 type  1   force =     0.00701563   -0.00187683   -0.00549848
     atom   76 type  1   force =    -0.00704444    0.00176075   -0.00549894
     atom   77 type  3   force =    -0.00196669   -0.00025213   -0.00026044
     atom   78 type  3   force =     0.00196889    0.00023202   -0.00020562
     atom   79 type  3   force =    -0.00196646    0.00025224    0.00026051
     atom   80 type  3   force =     0.00196912   -0.00023190    0.00020554
     atom   81 type  3   force =    -0.00028691   -0.00116636    0.00030901
     atom   82 type  3   force =     0.00030995    0.00111285    0.00027246
     atom   83 type  3   force =    -0.00028664    0.00116634   -0.00030900
     atom   84 type  3   force =     0.00031019   -0.00111287   -0.00027252
     atom   85 type  1   force =    -0.00501095    0.00044387    0.00472431
     atom   86 type  1   force =     0.00500085   -0.00042574    0.00469637
     atom   87 type  1   force =    -0.00499174   -0.00044350   -0.00472381
     atom   88 type  1   force =     0.00501893    0.00042636   -0.00469690
     atom   89 type  1   force =    -0.00403473   -0.00097901    0.00133878
     atom   90 type  1   force =     0.00406077    0.00095629    0.00141595
     atom   91 type  1   force =    -0.00401297    0.00097906   -0.00133901
     atom   92 type  1   force =     0.00408243   -0.00095624   -0.00141602
     atom   93 type  3   force =     0.00229169    0.00087253    0.00344525
     atom   94 type  3   force =    -0.00231735   -0.00084560    0.00341266
     atom   95 type  3   force =     0.00229222   -0.00087256   -0.00344605
     atom   96 type  3   force =    -0.00231697    0.00084558   -0.00341193
     atom   97 type  3   force =    -0.00119576    0.00440412    0.00117728
     atom   98 type  3   force =     0.00123424   -0.00441116    0.00117511
     atom   99 type  3   force =    -0.00119586   -0.00440404   -0.00117729
     atom  100 type  3   force =     0.00123413    0.00441108   -0.00117502
     atom  101 type  1   force =     0.00201565    0.00129409    0.00016175
     atom  102 type  1   force =    -0.00186099   -0.00141451    0.00004591
     atom  103 type  1   force =     0.00199746   -0.00129375   -0.00016193
     atom  104 type  1   force =    -0.00187900    0.00141483   -0.00004594
     atom  105 type  3   force =     0.00139423   -0.00164844    0.00169283
     atom  106 type  3   force =    -0.00144559    0.00171688    0.00167987
     atom  107 type  3   force =     0.00139375    0.00164804   -0.00169291
     atom  108 type  3   force =    -0.00144591   -0.00171718   -0.00167984
     atom  109 type  3   force =    -0.00052226    0.00066014   -0.00082947
     atom  110 type  3   force =     0.00049105   -0.00058939   -0.00075678
     atom  111 type  3   force =    -0.00052237   -0.00066010    0.00082940
     atom  112 type  3   force =     0.00049097    0.00058943    0.00075676
     atom  113 type  1   force =    -0.00392344    0.00201560   -0.00265146
     atom  114 type  1   force =     0.00385787   -0.00196872   -0.00265780
     atom  115 type  1   force =    -0.00393278   -0.00201541    0.00265063
     atom  116 type  1   force =     0.00384830    0.00196899    0.00265848
     atom  117 type  3   force =     0.00310114   -0.00425736   -0.00045777
     atom  118 type  3   force =    -0.00306402    0.00422278   -0.00046768
     atom  119 type  3   force =     0.00310102    0.00425735    0.00045779
     atom  120 type  3   force =    -0.00306414   -0.00422283    0.00046761
     atom  121 type  3   force =    -0.00039640   -0.00250301    0.00035244
     atom  122 type  3   force =     0.00042837    0.00250476    0.00032564
     atom  123 type  3   force =    -0.00039657    0.00250298   -0.00035208
     atom  124 type  3   force =     0.00042827   -0.00250474   -0.00032598

     Total force =     0.049653     Total SCF correction =     0.000178


     Computing stress (Cartesian axis) and pressure

          total   stress  (Ry/bohr**3)                   (kbar)     P=   -3.67
  -0.00002742   0.00000000   0.00000000         -4.03      0.00      0.00
   0.00000000  -0.00002035   0.00000012          0.00     -2.99      0.02
   0.00000000   0.00000012  -0.00002718          0.00      0.02     -4.00


     Writing output data file scf.save
 
     init_run     :     40.58s CPU     41.93s WALL (       1 calls)
     electrons    :   2398.85s CPU   2489.03s WALL (       1 calls)
     forces       :     20.67s CPU     20.93s WALL (       1 calls)
     stress       :     89.19s CPU     89.52s WALL (       1 calls)

     Called by init_run:
     wfcinit      :     33.66s CPU     34.86s WALL (       1 calls)
     potinit      :      2.60s CPU      2.62s WALL (       1 calls)

     Called by electrons:
     c_bands      :   2163.18s CPU   2238.66s WALL (      28 calls)
     sum_band     :    206.93s CPU    218.67s WALL (      28 calls)
     v_of_rho     :      3.79s CPU      4.19s WALL (      29 calls)
     newd         :      9.11s CPU     11.62s WALL (      29 calls)
     PAW_pot      :     14.55s CPU     14.55s WALL (      29 calls)
     mix_rho      :      1.08s CPU      1.17s WALL (      28 calls)

     Called by c_bands:
     init_us_2    :     10.72s CPU     10.80s WALL (     295 calls)
     cegterg      :   2122.28s CPU   2197.58s WALL (     140 calls)

     Called by sum_band:
     sum_band:bec :      0.13s CPU      0.13s WALL (     140 calls)
     addusdens    :      9.52s CPU     11.92s WALL (      28 calls)

     Called by *egterg:
     h_psi        :   1089.12s CPU   1148.04s WALL (     664 calls)
     s_psi        :    274.59s CPU    274.69s WALL (     664 calls)
     g_psi        :      5.24s CPU      5.25s WALL (     519 calls)
     cdiaghg      :    108.28s CPU    108.32s WALL (     659 calls)

     Called by h_psi:
     h_psi:pot    :   1081.36s CPU   1140.17s WALL (     664 calls)
     h_psi:calbec :    265.78s CPU    266.23s WALL (     664 calls)
     vloc_psi     :    540.20s CPU    598.47s WALL (     664 calls)
     add_vuspsi   :    275.38s CPU    275.46s WALL (     664 calls)

     General routines
     calbec       :    372.19s CPU    372.80s WALL (     829 calls)
     fft          :      2.32s CPU      2.95s WALL (     401 calls)
     fftw         :    572.53s CPU    638.13s WALL (  191214 calls)
 
     Parallel routines
     fft_scatter  :    110.19s CPU    169.16s WALL (  191615 calls)
 
     PWSCF        : 42m37.96s CPU    44m38.39s WALL

 
   This run was terminated on:   5:54:43  21Dec2017            

=------------------------------------------------------------------------------=
   JOB DONE.
=------------------------------------------------------------------------------=
