
     Program PWSCF v.6.1 (svn rev. 13369) starts on  3Nov2017 at 22:45:55 

     This program is part of the open-source Quantum ESPRESSO suite
     for quantum simulation of materials; please cite
         "P. Giannozzi et al., J. Phys.:Condens. Matter 21 395502 (2009);
          URL http://www.quantum-espresso.org", 
     in publications or presentations arising from this work. More details at
     http://www.quantum-espresso.org/quote

     Parallel version (MPI), running on     8 processors
     R & G space division:  proc/nbgrp/npool/nimage =       8
     Waiting for input...
     Reading input from standard input

     Current dimensions of program PWSCF are:
     Max number of different atomic species (ntypx) = 10
     Max number of k-points (npk) =  40000
     Max angular momentum in pseudopotentials (lmaxx) =  3
               file C.pbe-n-kjpaw_psl.0.1.UPF: wavefunction(s)  2P renormalized
               file N.pbe-n-kjpaw_psl.0.1.UPF: wavefunction(s)  2P renormalized
               file H.pbe-kjpaw_psl.0.1.UPF: wavefunction(s)  1S renormalized
               file O.pbe-n-kjpaw_psl.0.1.UPF: wavefunction(s)  2P renormalized

     -------------------------------------
     Parameters for Dispersion Correction:
     -------------------------------------
       atom      VdW radius       C_6     

        C          2.744         60.710
        N          2.640         42.670
        H          1.892          4.857
        O          2.536         24.284

     Subspace diagonalization in iterative solution of the eigenvalue problem:
     a serial algorithm will be used

 
     Parallelization info
     --------------------
     sticks:   dense  smooth     PW     G-vecs:    dense   smooth      PW
     Min         970     970    259               163106   163106   22619
     Max         971     971    260               163111   163111   22624
     Sum        7763    7763   2075              1304859  1304859  180965
 


     bravais-lattice index     =            0
     lattice parameter (alat)  =      25.5378  a.u.
     unit-cell volume          =    9657.8791 (a.u.)^3
     number of atoms/cell      =          120
     number of atomic types    =            4
     number of electrons       =       576.00
     number of Kohn-Sham states=          345
     kinetic-energy cutoff     =     100.0000  Ry
     charge density cutoff     =     400.0000  Ry
     convergence threshold     =      1.0E-08
     mixing beta               =       0.5000
     number of iterations used =            8  plain     mixing
     Exchange-correlation      =  SLA  PW   PBX  PBC ( 1  4  3  4 0 0)

     celldm(1)=  25.537759  celldm(2)=   0.000000  celldm(3)=   0.000000
     celldm(4)=   0.000000  celldm(5)=   0.000000  celldm(6)=   0.000000

     crystal axes: (cart. coord. in units of alat)
               a(1) = (   1.000000   0.000000   0.000000 )  
               a(2) = (   0.000000   0.373287   0.000000 )  
               a(3) = (   0.000000   0.000000   1.553426 )  

     reciprocal axes: (cart. coord. in units 2 pi/alat)
               b(1) = (  1.000000  0.000000  0.000000 )  
               b(2) = (  0.000000  2.678904  0.000000 )  
               b(3) = (  0.000000  0.000000  0.643738 )  


     PseudoPot. # 1 for  C read from file:
     /scratch/ahofstet/pseudo/C.pbe-n-kjpaw_psl.0.1.UPF
     MD5 check sum: 430fe95172b1e11ef3f8ed03bac87931
     Pseudo is Projector augmented-wave + core cor, Zval =  4.0
     Generated using "atomic" code by A. Dal Corso  v.5.0.99 svn rev. 10869
     Shape of augmentation charge: BESSEL
     Using radial grid of 1073 points,  4 beta functions with: 
                l(1) =   0
                l(2) =   0
                l(3) =   1
                l(4) =   1
     Q(r) pseudized with 0 coefficients 


     PseudoPot. # 2 for  N read from file:
     /scratch/ahofstet/pseudo/N.pbe-n-kjpaw_psl.0.1.UPF
     MD5 check sum: f73187c8b701007e77325f868c9291d7
     Pseudo is Projector augmented-wave + core cor, Zval =  5.0
     Generated using "atomic" code by A. Dal Corso  v.5.0.99 svn rev. 10869
     Shape of augmentation charge: PSQ
     Using radial grid of 1085 points,  4 beta functions with: 
                l(1) =   0
                l(2) =   0
                l(3) =   1
                l(4) =   1
     Q(r) pseudized with 0 coefficients 


     PseudoPot. # 3 for  H read from file:
     /scratch/ahofstet/pseudo/H.pbe-kjpaw_psl.0.1.UPF
     MD5 check sum: 94e484f906d9e9773b2f6e52662335b2
     Pseudo is Projector augmented-wave, Zval =  1.0
     Generated using "atomic" code by A. Dal Corso  v.5.0.99 svn rev. 10869
     Shape of augmentation charge: PSQ
     Using radial grid of  929 points,  2 beta functions with: 
                l(1) =   0
                l(2) =   0
     Q(r) pseudized with 0 coefficients 


     PseudoPot. # 4 for  O read from file:
     /scratch/ahofstet/pseudo/O.pbe-n-kjpaw_psl.0.1.UPF
     MD5 check sum: 3f94a2996a3169367d6eb21d9b593f20
     Pseudo is Projector augmented-wave + core cor, Zval =  6.0
     Generated using "atomic" code by A. Dal Corso  v.5.0.99 svn rev. 10869
     Shape of augmentation charge: BESSEL
     Using radial grid of 1095 points,  4 beta functions with: 
                l(1) =   0
                l(2) =   0
                l(3) =   1
                l(4) =   1
     Q(r) pseudized with 0 coefficients 


     atomic species   valence    mass     pseudopotential
        C              4.00    12.01070      C( 1.00)
        N              5.00    14.00670      N( 1.00)
        H              1.00     1.00794      H( 1.00)
        O              6.00    15.99940      O( 1.00)

      4 Sym. Ops., with inversion, found ( 2 have fractional translation)



   Cartesian axes

     site n.     atom                  positions (alat units)
         1           O   tau(   1) = (   0.3291808   0.1438140   0.4438070  )
         2           O   tau(   2) = (   0.1704725   0.2294218   1.2204331  )
         3           O   tau(   3) = (   0.6708192   0.3304575   0.3329060  )
         4           O   tau(   4) = (   0.8295275   0.0427783   1.1097061  )
         5           O   tau(   5) = (   0.6708192   0.2294729   1.1096190  )
         6           O   tau(   6) = (   0.8295275   0.1438652   0.3329930  )
         7           O   tau(   7) = (   0.3291808   0.0428294   1.2205201  )
         8           O   tau(   8) = (   0.1704725   0.3305087   0.4437200  )
         9           O   tau(   9) = (   0.4367005   0.2641914   0.3707780  )
        10           O   tau(  10) = (   0.0626206   0.1087924   1.1478881  )
        11           O   tau(  11) = (   0.5632995   0.0775479   0.4059351  )
        12           O   tau(  12) = (   0.9373794   0.2954359   1.1822510  )
        13           O   tau(  13) = (   0.5632995   0.1090956   1.1826481  )
        14           O   tau(  14) = (   0.9373794   0.2644945   0.4055380  )
        15           O   tau(  15) = (   0.4367005   0.2957391   1.1474910  )
        16           O   tau(  16) = (   0.0626206   0.0778511   0.3711751  )
        17           O   tau(  17) = (   0.4052441   0.2184062   0.7507738  )
        18           O   tau(  18) = (   0.0943797   0.1544931   1.5272365  )
        19           O   tau(  19) = (   0.5947559   0.4050497   0.0259393  )
        20           O   tau(  20) = (   0.9056203  -0.0321504   0.8029026  )
        21           O   tau(  21) = (   0.5947559   0.1548807   0.8026523  )
        22           O   tau(  22) = (   0.9056203   0.2187939   0.0261896  )
        23           O   tau(  23) = (   0.4052441  -0.0317628   1.5274868  )
        24           O   tau(  24) = (   0.0943797   0.4054373   0.7505235  )
        25           O   tau(  25) = (   0.3091652   0.4615977   0.7318555  )
        26           O   tau(  26) = (   0.1902323  -0.0884123   1.5090187  )
        27           O   tau(  27) = (   0.6908348   0.2749543   0.0448575  )
        28           O   tau(  28) = (   0.8097677   0.0982311   0.8211204  )
        29           O   tau(  29) = (   0.6908348  -0.0883108   0.8215706  )
        30           O   tau(  30) = (   0.8097677   0.4616993   0.0444073  )
        31           O   tau(  31) = (   0.3091652   0.0983327   1.5085685  )
        32           O   tau(  32) = (   0.1902323   0.2750558   0.7323057  )
        33           N   tau(  33) = (   0.6088099   0.2712517   0.5461536  )
        34           N   tau(  34) = (   0.8914363   0.1023526   1.3228046  )
        35           N   tau(  35) = (   0.3911901   0.4578952   0.2305594  )
        36           N   tau(  36) = (   0.1085637  -0.0842909   1.0073345  )
        37           N   tau(  37) = (   0.3911901   0.1020353   1.0072725  )
        38           N   tau(  38) = (   0.1085637   0.2709343   0.2306214  )
        39           N   tau(  39) = (   0.6088099  -0.0846082   1.3228666  )
        40           N   tau(  40) = (   0.8914363   0.4575778   0.5460916  )
        41           N   tau(  41) = (   0.6671543   0.3384285   0.5855775  )
        42           N   tau(  42) = (   0.8328787   0.0351709   1.3619058  )
        43           N   tau(  43) = (   0.3328457   0.1517851   0.1911355  )
        44           N   tau(  44) = (   0.1671213   0.2218144   0.9682333  )
        45           N   tau(  45) = (   0.3328457   0.0348584   0.9678485  )
        46           N   tau(  46) = (   0.1671213   0.3381161   0.1915203  )
        47           N   tau(  47) = (   0.6671543   0.2215019   1.3622906  )
        48           N   tau(  48) = (   0.8328787   0.1514726   0.5851928  )
        49           N   tau(  49) = (   0.6082626   0.4011446   0.6332897  )
        50           N   tau(  50) = (   0.8916042  -0.0277005   1.4096949  )
        51           N   tau(  51) = (   0.3917374   0.2145011   0.1434234  )
        52           N   tau(  52) = (   0.1083958   0.1589430   0.9204442  )
        53           N   tau(  53) = (   0.3917374  -0.0278576   0.9201364  )
        54           N   tau(  54) = (   0.1083958   0.4009874   0.1437311  )
        55           N   tau(  55) = (   0.6082626   0.1587858   1.4100027  )
        56           N   tau(  56) = (   0.8916042   0.2143440   0.6329819  )
        57           H   tau(  57) = (   0.6342623   0.0859552   0.6744194  )
        58           H   tau(  58) = (   0.8658247   0.2874435   1.4508479  )
        59           H   tau(  59) = (   0.3657377   0.2725986   0.1022936  )
        60           H   tau(  60) = (   0.1341753   0.1008000   0.8792912  )
        61           H   tau(  61) = (   0.3657377   0.2873318   0.8790066  )
        62           H   tau(  62) = (   0.1341753   0.0858435   0.1025782  )
        63           H   tau(  63) = (   0.6342623   0.1006883   1.4511325  )
        64           H   tau(  64) = (   0.8658247   0.2724870   0.6741349  )
        65           N   tau(  65) = (   0.5126614   0.3790355   0.6291080  )
        66           N   tau(  66) = (   0.9872171  -0.0057032   1.4058058  )
        67           N   tau(  67) = (   0.4873386   0.1923920   0.1476050  )
        68           N   tau(  68) = (   0.0127829   0.1809403   0.9243333  )
        69           N   tau(  69) = (   0.4873386  -0.0057485   0.9243180  )
        70           N   tau(  70) = (   0.0127829   0.3789901   0.1476203  )
        71           N   tau(  71) = (   0.5126614   0.1808950   1.4058211  )
        72           N   tau(  72) = (   0.9872171   0.1923467   0.6290928  )
        73           N   tau(  73) = (   0.4097787   0.2276212   0.4470321  )
        74           N   tau(  74) = (   0.0898989   0.1455465   1.2239207  )
        75           N   tau(  75) = (   0.5902213   0.0409777   0.3296810  )
        76           N   tau(  76) = (   0.9101011   0.3321900   1.1062184  )
        77           N   tau(  77) = (   0.5902213   0.1456658   1.1063940  )
        78           N   tau(  78) = (   0.9101011   0.2277404   0.3295053  )
        79           N   tau(  79) = (   0.4097787   0.3323092   1.2237451  )
        80           N   tau(  80) = (   0.0898989   0.0410969   0.4472077  )
        81           N   tau(  81) = (   0.3125241   0.1159812   0.5362144  )
        82           N   tau(  82) = (   0.1873615   0.2573218   1.3128117  )
        83           N   tau(  83) = (   0.6874759   0.3026247   0.2404986  )
        84           N   tau(  84) = (   0.8126385   0.0706783   1.0173275  )
        85           N   tau(  85) = (   0.6874759   0.2573057   1.0172116  )
        86           N   tau(  86) = (   0.8126385   0.1159651   0.2406144  )
        87           N   tau(  87) = (   0.3125241   0.0706623   1.3129275  )
        88           N   tau(  88) = (   0.1873615   0.3026086   0.5360986  )
        89           N   tau(  89) = (   0.3602387   0.1564123   0.7003791  )
        90           N   tau(  90) = (   0.1394312   0.2167398   1.4771720  )
        91           N   tau(  91) = (   0.6397613   0.3430557   0.0763340  )
        92           N   tau(  92) = (   0.8605688   0.0300963   0.8529671  )
        93           N   tau(  93) = (   0.6397613   0.2168747   0.8530470  )
        94           N   tau(  94) = (   0.8605688   0.1565472   0.0762541  )
        95           N   tau(  95) = (   0.3602387   0.0302312   1.4770921  )
        96           N   tau(  96) = (   0.1394312   0.3431906   0.7004590  )
        97           C   tau(  97) = (   0.5150439   0.2970345   0.5740915  )
        98           C   tau(  98) = (   0.9850448   0.0763883   1.3509978  )
        99           C   tau(  99) = (   0.4849561   0.1103911   0.2026216  )
       100           C   tau( 100) = (   0.0149552   0.2630317   0.9791413  )
       101           C   tau( 101) = (   0.4849561   0.0762524   0.9793346  )
       102           C   tau( 102) = (   0.0149552   0.2968987   0.2024282  )
       103           C   tau( 103) = (   0.5150439   0.2628959   1.3508045  )
       104           C   tau( 104) = (   0.9850448   0.1102552   0.5742848  )
       105           C   tau( 105) = (   0.4296386   0.2382037   0.5438884  )
       106           C   tau( 106) = (   0.0703901   0.1350937   1.3208094  )
       107           C   tau( 107) = (   0.5703614   0.4248472   0.2328246  )
       108           C   tau( 108) = (   0.9296099  -0.0515498   1.0093298  )
       109           C   tau( 109) = (   0.5703614   0.1350833   1.0095376  )
       110           C   tau( 110) = (   0.9296099   0.2381932   0.2326167  )
       111           C   tau( 111) = (   0.4296386  -0.0515602   1.3206015  )
       112           C   tau( 112) = (   0.0703901   0.4248367   0.5440963  )
       113           C   tau( 113) = (   0.3687784   0.1691652   0.5944500  )
       114           C   tau( 114) = (   0.1312047   0.2041860   1.3711999  )
       115           C   tau( 115) = (   0.6312216   0.3558087   0.1822631  )
       116           C   tau( 116) = (   0.8687953   0.0175425   0.9589393  )
       117           C   tau( 117) = (   0.6312216   0.2041218   0.9589761  )
       118           C   tau( 118) = (   0.8687953   0.1691010   0.1822262  )
       119           C   tau( 119) = (   0.3687784   0.0174783   1.3711630  )
       120           C   tau( 120) = (   0.1312047   0.3557445   0.5944868  )

     number of k points=     6
                       cart. coord. in units 2pi/alat
        k(    1) = (   0.0000000   0.0000000   0.0000000), wk =   0.2500000
        k(    2) = (   0.0000000   0.6697260   0.0000000), wk =   0.5000000
        k(    3) = (   0.0000000  -1.3394521   0.0000000), wk =   0.2500000
        k(    4) = (  -0.5000000   0.0000000   0.0000000), wk =   0.2500000
        k(    5) = (  -0.5000000   0.6697260   0.0000000), wk =   0.5000000
        k(    6) = (  -0.5000000  -1.3394521   0.0000000), wk =   0.2500000

     Dense  grid:  1304859 G-vectors     FFT dimensions: ( 180,  64, 256)

     Estimated max dynamical RAM per process >    2054.49MB

     Estimated total allocated dynamical RAM >   16435.90MB

     Check: negative/imaginary core charge=   -0.000002    0.000000

     Initial potential from superposition of free atoms

     starting charge  575.99847, renormalised to  576.00000
     Starting wfc are  456 randomized atomic wfcs
     Checking if some PAW data can be deallocated... 

     total cpu time spent up to now is      113.7 secs

     per-process dynamical memory:  1208.9 Mb

     Self-consistent Calculation

     iteration #  1     ecut=   100.00 Ry     beta=0.50
     Davidson diagonalization with overlap
     ethr =  1.00E-02,  avg # of iterations =  3.0

     total cpu time spent up to now is      495.9 secs

     total energy              =   -3357.77745733 Ry
     Harris-Foulkes estimate   =   -3363.39844432 Ry
     estimated scf accuracy    <      10.35406894 Ry

     iteration #  2     ecut=   100.00 Ry     beta=0.50
     Davidson diagonalization with overlap
     ethr =  1.80E-03,  avg # of iterations =  3.3

     total cpu time spent up to now is      766.6 secs

     total energy              =   -3359.24451602 Ry
     Harris-Foulkes estimate   =   -3361.02063774 Ry
     estimated scf accuracy    <       3.86087541 Ry

     iteration #  3     ecut=   100.00 Ry     beta=0.50
     Davidson diagonalization with overlap
     ethr =  6.70E-04,  avg # of iterations =  8.3

     total cpu time spent up to now is     1058.9 secs

     total energy              =   -3359.94376535 Ry
     Harris-Foulkes estimate   =   -3360.36318370 Ry
     estimated scf accuracy    <       0.97272642 Ry

     iteration #  4     ecut=   100.00 Ry     beta=0.50
     Davidson diagonalization with overlap
     ethr =  1.69E-04,  avg # of iterations =  7.8

     total cpu time spent up to now is     1329.5 secs

     total energy              =   -3360.09292218 Ry
     Harris-Foulkes estimate   =   -3360.32598225 Ry
     estimated scf accuracy    <       0.75861104 Ry

     iteration #  5     ecut=   100.00 Ry     beta=0.50
     Davidson diagonalization with overlap
     ethr =  1.32E-04,  avg # of iterations =  2.0

     total cpu time spent up to now is     1534.3 secs

     total energy              =   -3360.20287218 Ry
     Harris-Foulkes estimate   =   -3360.21592992 Ry
     estimated scf accuracy    <       0.03618579 Ry

     iteration #  6     ecut=   100.00 Ry     beta=0.50
     Davidson diagonalization with overlap
     ethr =  6.28E-06,  avg # of iterations = 10.3

     total cpu time spent up to now is     2027.3 secs

     total energy              =   -3360.21606589 Ry
     Harris-Foulkes estimate   =   -3360.22304521 Ry
     estimated scf accuracy    <       0.02025697 Ry

     iteration #  7     ecut=   100.00 Ry     beta=0.50
     Davidson diagonalization with overlap
     ethr =  3.52E-06,  avg # of iterations =  7.7

     total cpu time spent up to now is     2270.8 secs

     total energy              =   -3360.21894739 Ry
     Harris-Foulkes estimate   =   -3360.21976870 Ry
     estimated scf accuracy    <       0.00235360 Ry

     iteration #  8     ecut=   100.00 Ry     beta=0.50
     Davidson diagonalization with overlap
     ethr =  4.09E-07,  avg # of iterations =  3.7

     total cpu time spent up to now is     2581.6 secs

     total energy              =   -3360.21966258 Ry
     Harris-Foulkes estimate   =   -3360.21988949 Ry
     estimated scf accuracy    <       0.00064245 Ry

     iteration #  9     ecut=   100.00 Ry     beta=0.50
     Davidson diagonalization with overlap
     ethr =  1.12E-07,  avg # of iterations =  2.8

     total cpu time spent up to now is     2796.0 secs

     total energy              =   -3360.21975554 Ry
     Harris-Foulkes estimate   =   -3360.21977735 Ry
     estimated scf accuracy    <       0.00007086 Ry

     iteration # 10     ecut=   100.00 Ry     beta=0.50
     Davidson diagonalization with overlap
     ethr =  1.23E-08,  avg # of iterations =  4.0

     total cpu time spent up to now is     3184.7 secs

     total energy              =   -3360.21978480 Ry
     Harris-Foulkes estimate   =   -3360.21979979 Ry
     estimated scf accuracy    <       0.00004618 Ry

     iteration # 11     ecut=   100.00 Ry     beta=0.50
     Davidson diagonalization with overlap
     ethr =  8.02E-09,  avg # of iterations =  2.0

     total cpu time spent up to now is     3399.7 secs

     total energy              =   -3360.21978992 Ry
     Harris-Foulkes estimate   =   -3360.21979324 Ry
     estimated scf accuracy    <       0.00001004 Ry

     iteration # 12     ecut=   100.00 Ry     beta=0.50
     Davidson diagonalization with overlap
     ethr =  1.74E-09,  avg # of iterations =  3.0

     total cpu time spent up to now is     3667.9 secs

     total energy              =   -3360.21979219 Ry
     Harris-Foulkes estimate   =   -3360.21979298 Ry
     estimated scf accuracy    <       0.00000254 Ry

     iteration # 13     ecut=   100.00 Ry     beta=0.50
     Davidson diagonalization with overlap
     ethr =  4.41E-10,  avg # of iterations =  2.2

     total cpu time spent up to now is     3897.5 secs

     total energy              =   -3360.21979243 Ry
     Harris-Foulkes estimate   =   -3360.21979295 Ry
     estimated scf accuracy    <       0.00000146 Ry

     iteration # 14     ecut=   100.00 Ry     beta=0.50
     Davidson diagonalization with overlap
     ethr =  2.54E-10,  avg # of iterations =  2.0

     total cpu time spent up to now is     4107.7 secs

     total energy              =   -3360.21979265 Ry
     Harris-Foulkes estimate   =   -3360.21979277 Ry
     estimated scf accuracy    <       0.00000034 Ry

     iteration # 15     ecut=   100.00 Ry     beta=0.50
     Davidson diagonalization with overlap
     ethr =  5.88E-11,  avg # of iterations =  3.2

     total cpu time spent up to now is     4349.2 secs

     total energy              =   -3360.21979273 Ry
     Harris-Foulkes estimate   =   -3360.21979276 Ry
     estimated scf accuracy    <       0.00000011 Ry

     iteration # 16     ecut=   100.00 Ry     beta=0.50
     Davidson diagonalization with overlap
     ethr =  1.94E-11,  avg # of iterations =  2.3

     total cpu time spent up to now is     4567.0 secs

     total energy              =   -3360.21979275 Ry
     Harris-Foulkes estimate   =   -3360.21979275 Ry
     estimated scf accuracy    <       0.00000001 Ry

     iteration # 17     ecut=   100.00 Ry     beta=0.50
     Davidson diagonalization with overlap
     ethr =  1.81E-12,  avg # of iterations =  3.5

     total cpu time spent up to now is     4949.9 secs

     End of self-consistent calculation

          k = 0.0000 0.0000 0.0000 (162985 PWs)   bands (ev):

   -24.0875 -24.0868 -24.0719 -24.0712 -24.0243 -24.0236 -24.0081 -24.0075
   -23.4999 -23.4998 -23.4708 -23.4706 -23.4396 -23.4393 -23.4082 -23.4080
   -21.7345 -21.7336 -21.7108 -21.7106 -21.6819 -21.6809 -21.6601 -21.6600
   -21.4582 -21.4578 -21.4528 -21.4525 -21.4470 -21.4465 -21.4414 -21.4412
   -19.6504 -19.6504 -19.6455 -19.6455 -19.6153 -19.6153 -19.6090 -19.6090
   -16.3710 -16.3696 -16.3681 -16.3681 -16.3623 -16.3604 -16.3591 -16.3587
   -15.9243 -15.9109 -15.9107 -15.9003 -15.9002 -15.8861 -15.8853 -15.8740
   -14.9807 -14.9608 -14.9603 -14.9396 -14.9200 -14.9045 -14.9017 -14.8855
   -14.4138 -14.4080 -14.4048 -14.4027 -14.4009 -14.3980 -14.3939 -14.3909
   -11.7729 -11.7677 -11.7475 -11.7426 -11.7362 -11.7346 -11.7103 -11.7086
   -10.3298 -10.3224 -10.3110 -10.3055 -10.2901 -10.2837 -10.2713 -10.2670
    -9.5716  -9.5574  -9.5571  -9.5445  -9.5426  -9.5404  -9.5229  -9.5202
    -8.7155  -8.7047  -8.6773  -8.6658  -8.6140  -8.5907  -8.5904  -8.5684
    -8.2271  -8.2169  -8.2061  -8.1913  -8.1765  -8.1693  -8.1527  -8.1400
    -7.3069  -7.2582  -7.2347  -7.2134  -7.1424  -7.1380  -6.9620  -6.9406
    -6.8731  -6.8277  -6.8223  -6.8174  -6.7779  -6.7465  -6.7068  -6.7003
    -6.4826  -6.4757  -6.4305  -6.3896  -6.3731  -6.3678  -6.3179  -6.2985
    -6.1038  -6.0888  -6.0871  -6.0605  -6.0574  -5.9342  -5.9340  -5.9112
    -5.7566  -5.7386  -5.6882  -5.6824  -5.6711  -5.6509  -5.6092  -5.5963
    -5.5114  -5.4511  -5.4446  -5.4215  -5.3384  -5.3380  -5.2967  -5.2779
    -5.1987  -5.1322  -5.1167  -5.1129  -5.1042  -5.0312  -5.0179  -4.9558
    -4.7893  -4.7837  -4.7607  -4.7544  -4.6558  -4.6317  -4.6125  -4.5772
    -3.9109  -3.8932  -3.8281  -3.7944  -3.7893  -3.7766  -3.7739  -3.7612
    -3.6965  -3.6950  -3.6902  -3.6859  -3.6791  -3.6710  -3.5566  -3.5516
    -2.5660  -2.5517  -2.4585  -2.4580  -2.3479  -2.3343  -2.2542  -2.2539
    -2.1134  -2.0928  -2.0676  -2.0425  -1.9466  -1.9335  -1.9203  -1.9028
    -1.3761  -1.3556  -1.1235  -1.1101  -1.1053  -1.0697  -1.0177  -1.0014
    -0.9373  -0.9340  -0.9334  -0.9211  -0.9057  -0.8202  -0.7386  -0.7216
    -0.7031  -0.6876  -0.6738  -0.6699  -0.6617  -0.6568  -0.6537  -0.6109
    -0.5996  -0.5804  -0.5232  -0.5090  -0.4974  -0.4891  -0.4874  -0.4713
    -0.3798  -0.3777  -0.3359  -0.3249  -0.3025  -0.2948  -0.2715  -0.1797
    -0.1768  -0.1759  -0.1751  -0.1562  -0.0595  -0.0338  -0.0105  -0.0012
     0.0269   0.0331   0.0353   0.0675   0.0733   0.0780   0.0837   0.1294
     0.1800   0.1850   0.2043   0.2202   0.2438   0.2570   0.2639   0.2802
     0.4453   0.4642   0.5312   0.5354   0.5690   0.5751   0.6715   0.6753
     0.9224   0.9293   1.0499   1.0503   1.0661   1.0753   1.1875   1.1881
     3.3391   3.3419   3.5036   3.5081   3.5419   3.5491   3.6745   3.6777
     4.5060   4.5511   4.5536   4.6073   4.6179   4.6255   4.6631   4.6798
     5.3267   5.3284   5.3984   5.4048   5.4845   5.4890   5.5357   5.5369
     5.7575   5.7690   5.7729   5.7742   5.7783   5.7806   5.7836   5.7868
     6.5963   6.6075   6.6200   6.6579   6.6844   6.7032   6.7193   6.7408
     7.1444   7.1919   7.2044   7.2461   7.2716   7.3059   7.3182   7.3414
     8.1775   8.3604   8.5543   8.6228   8.6274   8.6784   8.7481   8.8283
     8.8901

          k = 0.0000 0.6697 0.0000 (163084 PWs)   bands (ev):

   -24.0763 -24.0758 -24.0608 -24.0604 -24.0314 -24.0309 -24.0155 -24.0151
   -23.4845 -23.4842 -23.4633 -23.4630 -23.4415 -23.4412 -23.4191 -23.4188
   -21.7263 -21.7256 -21.7101 -21.7098 -21.6893 -21.6886 -21.6738 -21.6735
   -21.4522 -21.4510 -21.4482 -21.4475 -21.4441 -21.4429 -21.4401 -21.4393
   -19.6554 -19.6554 -19.6509 -19.6509 -19.6191 -19.6191 -19.6136 -19.6136
   -16.3822 -16.3807 -16.3772 -16.3764 -16.3759 -16.3745 -16.3708 -16.3700
   -15.9093 -15.8995 -15.8991 -15.8930 -15.8916 -15.8821 -15.8818 -15.8733
   -14.9826 -14.9694 -14.9647 -14.9512 -14.9405 -14.9279 -14.9269 -14.9139
   -14.4161 -14.4106 -14.4105 -14.4056 -14.4055 -14.4012 -14.4004 -14.3964
   -11.7605 -11.7557 -11.7410 -11.7364 -11.7327 -11.7325 -11.7151 -11.7151
   -10.3251 -10.3208 -10.3128 -10.3083 -10.2901 -10.2865 -10.2775 -10.2741
    -9.5468  -9.5357  -9.5353  -9.5252  -9.5168  -9.5131  -9.5003  -9.4976
    -8.6857  -8.6813  -8.6638  -8.6592  -8.6168  -8.5991  -8.5971  -8.5779
    -8.2102  -8.2005  -8.1963  -8.1821  -8.1735  -8.1664  -8.1604  -8.1457
    -7.3181  -7.3069  -7.1635  -7.1530  -7.0951  -7.0893  -7.0204  -6.9969
    -6.8919  -6.8887  -6.8486  -6.8166  -6.7947  -6.7429  -6.6809  -6.6721
    -6.5764  -6.5467  -6.4308  -6.4284  -6.3793  -6.3779  -6.2704  -6.2591
    -6.1181  -6.0808  -6.0713  -6.0712  -6.0656  -6.0324  -5.9527  -5.9383
    -5.7596  -5.7495  -5.7276  -5.7006  -5.6945  -5.6814  -5.6321  -5.6300
    -5.5432  -5.5036  -5.4247  -5.4159  -5.4061  -5.3293  -5.3002  -5.2675
    -5.1818  -5.1449  -5.1268  -5.1100  -5.0289  -5.0253  -5.0000  -4.9921
    -4.7922  -4.7853  -4.7651  -4.7436  -4.7100  -4.6925  -4.6745  -4.6437
    -3.8361  -3.8241  -3.8069  -3.7843  -3.7833  -3.7710  -3.7679  -3.7595
    -3.6899  -3.6826  -3.6609  -3.6501  -3.6445  -3.6421  -3.5736  -3.5632
    -2.5255  -2.5092  -2.4524  -2.4478  -2.3458  -2.3328  -2.2798  -2.2777
    -2.0457  -2.0124  -2.0119  -1.9727  -1.9377  -1.9267  -1.9052  -1.8934
    -1.2362  -1.1972  -1.1301  -1.1192  -1.0950  -1.0931  -1.0512  -1.0338
    -1.0074  -1.0013  -0.8802  -0.8715  -0.8260  -0.7772  -0.7675  -0.7605
    -0.7177  -0.6970  -0.6884  -0.6649  -0.6598  -0.6449  -0.6348  -0.5902
    -0.5609  -0.5528  -0.5432  -0.5358  -0.4796  -0.4533  -0.4373  -0.4307
    -0.3374  -0.3251  -0.3041  -0.2836  -0.2641  -0.2488  -0.2189  -0.1962
    -0.1652  -0.1380  -0.1106  -0.1005  -0.0090  -0.0049   0.0120   0.0231
     0.0562   0.0592   0.0770   0.0843   0.0910   0.0920   0.1123   0.1290
     0.1754   0.2139   0.2462   0.2484   0.2543   0.2783   0.2818   0.2857
     0.5019   0.5181   0.5371   0.5422   0.5671   0.5891   0.6261   0.6326
     0.9609   0.9642   1.0521   1.0641   1.0803   1.0844   1.1688   1.1814
     3.2878   3.2893   3.3997   3.4002   3.5024   3.5071   3.5875   3.5912
     4.5493   4.5782   4.6102   4.6340   4.6382   4.6661   4.6738   4.7019
     5.3565   5.3603   5.4126   5.4192   5.4393   5.4530   5.5026   5.5154
     5.6865   5.6894   5.6942   5.7016   5.7040   5.7047   5.7065   5.7105
     6.5209   6.5396   6.5759   6.5882   6.5926   6.6068   6.6420   6.6578
     7.1483   7.1846   7.1933   7.2281   7.2362   7.2646   7.2722   7.2919
     8.4245   8.5661   8.7636   8.7834   8.8381   8.9104   8.9377   8.9422
     8.9784

          k = 0.0000-1.3395 0.0000 (163178 PWs)   bands (ev):

   -24.0541 -24.0541 -24.0492 -24.0492 -24.0388 -24.0388 -24.0336 -24.0336
   -23.4525 -23.4525 -23.4522 -23.4522 -23.4466 -23.4466 -23.4462 -23.4462
   -21.7056 -21.7056 -21.7055 -21.7055 -21.6999 -21.6999 -21.6998 -21.6998
   -21.4433 -21.4433 -21.4417 -21.4417 -21.4416 -21.4416 -21.4400 -21.4400
   -19.6603 -19.6603 -19.6564 -19.6564 -19.6228 -19.6228 -19.6184 -19.6184
   -16.3925 -16.3925 -16.3889 -16.3889 -16.3863 -16.3863 -16.3827 -16.3827
   -15.8853 -15.8853 -15.8846 -15.8846 -15.8809 -15.8809 -15.8802 -15.8802
   -14.9711 -14.9711 -14.9668 -14.9668 -14.9593 -14.9593 -14.9551 -14.9551
   -14.4142 -14.4142 -14.4129 -14.4129 -14.4067 -14.4067 -14.4055 -14.4055
   -11.7359 -11.7359 -11.7328 -11.7328 -11.7314 -11.7314 -11.7284 -11.7284
   -10.3185 -10.3185 -10.3162 -10.3162 -10.2875 -10.2875 -10.2857 -10.2857
    -9.5154  -9.5154  -9.5105  -9.5105  -9.4843  -9.4843  -9.4790  -9.4790
    -8.6462  -8.6462  -8.6415  -8.6415  -8.6177  -8.6177  -8.6124  -8.6124
    -8.1813  -8.1813  -8.1771  -8.1771  -8.1705  -8.1705  -8.1664  -8.1664
    -7.2445  -7.2445  -7.2192  -7.2192  -7.0183  -7.0183  -6.9959  -6.9959
    -6.9266  -6.9266  -6.9210  -6.9210  -6.7827  -6.7827  -6.7656  -6.7656
    -6.4267  -6.4267  -6.4097  -6.4097  -6.3642  -6.3642  -6.3623  -6.3623
    -6.1265  -6.1265  -6.0734  -6.0734  -6.0601  -6.0601  -6.0145  -6.0145
    -5.8380  -5.8380  -5.7163  -5.7163  -5.6539  -5.6539  -5.6132  -5.6132
    -5.5567  -5.5567  -5.4156  -5.4156  -5.3813  -5.3813  -5.3448  -5.3448
    -5.1351  -5.1351  -5.1293  -5.1293  -4.9901  -4.9901  -4.9755  -4.9755
    -4.7807  -4.7807  -4.7783  -4.7783  -4.7490  -4.7490  -4.7373  -4.7373
    -3.7895  -3.7895  -3.7785  -3.7785  -3.7707  -3.7707  -3.7587  -3.7587
    -3.6456  -3.6456  -3.6266  -3.6266  -3.6112  -3.6112  -3.5962  -3.5962
    -2.3999  -2.3999  -2.3924  -2.3924  -2.3889  -2.3889  -2.3828  -2.3828
    -1.9441  -1.9441  -1.9334  -1.9334  -1.9019  -1.9019  -1.8885  -1.8885
    -1.1562  -1.1562  -1.1455  -1.1455  -1.1366  -1.1366  -1.1213  -1.1213
    -0.9226  -0.9226  -0.9198  -0.9198  -0.6910  -0.6910  -0.6875  -0.6875
    -0.6379  -0.6379  -0.6318  -0.6318  -0.6122  -0.6122  -0.5991  -0.5991
    -0.5275  -0.5275  -0.5189  -0.5189  -0.4651  -0.4651  -0.4559  -0.4559
    -0.3240  -0.3240  -0.3172  -0.3172  -0.1667  -0.1667  -0.1556  -0.1556
    -0.1100  -0.1100  -0.0979  -0.0979  -0.0655  -0.0655  -0.0188  -0.0188
     0.0870   0.0870   0.0998   0.0998   0.1151   0.1151   0.1207   0.1207
     0.2444   0.2444   0.2768   0.2768   0.3224   0.3224   0.3376   0.3376
     0.5371   0.5371   0.5452   0.5452   0.5613   0.5613   0.5656   0.5656
     1.0788   1.0788   1.0857   1.0857   1.0919   1.0919   1.0982   1.0982
     3.2629   3.2629   3.2634   3.2634   3.4805   3.4805   3.4826   3.4826
     4.6447   4.6447   4.6505   4.6505   4.6964   4.6964   4.7016   4.7016
     5.4050   5.4050   5.4211   5.4211   5.4288   5.4288   5.4427   5.4427
     5.6047   5.6047   5.6164   5.6164   5.6270   5.6270   5.6391   5.6391
     6.4583   6.4583   6.4766   6.4766   6.5259   6.5259   6.5430   6.5430
     7.2136   7.2136   7.2165   7.2165   7.2293   7.2293   7.2328   7.2328
     8.7913   8.7913   8.8274   8.8274   8.9165   8.9165   8.9551   8.9551
     9.1719

          k =-0.5000 0.0000 0.0000 (163006 PWs)   bands (ev):

   -24.0810 -24.0807 -24.0799 -24.0797 -24.0157 -24.0156 -24.0143 -24.0141
   -23.4910 -23.4908 -23.4865 -23.4864 -23.4236 -23.4233 -23.4174 -23.4172
   -21.7260 -21.7254 -21.7238 -21.7233 -21.6698 -21.6695 -21.6673 -21.6672
   -21.4564 -21.4560 -21.4557 -21.4554 -21.4440 -21.4437 -21.4432 -21.4429
   -19.6500 -19.6500 -19.6461 -19.6461 -19.6143 -19.6143 -19.6098 -19.6098
   -16.3704 -16.3692 -16.3690 -16.3686 -16.3607 -16.3600 -16.3597 -16.3595
   -15.9182 -15.9177 -15.9070 -15.9065 -15.8924 -15.8917 -15.8798 -15.8787
   -14.9649 -14.9622 -14.9579 -14.9578 -14.9059 -14.9056 -14.9006 -14.8981
   -14.4149 -14.4109 -14.4102 -14.4092 -14.3935 -14.3929 -14.3916 -14.3894
   -11.7654 -11.7629 -11.7608 -11.7587 -11.7198 -11.7187 -11.7176 -11.7166
   -10.3216 -10.3197 -10.3148 -10.3135 -10.2811 -10.2800 -10.2755 -10.2749
    -9.5687  -9.5639  -9.5553  -9.5517  -9.5320  -9.5310  -9.5281  -9.5261
    -8.7127  -8.7085  -8.6748  -8.6706  -8.6027  -8.5994  -8.5810  -8.5775
    -8.2189  -8.2142  -8.2063  -8.2016  -8.1671  -8.1618  -8.1571  -8.1517
    -7.2802  -7.2767  -7.2425  -7.2384  -7.0726  -7.0686  -7.0674  -7.0628
    -6.8284  -6.8279  -6.7911  -6.7905  -6.7136  -6.7112  -6.7013  -6.6992
    -6.4995  -6.4989  -6.4932  -6.4928  -6.3185  -6.3160  -6.3137  -6.3123
    -6.1021  -6.1014  -6.0692  -6.0679  -6.0097  -6.0071  -5.9018  -5.9005
    -5.7585  -5.7532  -5.6803  -5.6794  -5.6655  -5.6612  -5.5969  -5.5912
    -5.5146  -5.5133  -5.3808  -5.3778  -5.3693  -5.3615  -5.2877  -5.2851
    -5.1650  -5.1617  -5.1172  -5.1125  -5.0745  -5.0721  -4.9885  -4.9864
    -4.7879  -4.7849  -4.7604  -4.7562  -4.6419  -4.6385  -4.5941  -4.5896
    -3.8773  -3.8755  -3.8584  -3.8572  -3.7840  -3.7813  -3.7750  -3.7720
    -3.6928  -3.6927  -3.6919  -3.6903  -3.6084  -3.6047  -3.6024  -3.5990
    -2.5228  -2.5225  -2.5130  -2.5126  -2.2962  -2.2937  -2.2914  -2.2893
    -2.0618  -2.0618  -2.0587  -2.0581  -1.9439  -1.9429  -1.9360  -1.9349
    -1.2891  -1.2885  -1.2641  -1.2636  -1.0712  -1.0663  -1.0408  -1.0360
    -0.9392  -0.9364  -0.8997  -0.8970  -0.7372  -0.7370  -0.7368  -0.7349
    -0.7180  -0.7162  -0.6979  -0.6968  -0.6342  -0.6335  -0.6206  -0.6195
    -0.5830  -0.5788  -0.5730  -0.5696  -0.4952  -0.4947  -0.4939  -0.4927
    -0.3503  -0.3495  -0.3488  -0.3457  -0.3275  -0.3269  -0.2504  -0.2500
    -0.1740  -0.1729  -0.1414  -0.1414  -0.0090  -0.0062  -0.0056  -0.0030
     0.0247   0.0252   0.0463   0.0480   0.0965   0.0969   0.1133   0.1171
     0.1721   0.1766   0.2007   0.2049   0.2441   0.2481   0.2631   0.2673
     0.4580   0.4581   0.4660   0.4665   0.6443   0.6445   0.6492   0.6493
     0.9584   0.9590   0.9635   0.9642   1.1540   1.1565   1.1570   1.1596
     3.3969   3.3978   3.4002   3.4010   3.6312   3.6339   3.6370   3.6397
     4.5340   4.5365   4.5422   4.5431   4.6553   4.6564   4.6705   4.6738
     5.3525   5.3552   5.3558   5.3583   5.5147   5.5157   5.5160   5.5168
     5.7668   5.7688   5.7748   5.7759   5.7812   5.7815   5.7852   5.7874
     6.5939   6.6023   6.6288   6.6374   6.6866   6.6952   6.7201   6.7293
     7.1897   7.1970   7.2122   7.2122   7.3048   7.3055   7.3131   7.3195
     8.3143   8.3160   8.4919   8.4938   8.6366   8.6423   8.8897   8.8903
     8.8926

          k =-0.5000 0.6697 0.0000 (163086 PWs)   bands (ev):

   -24.0705 -24.0703 -24.0689 -24.0688 -24.0229 -24.0228 -24.0211 -24.0209
   -23.4786 -23.4784 -23.4739 -23.4737 -23.4308 -23.4306 -23.4249 -23.4246
   -21.7208 -21.7203 -21.7186 -21.7182 -21.6810 -21.6808 -21.6787 -21.6785
   -21.4508 -21.4500 -21.4499 -21.4495 -21.4416 -21.4416 -21.4410 -21.4407
   -19.6552 -19.6552 -19.6513 -19.6513 -19.6185 -19.6185 -19.6141 -19.6141
   -16.3815 -16.3802 -16.3789 -16.3784 -16.3733 -16.3732 -16.3714 -16.3708
   -15.9046 -15.9042 -15.8964 -15.8959 -15.8874 -15.8867 -15.8778 -15.8769
   -14.9717 -14.9688 -14.9657 -14.9653 -14.9290 -14.9288 -14.9252 -14.9225
   -14.4161 -14.4121 -14.4118 -14.4110 -14.4006 -14.3995 -14.3994 -14.3960
   -11.7549 -11.7525 -11.7504 -11.7483 -11.7220 -11.7215 -11.7200 -11.7194
   -10.3202 -10.3183 -10.3153 -10.3139 -10.2845 -10.2832 -10.2806 -10.2796
    -9.5443  -9.5394  -9.5337  -9.5293  -9.5096  -9.5072  -9.5047  -9.5021
    -8.6861  -8.6817  -8.6642  -8.6599  -8.6082  -8.6047  -8.5900  -8.5863
    -8.2054  -8.2010  -8.1937  -8.1893  -8.1693  -8.1644  -8.1584  -8.1534
    -7.2693  -7.2667  -7.2520  -7.2494  -7.0297  -7.0263  -7.0169  -7.0126
    -6.8716  -6.8702  -6.8617  -6.8599  -6.7585  -6.7578  -6.7336  -6.7331
    -6.4663  -6.4652  -6.4593  -6.4580  -6.3407  -6.3390  -6.3224  -6.3203
    -6.1009  -6.1007  -6.0826  -6.0818  -6.0366  -6.0360  -5.9524  -5.9513
    -5.8085  -5.8070  -5.7164  -5.7144  -5.6469  -5.6461  -5.5971  -5.5932
    -5.5520  -5.5503  -5.3993  -5.3981  -5.3857  -5.3824  -5.2835  -5.2814
    -5.1564  -5.1521  -5.1277  -5.1229  -5.0239  -5.0232  -5.0021  -5.0018
    -4.7906  -4.7884  -4.7582  -4.7547  -4.6999  -4.6971  -4.6590  -4.6550
    -3.8215  -3.8191  -3.8045  -3.8024  -3.7799  -3.7773  -3.7664  -3.7637
    -3.6932  -3.6919  -3.6869  -3.6861  -3.5949  -3.5917  -3.5850  -3.5815
    -2.4908  -2.4906  -2.4825  -2.4821  -2.3101  -2.3085  -2.3062  -2.3048
    -2.0155  -2.0151  -2.0085  -2.0078  -1.9183  -1.9179  -1.9087  -1.9071
    -1.1843  -1.1817  -1.1388  -1.1371  -1.0696  -1.0680  -1.0661  -1.0655
    -1.0134  -1.0100  -0.9787  -0.9762  -0.7617  -0.7596  -0.7392  -0.7377
    -0.6935  -0.6933  -0.6675  -0.6664  -0.6300  -0.6299  -0.6167  -0.6154
    -0.5284  -0.5283  -0.5243  -0.5231  -0.4962  -0.4958  -0.4898  -0.4884
    -0.3328  -0.3313  -0.2961  -0.2959  -0.2142  -0.2136  -0.1757  -0.1756
    -0.1354  -0.1347  -0.0973  -0.0965  -0.0673  -0.0658  -0.0259  -0.0254
     0.0431   0.0443   0.0773   0.0790   0.1085   0.1105   0.1169   0.1187
     0.2029   0.2033   0.2387   0.2388   0.2811   0.2827   0.2965   0.2992
     0.5091   0.5094   0.5152   0.5159   0.6051   0.6052   0.6159   0.6159
     0.9986   0.9997   1.0001   1.0009   1.1362   1.1393   1.1461   1.1491
     3.3336   3.3343   3.3346   3.3354   3.5538   3.5561   3.5580   3.5603
     4.5717   4.5749   4.5873   4.5885   4.6762   4.6770   4.6881   4.6913
     5.3746   5.3765   5.3796   5.3814   5.4797   5.4806   5.4907   5.4916
     5.6876   5.6891   5.6992   5.6998   5.7001   5.7011   5.7074   5.7094
     6.5259   6.5335   6.5737   6.5814   6.5978   6.6058   6.6427   6.6509
     7.1847   7.1947   7.2094   7.2095   7.2504   7.2513   7.2616   7.2707
     8.5625   8.5627   8.6792   8.6802   8.8652   8.8654   8.9196   8.9268
     9.0189

          k =-0.5000-1.3395 0.0000 (163216 PWs)   bands (ev):

   -24.0541 -24.0541 -24.0492 -24.0492 -24.0389 -24.0389 -24.0336 -24.0336
   -23.4525 -23.4525 -23.4522 -23.4522 -23.4466 -23.4466 -23.4462 -23.4462
   -21.7056 -21.7056 -21.7055 -21.7055 -21.6999 -21.6999 -21.6998 -21.6998
   -21.4433 -21.4433 -21.4417 -21.4417 -21.4416 -21.4416 -21.4400 -21.4400
   -19.6603 -19.6603 -19.6564 -19.6564 -19.6228 -19.6228 -19.6184 -19.6184
   -16.3925 -16.3925 -16.3889 -16.3889 -16.3863 -16.3863 -16.3827 -16.3827
   -15.8852 -15.8852 -15.8846 -15.8846 -15.8810 -15.8810 -15.8802 -15.8802
   -14.9710 -14.9710 -14.9665 -14.9665 -14.9596 -14.9596 -14.9552 -14.9552
   -14.4141 -14.4141 -14.4128 -14.4128 -14.4067 -14.4067 -14.4055 -14.4055
   -11.7356 -11.7356 -11.7328 -11.7328 -11.7314 -11.7314 -11.7288 -11.7288
   -10.3184 -10.3184 -10.3165 -10.3165 -10.2874 -10.2874 -10.2859 -10.2859
    -9.5148  -9.5148  -9.5098  -9.5098  -9.4847  -9.4847  -9.4793  -9.4793
    -8.6450  -8.6450  -8.6402  -8.6402  -8.6183  -8.6183  -8.6147  -8.6147
    -8.1807  -8.1807  -8.1765  -8.1765  -8.1713  -8.1713  -8.1669  -8.1669
    -7.2184  -7.2184  -7.2152  -7.2152  -7.0730  -7.0730  -7.0670  -7.0670
    -6.8514  -6.8514  -6.8486  -6.8486  -6.7770  -6.7770  -6.7748  -6.7748
    -6.5009  -6.5009  -6.4981  -6.4981  -6.3069  -6.3069  -6.3039  -6.3039
    -6.1163  -6.1163  -6.1146  -6.1146  -6.0263  -6.0263  -6.0254  -6.0254
    -5.7476  -5.7476  -5.7457  -5.7457  -5.6836  -5.6836  -5.6810  -5.6810
    -5.4809  -5.4809  -5.4756  -5.4756  -5.3522  -5.3522  -5.3513  -5.3513
    -5.1331  -5.1331  -5.1274  -5.1274  -4.9834  -4.9834  -4.9820  -4.9820
    -4.7797  -4.7797  -4.7773  -4.7773  -4.7443  -4.7443  -4.7408  -4.7408
    -3.7873  -3.7873  -3.7832  -3.7832  -3.7691  -3.7691  -3.7645  -3.7645
    -3.6293  -3.6293  -3.6255  -3.6255  -3.6133  -3.6133  -3.6093  -3.6093
    -2.3944  -2.3944  -2.3922  -2.3922  -2.3875  -2.3875  -2.3856  -2.3856
    -1.9408  -1.9408  -1.9377  -1.9377  -1.8970  -1.8970  -1.8944  -1.8944
    -1.1502  -1.1502  -1.1466  -1.1466  -1.1305  -1.1305  -1.1274  -1.1274
    -0.9240  -0.9240  -0.9207  -0.9207  -0.6921  -0.6921  -0.6906  -0.6906
    -0.6556  -0.6556  -0.6549  -0.6549  -0.6006  -0.6006  -0.5981  -0.5981
    -0.5228  -0.5228  -0.5209  -0.5209  -0.4642  -0.4642  -0.4574  -0.4574
    -0.3127  -0.3127  -0.3105  -0.3105  -0.1682  -0.1682  -0.1675  -0.1675
    -0.0805  -0.0805  -0.0778  -0.0778  -0.0301  -0.0301  -0.0271  -0.0271
     0.0772   0.0772   0.0806   0.0806   0.0965   0.0965   0.1005   0.1005
     0.2815   0.2815   0.2847   0.2847   0.3070   0.3070   0.3103   0.3103
     0.5519   0.5519   0.5541   0.5541   0.5579   0.5579   0.5604   0.5604
     1.0788   1.0788   1.0823   1.0823   1.0928   1.0928   1.0962   1.0962
     3.2632   3.2632   3.2644   3.2644   3.4800   3.4800   3.4819   3.4819
     4.6454   4.6454   4.6504   4.6504   4.6963   4.6963   4.7011   4.7011
     5.4105   5.4105   5.4109   5.4109   5.4347   5.4347   5.4352   5.4352
     5.6128   5.6128   5.6137   5.6137   5.6333   5.6333   5.6349   5.6349
     6.4666   6.4666   6.4738   6.4738   6.5274   6.5274   6.5345   6.5345
     7.2156   7.2156   7.2180   7.2180   7.2275   7.2275   7.2305   7.2305
     8.8084   8.8085   8.8131   8.8131   8.9264   8.9265   8.9271   8.9271
     9.2014

     highest occupied, lowest unoccupied level (ev):     1.1881    3.2629

!    total energy              =   -3360.21979276 Ry
     Harris-Foulkes estimate   =   -3360.21979276 Ry
     estimated scf accuracy    <          4.8E-09 Ry

     total all-electron energy =    -12782.391611 Ry

     The total energy is the sum of the following terms:

     one-electron contribution =   -1739.71565163 Ry
     hartree contribution      =    1106.31329700 Ry
     xc contribution           =    -640.73775446 Ry
     ewald contribution        =   -1157.15096313 Ry
     Dispersion Correction     =      -0.55437960 Ry
     one-center paw contrib.   =    -928.37434093 Ry

     convergence has been achieved in  17 iterations

     Forces acting on atoms (cartesian axes, Ry/au):

     atom    1 type  4   force =    -0.00180349   -0.00049297    0.00259114
     atom    2 type  4   force =     0.00226512    0.00051598    0.00263248
     atom    3 type  4   force =     0.00180349   -0.00049297   -0.00259114
     atom    4 type  4   force =    -0.00226512    0.00051598   -0.00263248
     atom    5 type  4   force =     0.00180349    0.00049297   -0.00259114
     atom    6 type  4   force =    -0.00226512   -0.00051598   -0.00263248
     atom    7 type  4   force =    -0.00180349    0.00049297    0.00259114
     atom    8 type  4   force =     0.00226512   -0.00051598    0.00263248
     atom    9 type  4   force =     0.00102292   -0.00104582   -0.00153052
     atom   10 type  4   force =    -0.00024096    0.00172068   -0.00211805
     atom   11 type  4   force =    -0.00102292   -0.00104582    0.00153052
     atom   12 type  4   force =     0.00024096    0.00172068    0.00211805
     atom   13 type  4   force =    -0.00102292    0.00104582    0.00153052
     atom   14 type  4   force =     0.00024096   -0.00172068    0.00211805
     atom   15 type  4   force =     0.00102292    0.00104582   -0.00153052
     atom   16 type  4   force =    -0.00024096   -0.00172068   -0.00211805
     atom   17 type  4   force =    -0.00376226   -0.00459360    0.00051022
     atom   18 type  4   force =     0.00421298    0.00498068    0.00067801
     atom   19 type  4   force =     0.00376226   -0.00459360   -0.00051022
     atom   20 type  4   force =    -0.00421298    0.00498068   -0.00067801
     atom   21 type  4   force =     0.00376226    0.00459360   -0.00051022
     atom   22 type  4   force =    -0.00421298   -0.00498068   -0.00067801
     atom   23 type  4   force =    -0.00376226    0.00459360    0.00051022
     atom   24 type  4   force =     0.00421298   -0.00498068    0.00067801
     atom   25 type  4   force =     0.00477981    0.00399972    0.00103071
     atom   26 type  4   force =    -0.00454159   -0.00389844    0.00071665
     atom   27 type  4   force =    -0.00477981    0.00399972   -0.00103071
     atom   28 type  4   force =     0.00454159   -0.00389844   -0.00071665
     atom   29 type  4   force =    -0.00477981   -0.00399972   -0.00103071
     atom   30 type  4   force =     0.00454159    0.00389844   -0.00071665
     atom   31 type  4   force =     0.00477981   -0.00399972    0.00103071
     atom   32 type  4   force =    -0.00454159    0.00389844    0.00071665
     atom   33 type  2   force =    -0.00602382    0.00395008    0.00866220
     atom   34 type  2   force =     0.00522149   -0.00454730    0.00883812
     atom   35 type  2   force =     0.00602382    0.00395008   -0.00866220
     atom   36 type  2   force =    -0.00522149   -0.00454730   -0.00883812
     atom   37 type  2   force =     0.00602382   -0.00395008   -0.00866220
     atom   38 type  2   force =    -0.00522149    0.00454730   -0.00883812
     atom   39 type  2   force =    -0.00602382   -0.00395008    0.00866220
     atom   40 type  2   force =     0.00522149    0.00454730    0.00883812
     atom   41 type  2   force =     0.00046123   -0.00034487    0.00108010
     atom   42 type  2   force =    -0.00055542   -0.00038409    0.00187719
     atom   43 type  2   force =    -0.00046123   -0.00034487   -0.00108010
     atom   44 type  2   force =     0.00055542   -0.00038409   -0.00187719
     atom   45 type  2   force =    -0.00046123    0.00034487   -0.00108010
     atom   46 type  2   force =     0.00055542    0.00038409   -0.00187719
     atom   47 type  2   force =     0.00046123    0.00034487    0.00108010
     atom   48 type  2   force =    -0.00055542    0.00038409    0.00187719
     atom   49 type  2   force =    -0.00313577   -0.00989185   -0.00492645
     atom   50 type  2   force =     0.00358096    0.00961808   -0.00476433
     atom   51 type  2   force =     0.00313577   -0.00989185    0.00492645
     atom   52 type  2   force =    -0.00358096    0.00961808    0.00476433
     atom   53 type  2   force =     0.00313577    0.00989185    0.00492645
     atom   54 type  2   force =    -0.00358096   -0.00961808    0.00476433
     atom   55 type  2   force =    -0.00313577    0.00989185   -0.00492645
     atom   56 type  2   force =     0.00358096   -0.00961808   -0.00476433
     atom   57 type  3   force =     0.00074251    0.00396596   -0.00095320
     atom   58 type  3   force =    -0.00217433   -0.00414849   -0.00107806
     atom   59 type  3   force =    -0.00074251    0.00396596    0.00095320
     atom   60 type  3   force =     0.00217433   -0.00414849    0.00107806
     atom   61 type  3   force =    -0.00074251   -0.00396596    0.00095320
     atom   62 type  3   force =     0.00217433    0.00414849    0.00107806
     atom   63 type  3   force =     0.00074251   -0.00396596   -0.00095320
     atom   64 type  3   force =    -0.00217433    0.00414849   -0.00107806
     atom   65 type  2   force =     0.00658419    0.00243506    0.00274811
     atom   66 type  2   force =    -0.00642647   -0.00236089    0.00289195
     atom   67 type  2   force =    -0.00658419    0.00243506   -0.00274811
     atom   68 type  2   force =     0.00642647   -0.00236089   -0.00289195
     atom   69 type  2   force =    -0.00658419   -0.00243506   -0.00274811
     atom   70 type  2   force =     0.00642647    0.00236089   -0.00289195
     atom   71 type  2   force =     0.00658419   -0.00243506    0.00274811
     atom   72 type  2   force =    -0.00642647    0.00236089    0.00289195
     atom   73 type  2   force =     0.00113760    0.00337742    0.00768382
     atom   74 type  2   force =    -0.00064975   -0.00319249    0.00762267
     atom   75 type  2   force =    -0.00113760    0.00337742   -0.00768382
     atom   76 type  2   force =     0.00064975   -0.00319249   -0.00762267
     atom   77 type  2   force =    -0.00113760   -0.00337742   -0.00768382
     atom   78 type  2   force =     0.00064975    0.00319249   -0.00762267
     atom   79 type  2   force =     0.00113760   -0.00337742    0.00768382
     atom   80 type  2   force =    -0.00064975    0.00319249    0.00762267
     atom   81 type  2   force =     0.00040183    0.00456507   -0.00347408
     atom   82 type  2   force =    -0.00068175   -0.00430014   -0.00313773
     atom   83 type  2   force =    -0.00040183    0.00456507    0.00347408
     atom   84 type  2   force =     0.00068175   -0.00430014    0.00313773
     atom   85 type  2   force =    -0.00040183   -0.00456507    0.00347408
     atom   86 type  2   force =     0.00068175    0.00430014    0.00313773
     atom   87 type  2   force =     0.00040183   -0.00456507   -0.00347408
     atom   88 type  2   force =    -0.00068175    0.00430014   -0.00313773
     atom   89 type  2   force =    -0.00065756    0.00057438   -0.00003121
     atom   90 type  2   force =     0.00094370   -0.00047682   -0.00002510
     atom   91 type  2   force =     0.00065756    0.00057438    0.00003121
     atom   92 type  2   force =    -0.00094370   -0.00047682    0.00002510
     atom   93 type  2   force =     0.00065756   -0.00057438    0.00003121
     atom   94 type  2   force =    -0.00094370    0.00047682    0.00002510
     atom   95 type  2   force =    -0.00065756   -0.00057438   -0.00003121
     atom   96 type  2   force =     0.00094370    0.00047682   -0.00002510
     atom   97 type  1   force =     0.00354564   -0.00131531   -0.00296978
     atom   98 type  1   force =    -0.00401545    0.00130639   -0.00329915
     atom   99 type  1   force =    -0.00354564   -0.00131531    0.00296978
     atom  100 type  1   force =     0.00401545    0.00130639    0.00329915
     atom  101 type  1   force =    -0.00354564    0.00131531    0.00296978
     atom  102 type  1   force =     0.00401545   -0.00130639    0.00329915
     atom  103 type  1   force =     0.00354564    0.00131531   -0.00296978
     atom  104 type  1   force =    -0.00401545   -0.00130639   -0.00329915
     atom  105 type  1   force =     0.00176183   -0.00637985   -0.00871242
     atom  106 type  1   force =    -0.00166459    0.00632737   -0.00910840
     atom  107 type  1   force =    -0.00176183   -0.00637985    0.00871242
     atom  108 type  1   force =     0.00166459    0.00632737    0.00910840
     atom  109 type  1   force =    -0.00176183    0.00637985    0.00871242
     atom  110 type  1   force =     0.00166459   -0.00632737    0.00910840
     atom  111 type  1   force =     0.00176183    0.00637985   -0.00871242
     atom  112 type  1   force =    -0.00166459   -0.00632737   -0.00910840
     atom  113 type  1   force =    -0.00228252    0.00139081    0.00118092
     atom  114 type  1   force =     0.00236049   -0.00155861    0.00126495
     atom  115 type  1   force =     0.00228252    0.00139081   -0.00118092
     atom  116 type  1   force =    -0.00236049   -0.00155861   -0.00126495
     atom  117 type  1   force =     0.00228252   -0.00139081   -0.00118092
     atom  118 type  1   force =    -0.00236049    0.00155861   -0.00126495
     atom  119 type  1   force =    -0.00228252   -0.00139081    0.00118092
     atom  120 type  1   force =     0.00236049    0.00155861    0.00126495

     Total force =     0.074290     Total SCF correction =     0.000148


     Computing stress (Cartesian axis) and pressure

          total   stress  (Ry/bohr**3)                   (kbar)     P=   -1.64
  -0.00000967   0.00000000  -0.00000191         -1.42      0.00     -0.28
   0.00000000  -0.00001350   0.00000000          0.00     -1.99      0.00
  -0.00000191   0.00000000  -0.00001036         -0.28      0.00     -1.52


     Writing output data file scf.save
 
     init_run     :    109.37s CPU    113.05s WALL (       1 calls)
     electrons    :   4693.25s CPU   4836.45s WALL (       1 calls)
     forces       :     61.24s CPU     61.64s WALL (       1 calls)
     stress       :    318.51s CPU    319.13s WALL (       1 calls)

     Called by init_run:
     wfcinit      :    100.52s CPU    103.89s WALL (       1 calls)
     potinit      :      3.08s CPU      3.14s WALL (       1 calls)

     Called by electrons:
     c_bands      :   4284.71s CPU   4406.25s WALL (      17 calls)
     sum_band     :    388.50s CPU    407.68s WALL (      17 calls)
     v_of_rho     :      3.22s CPU      3.55s WALL (      18 calls)
     newd         :      8.06s CPU     10.14s WALL (      18 calls)
     PAW_pot      :      8.28s CPU      8.28s WALL (      18 calls)
     mix_rho      :      0.71s CPU      0.77s WALL (      17 calls)

     Called by c_bands:
     init_us_2    :     13.59s CPU     13.69s WALL (     222 calls)
     cegterg      :   4218.11s CPU   4339.55s WALL (     102 calls)

     Called by sum_band:
     sum_band:bec :      0.24s CPU      0.24s WALL (     102 calls)
     addusdens    :      8.61s CPU     10.69s WALL (      17 calls)

     Called by *egterg:
     h_psi        :   1936.79s CPU   2030.85s WALL (     535 calls)
     s_psi        :    598.06s CPU    598.17s WALL (     535 calls)
     g_psi        :      7.33s CPU      7.33s WALL (     427 calls)
     cdiaghg      :    324.41s CPU    324.50s WALL (     529 calls)

     Called by h_psi:
     h_psi:pot    :   1926.00s CPU   2019.89s WALL (     535 calls)
     h_psi:calbec :    579.27s CPU    580.00s WALL (     535 calls)
     vloc_psi     :    748.03s CPU    841.06s WALL (     535 calls)
     add_vuspsi   :    598.69s CPU    598.83s WALL (     535 calls)

     General routines
     calbec       :    859.82s CPU    860.91s WALL (     667 calls)
     fft          :      2.02s CPU      2.66s WALL (     258 calls)
     fftw         :    787.21s CPU    896.62s WALL (  220494 calls)
 
     Parallel routines
     fft_scatter  :    162.38s CPU    269.98s WALL (  220752 calls)
 
     PWSCF        :     1h26m CPU        1h30m WALL

 
   This run was terminated on:   0:16: 1   4Nov2017            

=------------------------------------------------------------------------------=
   JOB DONE.
=------------------------------------------------------------------------------=
