
     Program PWSCF v.6.1 (svn rev. 13369) starts on 12Dec2017 at  3:37:50 

     This program is part of the open-source Quantum ESPRESSO suite
     for quantum simulation of materials; please cite
         "P. Giannozzi et al., J. Phys.:Condens. Matter 21 395502 (2009);
          URL http://www.quantum-espresso.org", 
     in publications or presentations arising from this work. More details at
     http://www.quantum-espresso.org/quote

     Parallel version (MPI), running on     8 processors
     R & G space division:  proc/nbgrp/npool/nimage =       8
     Waiting for input...
     Reading input from standard input

     Current dimensions of program PWSCF are:
     Max number of different atomic species (ntypx) = 10
     Max number of k-points (npk) =  40000
     Max angular momentum in pseudopotentials (lmaxx) =  3
               file C.pbe-n-kjpaw_psl.0.1.UPF: wavefunction(s)  2P renormalized
               file N.pbe-n-kjpaw_psl.0.1.UPF: wavefunction(s)  2P renormalized
               file H.pbe-kjpaw_psl.0.1.UPF: wavefunction(s)  1S renormalized
               file O.pbe-n-kjpaw_psl.0.1.UPF: wavefunction(s)  2P renormalized

     -------------------------------------
     Parameters for Dispersion Correction:
     -------------------------------------
       atom      VdW radius       C_6     

        C          2.744         60.710
        N          2.640         42.670
        H          1.892          4.857
        O          2.536         24.284

     Subspace diagonalization in iterative solution of the eigenvalue problem:
     a serial algorithm will be used

 
     Parallelization info
     --------------------
     sticks:   dense  smooth     PW     G-vecs:    dense   smooth      PW
     Min         934     934    246                98268    98268   13297
     Max         935     935    247                98271    98271   13303
     Sum        7479    7479   1971               786151   786151  106397
 


     bravais-lattice index     =            0
     lattice parameter (alat)  =      11.3745  a.u.
     unit-cell volume          =    5818.6864 (a.u.)^3
     number of atoms/cell      =           96
     number of atomic types    =            4
     number of electrons       =       312.00
     number of Kohn-Sham states=          187
     kinetic-energy cutoff     =     100.0000  Ry
     charge density cutoff     =     400.0000  Ry
     convergence threshold     =      1.0E-08
     mixing beta               =       0.5000
     number of iterations used =            8  plain     mixing
     Exchange-correlation      =  SLA  PW   PBX  PBC ( 1  4  3  4 0 0)

     celldm(1)=  11.374451  celldm(2)=   0.000000  celldm(3)=   0.000000
     celldm(4)=   0.000000  celldm(5)=   0.000000  celldm(6)=   0.000000

     crystal axes: (cart. coord. in units of alat)
               a(1) = (   1.000000   0.000000   0.000000 )  
               a(2) = (   0.000000   1.816401   0.000000 )  
               a(3) = (  -0.113892   0.000000   2.176817 )  

     reciprocal axes: (cart. coord. in units 2 pi/alat)
               b(1) = (  1.000000  0.000000  0.052320 )  
               b(2) = (  0.000000  0.550539  0.000000 )  
               b(3) = (  0.000000  0.000000  0.459386 )  


     PseudoPot. # 1 for  C read from file:
     /scratch/ahofstet/pseudo/C.pbe-n-kjpaw_psl.0.1.UPF
     MD5 check sum: 430fe95172b1e11ef3f8ed03bac87931
     Pseudo is Projector augmented-wave + core cor, Zval =  4.0
     Generated using "atomic" code by A. Dal Corso  v.5.0.99 svn rev. 10869
     Shape of augmentation charge: BESSEL
     Using radial grid of 1073 points,  4 beta functions with: 
                l(1) =   0
                l(2) =   0
                l(3) =   1
                l(4) =   1
     Q(r) pseudized with 0 coefficients 


     PseudoPot. # 2 for  N read from file:
     /scratch/ahofstet/pseudo/N.pbe-n-kjpaw_psl.0.1.UPF
     MD5 check sum: f73187c8b701007e77325f868c9291d7
     Pseudo is Projector augmented-wave + core cor, Zval =  5.0
     Generated using "atomic" code by A. Dal Corso  v.5.0.99 svn rev. 10869
     Shape of augmentation charge: PSQ
     Using radial grid of 1085 points,  4 beta functions with: 
                l(1) =   0
                l(2) =   0
                l(3) =   1
                l(4) =   1
     Q(r) pseudized with 0 coefficients 


     PseudoPot. # 3 for  H read from file:
     /scratch/ahofstet/pseudo/H.pbe-kjpaw_psl.0.1.UPF
     MD5 check sum: 94e484f906d9e9773b2f6e52662335b2
     Pseudo is Projector augmented-wave, Zval =  1.0
     Generated using "atomic" code by A. Dal Corso  v.5.0.99 svn rev. 10869
     Shape of augmentation charge: PSQ
     Using radial grid of  929 points,  2 beta functions with: 
                l(1) =   0
                l(2) =   0
     Q(r) pseudized with 0 coefficients 


     PseudoPot. # 4 for  O read from file:
     /scratch/ahofstet/pseudo/O.pbe-n-kjpaw_psl.0.1.UPF
     MD5 check sum: 3f94a2996a3169367d6eb21d9b593f20
     Pseudo is Projector augmented-wave + core cor, Zval =  6.0
     Generated using "atomic" code by A. Dal Corso  v.5.0.99 svn rev. 10869
     Shape of augmentation charge: BESSEL
     Using radial grid of 1095 points,  4 beta functions with: 
                l(1) =   0
                l(2) =   0
                l(3) =   1
                l(4) =   1
     Q(r) pseudized with 0 coefficients 


     atomic species   valence    mass     pseudopotential
        C              4.00    12.01070      C( 1.00)
        N              5.00    14.00670      N( 1.00)
        H              1.00     1.00794      H( 1.00)
        O              6.00    15.99940      O( 1.00)

      2 Sym. Ops., with inversion, found



   Cartesian axes

     site n.     atom                  positions (alat units)
         1           O   tau(   1) = (   0.1338917   1.7712197   1.4616958  )
         2           O   tau(   2) = (   0.1953215   0.8629987   1.8033064  )
         3           O   tau(   3) = (   0.7522166   0.0451814   0.7151211  )
         4           O   tau(   4) = (   0.6907868   0.9534024   0.3735105  )
         5           O   tau(   5) = (   0.5366353   0.2840302   1.5486494  )
         6           O   tau(   6) = (   0.7925370   1.1922626   1.7162143  )
         7           O   tau(   7) = (   0.3494731   1.5323709   0.6281675  )
         8           O   tau(   8) = (   0.0935713   0.6241385   0.4606026  )
         9           O   tau(   9) = (   0.6994725   0.3801055   1.3849201  )
        10           O   tau(  10) = (   0.6297126   1.2883625   1.8799331  )
        11           O   tau(  11) = (   0.1866358   1.4362956   0.7918969  )
        12           O   tau(  12) = (   0.2563957   0.5280386   0.2968838  )
        13           O   tau(  13) = (   0.2814857   0.0216944   1.2792628  )
        14           O   tau(  14) = (   0.0477043   0.9299535   1.9856877  )
        15           O   tau(  15) = (   0.6046226   1.7947067   0.8975541  )
        16           O   tau(  16) = (   0.8384040   0.8864476   0.1911293  )
        17           H   tau(  17) = (   0.3828181   0.1220325   1.3635507  )
        18           H   tau(  18) = (  -0.0536085   1.0302711   1.9013229  )
        19           H   tau(  19) = (   0.5032902   1.6943686   0.8132662  )
        20           H   tau(  20) = (   0.9397169   0.7861300   0.2754941  )
        21           C   tau(  21) = (   0.9225194   0.0524818   1.4240075  )
        22           C   tau(  22) = (   0.4066918   0.9607012   1.8409814  )
        23           C   tau(  23) = (  -0.0364111   1.7639194   0.7528094  )
        24           C   tau(  24) = (   0.4794166   0.8556999   0.3358356  )
        25           H   tau(  25) = (   0.8593877   1.8239502   1.2580093  )
        26           H   tau(  26) = (   0.4698134   0.9158379   2.0069820  )
        27           H   tau(  27) = (   0.0267207  -0.0075491   0.9188076  )
        28           H   tau(  28) = (   0.4162949   0.9005632   0.1698350  )
        29           O   tau(  29) = (   0.7684154   0.2580873   0.0058403  )
        30           O   tau(  30) = (   0.6746994   1.1663403   1.0822694  )
        31           O   tau(  31) = (   0.1176929   1.5583139   2.1709766  )
        32           O   tau(  32) = (   0.2114089   0.6500608   1.0945476  )
        33           C   tau(  33) = (   0.9239482   0.3082888   1.4426550  )
        34           C   tau(  34) = (   0.4052178   1.2165160   1.8222579  )
        35           C   tau(  35) = (  -0.0378399   1.5081123   0.7341619  )
        36           C   tau(  36) = (   0.4808906   0.5998851   0.3545590  )
        37           H   tau(  37) = (   0.0242773   0.3865765   1.3122141  )
        38           H   tau(  38) = (   0.3049209   1.2948063   1.9526778  )
        39           H   tau(  39) = (   0.8618310   1.4298246   0.8646029  )
        40           H   tau(  40) = (   0.5811874   0.5215948   0.2241391  )
        41           C   tau(  41) = (   0.6575831   0.1593959   1.7226462  )
        42           C   tau(  42) = (   0.6715624   1.0675730   1.5422695  )
        43           C   tau(  43) = (   0.2285253   1.6570052   0.4541707  )
        44           C   tau(  44) = (   0.2145459   0.7488282   0.6345475  )
        45           C   tau(  45) = (   0.8252335   0.3176807   1.8217741  )
        46           C   tau(  46) = (   0.5038874   1.2258233   1.4431013  )
        47           C   tau(  47) = (   0.0608749   1.4987204   0.3550428  )
        48           C   tau(  48) = (   0.3822209   0.5905778   0.7337157  )
        49           O   tau(  49) = (   0.4429126   0.2390063   2.0588848  )
        50           O   tau(  50) = (   0.8862816   1.1472085   1.2060944  )
        51           O   tau(  51) = (   0.4431957   1.5773948   0.1179321  )
        52           O   tau(  52) = (  -0.0001733   0.6691926   0.9707226  )
        53           C   tau(  53) = (   0.7715117   1.7783966   1.6083096  )
        54           C   tau(  54) = (   0.5576920   0.8701880   1.6566887  )
        55           C   tau(  55) = (   0.1145966   0.0380045   0.5685073  )
        56           C   tau(  56) = (   0.3284163   0.9462131   0.5201283  )
        57           H   tau(  57) = (   0.6458214   1.6648638   1.5407770  )
        58           H   tau(  58) = (   0.6834456   0.7567363   1.7242762  )
        59           H   tau(  59) = (   0.2402869   0.1515373   0.6360399  )
        60           H   tau(  60) = (   0.2026627   1.0596648   0.4525408  )
        61           H   tau(  61) = (   0.8683013   1.6853638   1.7320625  )
        62           H   tau(  62) = (   0.4609393   0.7770591   1.5330232  )
        63           H   tau(  63) = (   0.0178071   0.1310374   0.4447545  )
        64           H   tau(  64) = (   0.4251690   1.0393421   0.6437938  )
        65           C   tau(  65) = (   0.4831737   0.0801489   1.8890948  )
        66           C   tau(  66) = (   0.8459407   0.9882983   1.3758182  )
        67           C   tau(  67) = (   0.4029346   1.7362522   0.2877222  )
        68           C   tau(  68) = (   0.0401676   0.8281028   0.8009987  )
        69           H   tau(  69) = (   0.3213590   0.0545602   1.8071191  )
        70           H   tau(  70) = (   0.0077477   0.9625990   1.4577947  )
        71           H   tau(  71) = (   0.5647493   1.7618409   0.3696978  )
        72           H   tau(  72) = (   0.8783606   0.8538021   0.7190222  )
        73           H   tau(  73) = (   0.5377098   1.7380721   1.9625712  )
        74           H   tau(  74) = (   0.7913368   0.8298792   1.3022898  )
        75           H   tau(  75) = (   0.3483986   0.0783290   0.2142457  )
        76           H   tau(  76) = (   0.0947716   0.9865219   0.8745271  )
        77           C   tau(  77) = (  -0.0250939   0.3884646   1.6725750  )
        78           C   tau(  78) = (   0.3542268   1.2966086   1.5923287  )
        79           C   tau(  79) = (   0.9112022   1.4279365   0.5042420  )
        80           C   tau(  80) = (   0.5318815   0.5197926   0.5844882  )
        81           H   tau(  81) = (   0.1047447   0.5095411   1.7077358  )
        82           H   tau(  82) = (   0.2243581   1.4176631   1.5571532  )
        83           H   tau(  83) = (   0.7813637   1.3068600   0.4690811  )
        84           H   tau(  84) = (   0.6617503   0.3987380   0.6196637  )
        85           C   tau(  85) = (   0.7910993   0.4045426   2.0529175  )
        86           C   tau(  86) = (   0.5381142   1.3127611   1.2120340  )
        87           C   tau(  87) = (   0.0950090   1.4118585   0.1238994  )
        88           C   tau(  88) = (   0.3479942   0.5036400   0.9647829  )
        89           H   tau(  89) = (  -0.0533398   0.4191955   2.1467694  )
        90           H   tau(  90) = (   0.3825730   1.3275110   1.1181214  )
        91           H   tau(  91) = (   0.9394481   1.3972056   0.0300475  )
        92           H   tau(  92) = (   0.5035353   0.4888902   1.0586955  )
        93           H   tau(  93) = (   0.7128969   0.5705958   2.0479865  )
        94           H   tau(  94) = (   0.6163431   1.4787931   1.2170686  )
        95           H   tau(  95) = (   0.1732114   1.2458053   0.1288304  )
        96           H   tau(  96) = (   0.2697652   0.3376080   0.9597484  )

     number of k points=     8
                       cart. coord. in units 2pi/alat
        k(    1) = (   0.0000000   0.0000000   0.0000000), wk =   0.1666667
        k(    2) = (   0.0000000   0.0000000  -0.2296932), wk =   0.1666667
        k(    3) = (   0.0000000  -0.2752696   0.0000000), wk =   0.1666667
        k(    4) = (   0.0000000  -0.2752696  -0.2296932), wk =   0.1666667
        k(    5) = (   0.3333333   0.0000000   0.0174401), wk =   0.3333333
        k(    6) = (   0.3333333   0.0000000  -0.2122531), wk =   0.3333333
        k(    7) = (   0.3333333  -0.2752696   0.0174401), wk =   0.3333333
        k(    8) = (   0.3333333  -0.2752696  -0.2122531), wk =   0.3333333

     Dense  grid:   786151 G-vectors     FFT dimensions: (  75, 135, 160)

     Estimated max dynamical RAM per process >     771.07MB

     Estimated total allocated dynamical RAM >    6168.54MB

     Check: negative/imaginary core charge=   -0.000003    0.000000

     Initial potential from superposition of free atoms

     starting charge  311.99825, renormalised to  312.00000
     Starting wfc are  264 randomized atomic wfcs
     Checking if some PAW data can be deallocated... 

     total cpu time spent up to now is       48.8 secs

     per-process dynamical memory:   526.3 Mb

     Self-consistent Calculation

     iteration #  1     ecut=   100.00 Ry     beta=0.50
     Davidson diagonalization with overlap
     ethr =  1.00E-02,  avg # of iterations =  3.1

     total cpu time spent up to now is      186.9 secs

     total energy              =   -1633.99374427 Ry
     Harris-Foulkes estimate   =   -1637.51155735 Ry
     estimated scf accuracy    <       7.49498084 Ry

     iteration #  2     ecut=   100.00 Ry     beta=0.50
     Davidson diagonalization with overlap
     ethr =  2.40E-03,  avg # of iterations =  1.6

     total cpu time spent up to now is      258.6 secs

     total energy              =   -1634.12026374 Ry
     Harris-Foulkes estimate   =   -1634.55270666 Ry
     estimated scf accuracy    <       1.00721292 Ry

     iteration #  3     ecut=   100.00 Ry     beta=0.50
     Davidson diagonalization with overlap
     ethr =  3.23E-04,  avg # of iterations =  5.8

     total cpu time spent up to now is      425.9 secs

     total energy              =   -1634.84003249 Ry
     Harris-Foulkes estimate   =   -1635.15391576 Ry
     estimated scf accuracy    <       0.99991012 Ry

     iteration #  4     ecut=   100.00 Ry     beta=0.50
     Davidson diagonalization with overlap
     ethr =  3.20E-04,  avg # of iterations =  1.0

     total cpu time spent up to now is      495.0 secs

     total energy              =   -1634.58695544 Ry
     Harris-Foulkes estimate   =   -1634.87467951 Ry
     estimated scf accuracy    <       0.41182343 Ry

     iteration #  5     ecut=   100.00 Ry     beta=0.50
     Davidson diagonalization with overlap
     ethr =  1.32E-04,  avg # of iterations =  5.5

     total cpu time spent up to now is      655.7 secs

     total energy              =   -1634.80549392 Ry
     Harris-Foulkes estimate   =   -1635.03992622 Ry
     estimated scf accuracy    <       0.61825343 Ry

     iteration #  6     ecut=   100.00 Ry     beta=0.50
     Davidson diagonalization with overlap
     ethr =  1.32E-04,  avg # of iterations =  1.0

     total cpu time spent up to now is      723.6 secs

     total energy              =   -1634.73549066 Ry
     Harris-Foulkes estimate   =   -1634.83116966 Ry
     estimated scf accuracy    <       0.19848869 Ry

     iteration #  7     ecut=   100.00 Ry     beta=0.50
     Davidson diagonalization with overlap
     ethr =  6.36E-05,  avg # of iterations =  5.8

     total cpu time spent up to now is      862.4 secs

     total energy              =   -1634.84280297 Ry
     Harris-Foulkes estimate   =   -1634.85404056 Ry
     estimated scf accuracy    <       0.03176441 Ry

     iteration #  8     ecut=   100.00 Ry     beta=0.50
     Davidson diagonalization with overlap
     ethr =  1.02E-05,  avg # of iterations =  1.8

     total cpu time spent up to now is      931.1 secs

     total energy              =   -1634.83892168 Ry
     Harris-Foulkes estimate   =   -1634.84410627 Ry
     estimated scf accuracy    <       0.01141168 Ry

     iteration #  9     ecut=   100.00 Ry     beta=0.50
     Davidson diagonalization with overlap
     ethr =  3.66E-06,  avg # of iterations =  4.8

     total cpu time spent up to now is     1066.5 secs

     total energy              =   -1634.84497583 Ry
     Harris-Foulkes estimate   =   -1634.84518548 Ry
     estimated scf accuracy    <       0.00134939 Ry

     iteration # 10     ecut=   100.00 Ry     beta=0.50
     Davidson diagonalization with overlap
     ethr =  4.32E-07,  avg # of iterations =  1.0

     total cpu time spent up to now is     1134.3 secs

     total energy              =   -1634.84462921 Ry
     Harris-Foulkes estimate   =   -1634.84501078 Ry
     estimated scf accuracy    <       0.00092179 Ry

     iteration # 11     ecut=   100.00 Ry     beta=0.50
     Davidson diagonalization with overlap
     ethr =  2.95E-07,  avg # of iterations =  3.0

     total cpu time spent up to now is     1222.5 secs

     total energy              =   -1634.84478031 Ry
     Harris-Foulkes estimate   =   -1634.84479622 Ry
     estimated scf accuracy    <       0.00004338 Ry

     iteration # 12     ecut=   100.00 Ry     beta=0.50
     Davidson diagonalization with overlap
     ethr =  1.39E-08,  avg # of iterations =  4.0

     total cpu time spent up to now is     1338.2 secs

     total energy              =   -1634.84479805 Ry
     Harris-Foulkes estimate   =   -1634.84479913 Ry
     estimated scf accuracy    <       0.00000342 Ry

     iteration # 13     ecut=   100.00 Ry     beta=0.50
     Davidson diagonalization with overlap
     ethr =  1.10E-09,  avg # of iterations =  3.6

     total cpu time spent up to now is     1423.6 secs

     total energy              =   -1634.84479855 Ry
     Harris-Foulkes estimate   =   -1634.84479869 Ry
     estimated scf accuracy    <       0.00000052 Ry

     iteration # 14     ecut=   100.00 Ry     beta=0.50
     Davidson diagonalization with overlap
     ethr =  1.67E-10,  avg # of iterations =  3.9

     total cpu time spent up to now is     1561.6 secs

     total energy              =   -1634.84479882 Ry
     Harris-Foulkes estimate   =   -1634.84479909 Ry
     estimated scf accuracy    <       0.00000068 Ry

     iteration # 15     ecut=   100.00 Ry     beta=0.50
     Davidson diagonalization with overlap
     ethr =  1.67E-10,  avg # of iterations =  1.4

     total cpu time spent up to now is     1629.8 secs

     total energy              =   -1634.84479875 Ry
     Harris-Foulkes estimate   =   -1634.84479886 Ry
     estimated scf accuracy    <       0.00000021 Ry

     iteration # 16     ecut=   100.00 Ry     beta=0.50
     Davidson diagonalization with overlap
     ethr =  6.81E-11,  avg # of iterations =  4.0

     total cpu time spent up to now is     1760.0 secs

     total energy              =   -1634.84479891 Ry
     Harris-Foulkes estimate   =   -1634.84479893 Ry
     estimated scf accuracy    <       0.00000011 Ry

     iteration # 17     ecut=   100.00 Ry     beta=0.50
     Davidson diagonalization with overlap
     ethr =  3.57E-11,  avg # of iterations =  1.0

     total cpu time spent up to now is     1827.5 secs

     total energy              =   -1634.84479887 Ry
     Harris-Foulkes estimate   =   -1634.84479891 Ry
     estimated scf accuracy    <       0.00000008 Ry

     iteration # 18     ecut=   100.00 Ry     beta=0.50
     Davidson diagonalization with overlap
     ethr =  2.52E-11,  avg # of iterations =  4.0

     total cpu time spent up to now is     1938.3 secs

     End of self-consistent calculation

          k = 0.0000 0.0000 0.0000 ( 98271 PWs)   bands (ev):

   -21.4365 -21.4158 -21.4061 -21.3930 -21.2660 -21.2497 -21.2493 -21.2307
   -20.9555 -20.9520 -20.9451 -20.9444 -16.8279 -16.8234 -16.8145 -16.7992
   -16.4485 -16.4450 -16.4272 -16.4131 -16.0555 -16.0480 -16.0167 -16.0091
   -14.2641 -14.2594 -14.2564 -14.2502 -12.2262 -12.1960 -12.1218 -12.1110
   -11.5228 -11.4729 -11.4727 -11.4615 -10.2121 -10.1977 -10.1336 -10.0975
    -9.8167  -9.8159  -9.7949  -9.7936  -8.6886  -8.6256  -8.5594  -8.5502
    -7.8576  -7.8396  -7.8315  -7.7651  -6.7799  -6.7228  -6.7217  -6.6797
    -6.5475  -6.5395  -6.4604  -6.3865  -6.2531  -6.1853  -6.1742  -6.1717
    -5.9460  -5.7674  -5.7127  -5.6661  -5.5548  -5.4473  -5.3693  -5.3389
    -5.1856  -5.1422  -5.0930  -5.0757  -5.0354  -4.8426  -4.8125  -4.7356
    -4.5643  -4.5391  -4.5274  -4.3989  -3.9199  -3.8788  -3.8141  -3.8019
    -3.7541  -3.6714  -3.6371  -3.6228  -3.6104  -3.5669  -3.5394  -3.4829
    -3.4302  -3.4260  -3.3770  -3.3674  -3.3653  -3.2514  -3.2399  -3.1985
    -3.0658  -3.0023  -2.9323  -2.9093  -2.9043  -2.8607  -2.8403  -2.7376
    -2.4670  -2.3564  -2.3366  -2.3260  -2.1786  -2.0458  -2.0035  -1.9844
    -1.8282  -1.7992  -1.7532  -1.5502  -1.5208  -1.5094  -1.4281  -1.3446
    -1.3198  -1.2855  -1.2499  -1.2131  -0.2175  -0.2112  -0.1117  -0.0586
     0.1679   0.2083   0.2301   0.2724   0.3029   0.3169   0.3994   0.4594
     0.4806   0.4967   0.5114   0.5202   0.6029   0.6208   0.6332   0.7522
     1.2289   1.2376   1.3420   1.3588   4.5507   4.5850   4.6638   4.7432
     5.2319   5.2917   5.3030   5.3286   5.4058   5.5008   5.5186   5.5465
     5.5528   5.5732   6.0457   6.0766   7.0425   7.0950   7.4288   7.4297
     7.5863   7.9073   7.9460   8.2675   8.2737   8.2822   8.4260   8.7037
     8.7209   8.8470   8.8706

          k = 0.0000 0.0000-0.2297 ( 98262 PWs)   bands (ev):

   -21.4259 -21.4253 -21.4018 -21.4014 -21.2510 -21.2510 -21.2454 -21.2454
   -20.9534 -20.9531 -20.9453 -20.9450 -16.8216 -16.8215 -16.8113 -16.8111
   -16.4453 -16.4449 -16.4218 -16.4216 -16.0507 -16.0496 -16.0146 -16.0138
   -14.2639 -14.2639 -14.2511 -14.2511 -12.2120 -12.2120 -12.1158 -12.1157
   -11.5045 -11.5041 -11.4601 -11.4598 -10.2045 -10.2044 -10.1147 -10.1147
    -9.8390  -9.8389  -9.7744  -9.7742  -8.6585  -8.6583  -8.5544  -8.5544
    -7.8601  -7.8597  -7.7809  -7.7802  -6.7434  -6.7432  -6.7034  -6.7034
    -6.5526  -6.5520  -6.4288  -6.4285  -6.2283  -6.2280  -6.1701  -6.1701
    -5.8462  -5.8454  -5.7133  -5.7132  -5.4867  -5.4860  -5.3867  -5.3863
    -5.1708  -5.1707  -5.0820  -5.0818  -4.8953  -4.8952  -4.7545  -4.7542
    -4.5525  -4.5524  -4.4584  -4.4582  -3.8699  -3.8696  -3.7900  -3.7900
    -3.7630  -3.7629  -3.6938  -3.6937  -3.6178  -3.6177  -3.5460  -3.5456
    -3.4046  -3.4043  -3.3164  -3.3162  -3.2840  -3.2837  -3.1926  -3.1922
    -3.0012  -3.0012  -2.9614  -2.9612  -2.8870  -2.8862  -2.8135  -2.8133
    -2.4052  -2.4048  -2.3412  -2.3408  -2.0797  -2.0797  -2.0082  -2.0075
    -1.8410  -1.8409  -1.6386  -1.6384  -1.4813  -1.4813  -1.4362  -1.4356
    -1.2699  -1.2695  -1.2411  -1.2410  -0.2137  -0.2129  -0.0893  -0.0888
     0.2202   0.2214   0.2720   0.2724   0.2939   0.2942   0.4139   0.4141
     0.4757   0.4760   0.5141   0.5144   0.6026   0.6026   0.6971   0.6972
     1.2343   1.2344   1.3523   1.3523   4.5699   4.5700   4.7049   4.7050
     5.2356   5.2358   5.3272   5.3274   5.4664   5.4670   5.5426   5.5427
     5.5526   5.5535   6.0598   6.0603   7.0368   7.0382   7.4864   7.4871
     7.7748   7.7749   8.0241   8.0242   8.2394   8.2395   8.5612   8.5627
     8.7499   8.7500   8.9631

          k = 0.0000-0.2753 0.0000 ( 98202 PWs)   bands (ev):

   -21.4288 -21.4283 -21.3972 -21.3969 -21.2617 -21.2616 -21.2363 -21.2362
   -20.9539 -20.9536 -20.9448 -20.9445 -16.8260 -16.8260 -16.8065 -16.8064
   -16.4475 -16.4472 -16.4197 -16.4194 -16.0525 -16.0514 -16.0130 -16.0122
   -14.2623 -14.2623 -14.2526 -14.2525 -12.1767 -12.1764 -12.1548 -12.1544
   -11.5042 -11.5038 -11.4591 -11.4590 -10.1722 -10.1719 -10.1477 -10.1476
    -9.8110  -9.8110  -9.7998  -9.7996  -8.6273  -8.6272  -8.5805  -8.5805
    -7.8540  -7.8539  -7.7980  -7.7975  -6.7539  -6.7538  -6.7062  -6.7060
    -6.5359  -6.5353  -6.4362  -6.4361  -6.2211  -6.2209  -6.1701  -6.1700
    -5.8731  -5.8729  -5.6733  -5.6732  -5.4606  -5.4599  -5.3431  -5.3430
    -5.1653  -5.1651  -5.1296  -5.1292  -4.9407  -4.9407  -4.7780  -4.7776
    -4.5623  -4.5620  -4.4694  -4.4693  -3.8668  -3.8667  -3.7668  -3.7663
    -3.6691  -3.6688  -3.6245  -3.6243  -3.5710  -3.5709  -3.5537  -3.5536
    -3.4177  -3.4175  -3.3933  -3.3932  -3.3398  -3.3396  -3.2497  -3.2496
    -3.1137  -3.1135  -2.9801  -2.9798  -2.7884  -2.7882  -2.7353  -2.7352
    -2.4103  -2.4099  -2.3445  -2.3444  -2.1381  -2.1381  -1.9559  -1.9559
    -1.8113  -1.8111  -1.6800  -1.6798  -1.4926  -1.4926  -1.3949  -1.3945
    -1.3152  -1.3151  -1.2194  -1.2192  -0.2130  -0.2121  -0.0942  -0.0936
     0.1753   0.1757   0.2768   0.2769   0.3000   0.3010   0.4293   0.4297
     0.4783   0.4786   0.5488   0.5489   0.6062   0.6064   0.6935   0.6937
     1.2824   1.2825   1.2916   1.2916   4.6027   4.6028   4.6671   4.6672
     5.2583   5.2587   5.3267   5.3272   5.4481   5.4483   5.5175   5.5179
     5.5864   5.5871   6.0547   6.0551   7.1079   7.1093   7.3733   7.3754
     7.8084   7.8093   8.0474   8.0480   8.3508   8.3514   8.4889   8.4896
     8.8191   8.8191   9.0058

          k = 0.0000-0.2753-0.2297 ( 98136 PWs)   bands (ev):

   -21.4253 -21.4246 -21.4025 -21.4021 -21.2505 -21.2505 -21.2459 -21.2458
   -20.9533 -20.9529 -20.9454 -20.9451 -16.8184 -16.8182 -16.8146 -16.8144
   -16.4448 -16.4443 -16.4224 -16.4222 -16.0506 -16.0495 -16.0147 -16.0139
   -14.2639 -14.2638 -14.2510 -14.2510 -12.1756 -12.1753 -12.1561 -12.1557
   -11.5007 -11.5003 -11.4620 -11.4618 -10.1711 -10.1706 -10.1478 -10.1474
    -9.8330  -9.8329  -9.7806  -9.7804  -8.6156  -8.6154  -8.5931  -8.5929
    -7.8560  -7.8556  -7.7902  -7.7896  -6.7523  -6.7522  -6.6986  -6.6985
    -6.5426  -6.5420  -6.4457  -6.4456  -6.2143  -6.2139  -6.1821  -6.1820
    -5.8131  -5.8126  -5.7539  -5.7534  -5.4414  -5.4405  -5.3639  -5.3633
    -5.1700  -5.1698  -5.1372  -5.1366  -4.8924  -4.8920  -4.7678  -4.7673
    -4.5122  -4.5119  -4.5074  -4.5071  -3.8791  -3.8789  -3.7968  -3.7961
    -3.6609  -3.6607  -3.6383  -3.6376  -3.6010  -3.6005  -3.5706  -3.5698
    -3.4593  -3.4589  -3.3328  -3.3323  -3.2600  -3.2596  -3.2532  -3.2529
    -3.0874  -3.0872  -3.0090  -3.0087  -2.8107  -2.8101  -2.7635  -2.7634
    -2.3992  -2.3988  -2.3494  -2.3491  -2.0721  -2.0719  -2.0201  -2.0196
    -1.7790  -1.7789  -1.7062  -1.7059  -1.4748  -1.4745  -1.4170  -1.4164
    -1.2801  -1.2798  -1.2476  -1.2471  -0.2111  -0.2102  -0.1017  -0.1012
     0.2193   0.2204   0.2818   0.2823   0.2943   0.2948   0.4041   0.4042
     0.5061   0.5066   0.5101   0.5103   0.6275   0.6279   0.6701   0.6703
     1.2793   1.2795   1.2980   1.2981   4.6338   4.6342   4.6390   4.6395
     5.2764   5.2773   5.2825   5.2830   5.5001   5.5007   5.5015   5.5020
     5.5720   5.5728   6.0588   6.0592   7.1141   7.1155   7.3714   7.3735
     7.7809   7.7820   8.1222   8.1227   8.3611   8.3624   8.4154   8.4169
     8.8003   8.8016   8.8858

          k = 0.3333 0.0000 0.0174 ( 98313 PWs)   bands (ev):

   -21.4173 -21.4081 -21.3888 -21.3817 -21.2069 -21.1989 -21.1988 -21.1877
   -21.0252 -21.0247 -21.0191 -21.0183 -16.8096 -16.8011 -16.8000 -16.7878
   -16.4311 -16.4257 -16.4095 -16.4026 -16.0660 -16.0635 -16.0138 -16.0099
   -14.3446 -14.3322 -14.3143 -14.3095 -12.2163 -12.2133 -12.0913 -12.0840
   -11.4843 -11.4762 -11.4542 -11.4131 -10.1743 -10.1683 -10.0987 -10.0800
    -9.8208  -9.8120  -9.7658  -9.7627  -8.5704  -8.5330  -8.4973  -8.4934
    -7.8417  -7.8366  -7.7876  -7.7464  -6.8772  -6.8642  -6.7406  -6.7190
    -6.5824  -6.5450  -6.5437  -6.4822  -6.3194  -6.3110  -6.3099  -6.2769
    -5.8673  -5.7464  -5.6621  -5.6480  -5.4075  -5.3556  -5.3321  -5.3132
    -5.0823  -5.0820  -5.0223  -4.9780  -4.8819  -4.8762  -4.7558  -4.6973
    -4.5998  -4.4912  -4.4270  -4.4109  -4.1067  -4.0796  -4.0184  -3.9475
    -3.8309  -3.8114  -3.7801  -3.7718  -3.6011  -3.5658  -3.5283  -3.4936
    -3.4185  -3.3934  -3.3866  -3.3669  -3.3372  -3.3240  -3.1905  -3.1592
    -3.0831  -3.0475  -3.0318  -2.9678  -2.9038  -2.8436  -2.7869  -2.7484
    -2.3107  -2.2891  -2.2754  -2.2412  -2.1040  -2.0805  -1.9933  -1.9570
    -1.7874  -1.7550  -1.6049  -1.5997  -1.5287  -1.5206  -1.4461  -1.3703
    -1.2876  -1.2317  -1.1735  -1.1697  -0.3737  -0.3660  -0.0767  -0.0504
     0.1434   0.1735   0.1874   0.2028   0.2364   0.2804   0.3451   0.3653
     0.4515   0.4636   0.4979   0.5089   0.6264   0.6451   0.7205   0.7280
     1.2411   1.3067   1.3473   1.4117   4.7250   4.7316   4.8326   4.8661
     5.1842   5.2474   5.3389   5.3447   5.3935   5.4139   5.4578   5.4691
     5.5691   5.6804   6.0511   6.0812   7.1712   7.2609   7.4764   7.5983
     7.7492   7.9738   7.9856   8.0378   8.1495   8.2978   8.4153   8.4222
     8.6031   8.6373   8.7333

          k = 0.3333 0.0000-0.2123 ( 98251 PWs)   bands (ev):

   -21.4149 -21.4102 -21.3860 -21.3854 -21.2017 -21.2009 -21.1968 -21.1925
   -21.0255 -21.0245 -21.0188 -21.0184 -16.8079 -16.8015 -16.7972 -16.7920
   -16.4334 -16.4236 -16.4063 -16.4055 -16.0671 -16.0616 -16.0136 -16.0109
   -14.3394 -14.3377 -14.3129 -14.3107 -12.2236 -12.2056 -12.0881 -12.0878
   -11.4964 -11.4644 -11.4438 -11.4226 -10.1788 -10.1660 -10.0918 -10.0853
    -9.8338  -9.7911  -9.7819  -9.7547  -8.5552  -8.5478  -8.4987  -8.4918
    -7.8401  -7.8287  -7.8036  -7.7373  -6.9077  -6.8075  -6.7569  -6.7455
    -6.5716  -6.5458  -6.5243  -6.4881  -6.3398  -6.3048  -6.2982  -6.2816
    -5.8995  -5.7392  -5.6701  -5.6508  -5.4288  -5.3426  -5.2906  -5.2616
    -5.1237  -5.1012  -5.0085  -4.9574  -4.8846  -4.8453  -4.7602  -4.7500
    -4.6031  -4.4650  -4.4440  -4.3685  -4.1319  -4.0830  -4.0061  -3.9756
    -3.9333  -3.8675  -3.7986  -3.6820  -3.5677  -3.5392  -3.5072  -3.4623
    -3.4504  -3.4102  -3.3892  -3.3345  -3.3141  -3.2544  -3.1981  -3.1424
    -3.0991  -3.0619  -3.0341  -2.9900  -2.9264  -2.8995  -2.7553  -2.7510
    -2.3577  -2.3495  -2.2253  -2.1637  -2.1268  -2.0881  -2.0215  -1.9111
    -1.7946  -1.7559  -1.6498  -1.6187  -1.5424  -1.4592  -1.4385  -1.3519
    -1.3219  -1.2118  -1.1998  -1.1386  -0.4004  -0.3425  -0.0656  -0.0596
     0.1419   0.1651   0.1808   0.2112   0.2431   0.2795   0.3546   0.4137
     0.4351   0.4500   0.4878   0.5388   0.5827   0.6232   0.6810   0.7853
     1.2541   1.2759   1.3624   1.4158   4.7012   4.7531   4.8415   4.8566
     5.1930   5.2250   5.2968   5.3840   5.3903   5.4389   5.4398   5.5252
     5.5769   5.6200   6.0501   6.0891   7.1550   7.3522   7.4679   7.6239
     7.7200   7.7369   8.0462   8.1746   8.1856   8.3513   8.4113   8.4245
     8.5966   8.6071   8.7260

          k = 0.3333-0.2753 0.0174 ( 98292 PWs)   bands (ev):

   -21.4136 -21.4129 -21.3850 -21.3845 -21.2050 -21.2049 -21.1913 -21.1912
   -21.0251 -21.0247 -21.0189 -21.0185 -16.8056 -16.8056 -16.7937 -16.7936
   -16.4289 -16.4285 -16.4058 -16.4056 -16.0653 -16.0641 -16.0123 -16.0115
   -14.3301 -14.3301 -14.3206 -14.3206 -12.1593 -12.1591 -12.1462 -12.1459
   -11.4813 -11.4808 -11.4324 -11.4322 -10.1371 -10.1366 -10.1231 -10.1228
    -9.8156  -9.8154  -9.7650  -9.7648  -8.5345  -8.5344  -8.5101  -8.5101
    -7.8259  -7.8255  -7.7814  -7.7810  -6.8609  -6.8604  -6.7382  -6.7379
    -6.5659  -6.5654  -6.5133  -6.5132  -6.3145  -6.3144  -6.2902  -6.2902
    -5.7921  -5.7915  -5.6812  -5.6808  -5.3911  -5.3902  -5.3022  -5.3019
    -5.0872  -5.0869  -4.9924  -4.9923  -4.8702  -4.8700  -4.7513  -4.7511
    -4.5340  -4.5335  -4.4472  -4.4470  -4.0871  -4.0870  -4.0116  -4.0114
    -3.8026  -3.8022  -3.7431  -3.7426  -3.5987  -3.5985  -3.5404  -3.5400
    -3.4186  -3.4183  -3.3773  -3.3769  -3.2451  -3.2450  -3.2139  -3.2138
    -3.0306  -3.0302  -3.0001  -3.0000  -2.8808  -2.8804  -2.8020  -2.8018
    -2.3119  -2.3116  -2.2082  -2.2077  -2.0986  -2.0984  -1.9495  -1.9490
    -1.7566  -1.7564  -1.6791  -1.6788  -1.4908  -1.4907  -1.4388  -1.4387
    -1.2380  -1.2379  -1.1817  -1.1816  -0.3709  -0.3696  -0.0648  -0.0647
     0.1512   0.1514   0.1919   0.1923   0.2645   0.2653   0.3703   0.3703
     0.4149   0.4152   0.5221   0.5224   0.6702   0.6706   0.7049   0.7052
     1.2876   1.2880   1.3633   1.3634   4.7724   4.7727   4.8020   4.8023
     5.2332   5.2342   5.3332   5.3340   5.4094   5.4100   5.4419   5.4424
     5.6381   5.6387   6.0647   6.0651   7.2204   7.2212   7.5407   7.5412
     7.8254   7.8259   7.9652   7.9656   8.3306   8.3312   8.4629   8.4632
     8.6236   8.6241   8.7597

          k = 0.3333-0.2753-0.2123 ( 98286 PWs)   bands (ev):

   -21.4129 -21.4121 -21.3860 -21.3854 -21.2017 -21.2016 -21.1944 -21.1943
   -21.0252 -21.0248 -21.0188 -21.0184 -16.8029 -16.8029 -16.7965 -16.7963
   -16.4291 -16.4287 -16.4056 -16.4054 -16.0649 -16.0637 -16.0126 -16.0118
   -14.3272 -14.3272 -14.3235 -14.3235 -12.1597 -12.1595 -12.1459 -12.1456
   -11.4808 -11.4804 -11.4325 -11.4324 -10.1380 -10.1376 -10.1227 -10.1225
    -9.8159  -9.8158  -9.7645  -9.7643  -8.5297  -8.5296  -8.5145  -8.5144
    -7.8242  -7.8239  -7.7822  -7.7818  -6.8586  -6.8581  -6.7438  -6.7435
    -6.5665  -6.5660  -6.5057  -6.5055  -6.3225  -6.3224  -6.2865  -6.2864
    -5.8272  -5.8268  -5.6562  -5.6559  -5.3945  -5.3937  -5.2626  -5.2623
    -5.1108  -5.1105  -4.9985  -4.9984  -4.8295  -4.8292  -4.7859  -4.7858
    -4.5596  -4.5593  -4.3974  -4.3972  -4.1055  -4.1053  -4.0189  -4.0186
    -3.8579  -3.8578  -3.7464  -3.7464  -3.5790  -3.5787  -3.5016  -3.5011
    -3.4186  -3.4185  -3.3703  -3.3702  -3.2401  -3.2399  -3.1656  -3.1655
    -3.0832  -3.0830  -2.9969  -2.9967  -2.8852  -2.8849  -2.8070  -2.8067
    -2.3370  -2.3370  -2.2037  -2.2034  -2.0683  -2.0681  -1.9639  -1.9632
    -1.7457  -1.7456  -1.6798  -1.6796  -1.5472  -1.5471  -1.3891  -1.3889
    -1.2530  -1.2529  -1.1657  -1.1656  -0.3738  -0.3725  -0.0604  -0.0603
     0.1480   0.1481   0.2003   0.2010   0.2463   0.2468   0.3887   0.3888
     0.4552   0.4555   0.4864   0.4865   0.6173   0.6175   0.7447   0.7448
     1.2870   1.2873   1.3650   1.3650   4.7666   4.7668   4.8064   4.8068
     5.2360   5.2371   5.3031   5.3035   5.4027   5.4032   5.5141   5.5144
     5.5961   5.5970   6.0682   6.0685   7.2281   7.2289   7.5666   7.5670
     7.8038   7.8040   8.0484   8.0488   8.2525   8.2530   8.3794   8.3799
     8.5754   8.5758   8.7344

     highest occupied, lowest unoccupied level (ev):     1.4158    4.5507

!    total energy              =   -1634.84479889 Ry
     Harris-Foulkes estimate   =   -1634.84479890 Ry
     estimated scf accuracy    <          8.6E-09 Ry

     total all-electron energy =     -6095.621289 Ry

     The total energy is the sum of the following terms:

     one-electron contribution =    -911.72965355 Ry
     hartree contribution      =     585.63906486 Ry
     xc contribution           =    -337.29074507 Ry
     ewald contribution        =    -529.40181590 Ry
     Dispersion Correction     =      -0.42775651 Ry
     one-center paw contrib.   =    -441.63389273 Ry

     convergence has been achieved in  18 iterations

     Forces acting on atoms (cartesian axes, Ry/au):

     atom    1 type  4   force =     0.00271277   -0.00130399    0.00012329
     atom    2 type  4   force =    -0.00263166   -0.00127286   -0.00009127
     atom    3 type  4   force =    -0.00271277    0.00130399   -0.00012329
     atom    4 type  4   force =     0.00263166    0.00127286    0.00009127
     atom    5 type  4   force =    -0.00095399    0.00232058    0.00325811
     atom    6 type  4   force =     0.00088032    0.00230508   -0.00326497
     atom    7 type  4   force =     0.00095399   -0.00232058   -0.00325811
     atom    8 type  4   force =    -0.00088032   -0.00230508    0.00326497
     atom    9 type  4   force =     0.00030088    0.00143332   -0.00145806
     atom   10 type  4   force =    -0.00028799    0.00146729    0.00152805
     atom   11 type  4   force =    -0.00030088   -0.00143332    0.00145806
     atom   12 type  4   force =     0.00028799   -0.00146729   -0.00152805
     atom   13 type  4   force =    -0.00024183   -0.00173303   -0.00178238
     atom   14 type  4   force =     0.00012444   -0.00163617    0.00169874
     atom   15 type  4   force =     0.00024183    0.00173303    0.00178238
     atom   16 type  4   force =    -0.00012444    0.00163617   -0.00169874
     atom   17 type  3   force =     0.00037684   -0.00035698   -0.00110619
     atom   18 type  3   force =    -0.00031127   -0.00042276    0.00120638
     atom   19 type  3   force =    -0.00037684    0.00035698    0.00110619
     atom   20 type  3   force =     0.00031127    0.00042276   -0.00120638
     atom   21 type  1   force =    -0.00347692    0.00246044   -0.00019707
     atom   22 type  1   force =     0.00331415    0.00254557    0.00003832
     atom   23 type  1   force =     0.00347692   -0.00246044    0.00019707
     atom   24 type  1   force =    -0.00331415   -0.00254557   -0.00003832
     atom   25 type  3   force =     0.00177356    0.00035189    0.00018180
     atom   26 type  3   force =    -0.00173367    0.00030055   -0.00005817
     atom   27 type  3   force =    -0.00177356   -0.00035189   -0.00018180
     atom   28 type  3   force =     0.00173367   -0.00030055    0.00005817
     atom   29 type  4   force =     0.00472971    0.00193550   -0.00022272
     atom   30 type  4   force =    -0.00472092    0.00194815    0.00023942
     atom   31 type  4   force =    -0.00472971   -0.00193550    0.00022272
     atom   32 type  4   force =     0.00472092   -0.00194815   -0.00023942
     atom   33 type  1   force =    -0.00062703   -0.00019357   -0.00001648
     atom   34 type  1   force =     0.00081355   -0.00042285   -0.00015265
     atom   35 type  1   force =     0.00062703    0.00019357    0.00001648
     atom   36 type  1   force =    -0.00081355    0.00042285    0.00015265
     atom   37 type  3   force =     0.00138956    0.00006217   -0.00060082
     atom   38 type  3   force =    -0.00152420    0.00018082    0.00078702
     atom   39 type  3   force =    -0.00138956   -0.00006217    0.00060082
     atom   40 type  3   force =     0.00152420   -0.00018082   -0.00078702
     atom   41 type  1   force =     0.00119950    0.00007332    0.00112752
     atom   42 type  1   force =    -0.00119488    0.00008389   -0.00115927
     atom   43 type  1   force =    -0.00119950   -0.00007332   -0.00112752
     atom   44 type  1   force =     0.00119488   -0.00008389    0.00115927
     atom   45 type  1   force =    -0.00040266   -0.00336432   -0.00076146
     atom   46 type  1   force =     0.00043040   -0.00340005    0.00115571
     atom   47 type  1   force =     0.00040266    0.00336432    0.00076146
     atom   48 type  1   force =    -0.00043040    0.00340005   -0.00115571
     atom   49 type  4   force =    -0.00258366    0.00148454   -0.00019009
     atom   50 type  4   force =     0.00256346    0.00143507    0.00018049
     atom   51 type  4   force =     0.00258366   -0.00148454    0.00019009
     atom   52 type  4   force =    -0.00256346   -0.00143507   -0.00018049
     atom   53 type  1   force =     0.00009052   -0.00078558    0.00067991
     atom   54 type  1   force =     0.00013292   -0.00074047   -0.00046575
     atom   55 type  1   force =    -0.00009052    0.00078558   -0.00067991
     atom   56 type  1   force =    -0.00013292    0.00074047    0.00046575
     atom   57 type  3   force =    -0.00111715    0.00016791    0.00066200
     atom   58 type  3   force =     0.00105211    0.00021990   -0.00070611
     atom   59 type  3   force =     0.00111715   -0.00016791   -0.00066200
     atom   60 type  3   force =    -0.00105211   -0.00021990    0.00070611
     atom   61 type  3   force =     0.00020379    0.00025316   -0.00022985
     atom   62 type  3   force =    -0.00032180    0.00016696    0.00007859
     atom   63 type  3   force =    -0.00020379   -0.00025316    0.00022985
     atom   64 type  3   force =     0.00032180   -0.00016696   -0.00007859
     atom   65 type  1   force =    -0.00536251    0.00080707   -0.00061222
     atom   66 type  1   force =     0.00544395    0.00085440    0.00070723
     atom   67 type  1   force =     0.00536251   -0.00080707    0.00061222
     atom   68 type  1   force =    -0.00544395   -0.00085440   -0.00070723
     atom   69 type  3   force =     0.00094742    0.00132786    0.00092440
     atom   70 type  3   force =    -0.00100001    0.00134000   -0.00094808
     atom   71 type  3   force =    -0.00094742   -0.00132786   -0.00092440
     atom   72 type  3   force =     0.00100001   -0.00134000    0.00094808
     atom   73 type  3   force =    -0.00033822    0.00005951   -0.00014731
     atom   74 type  3   force =     0.00033112    0.00002001    0.00012122
     atom   75 type  3   force =     0.00033822   -0.00005951    0.00014731
     atom   76 type  3   force =    -0.00033112   -0.00002001   -0.00012122
     atom   77 type  1   force =    -0.00062658   -0.00023036   -0.00031223
     atom   78 type  1   force =     0.00055296   -0.00014573    0.00012347
     atom   79 type  1   force =     0.00062658    0.00023036    0.00031223
     atom   80 type  1   force =    -0.00055296    0.00014573   -0.00012347
     atom   81 type  3   force =    -0.00069415    0.00011720   -0.00105010
     atom   82 type  3   force =     0.00075948    0.00008939    0.00107134
     atom   83 type  3   force =     0.00069415   -0.00011720    0.00105010
     atom   84 type  3   force =    -0.00075948   -0.00008939   -0.00107134
     atom   85 type  1   force =    -0.00542826   -0.00346044   -0.00028088
     atom   86 type  1   force =     0.00520939   -0.00344430    0.00006212
     atom   87 type  1   force =     0.00542826    0.00346044    0.00028088
     atom   88 type  1   force =    -0.00520939    0.00344430   -0.00006212
     atom   89 type  3   force =     0.00373662   -0.00117366    0.00144309
     atom   90 type  3   force =    -0.00358616   -0.00119451   -0.00134588
     atom   91 type  3   force =    -0.00373662    0.00117366   -0.00144309
     atom   92 type  3   force =     0.00358616    0.00119451    0.00134588
     atom   93 type  3   force =     0.00127768    0.00038617    0.00070409
     atom   94 type  3   force =    -0.00124892    0.00041370   -0.00070958
     atom   95 type  3   force =    -0.00127768   -0.00038617   -0.00070409
     atom   96 type  3   force =     0.00124892   -0.00041370    0.00070958

     Total force =     0.029008     Total SCF correction =     0.000197


     Computing stress (Cartesian axis) and pressure

          total   stress  (Ry/bohr**3)                   (kbar)     P=   -1.73
   0.00000989   0.00000005  -0.00001782          1.45      0.01     -2.62
   0.00000005  -0.00002960   0.00000006          0.01     -4.35      0.01
  -0.00001782   0.00000006  -0.00001552         -2.62      0.01     -2.28


     Writing output data file scf.save
 
     init_run     :     46.27s CPU     48.07s WALL (       1 calls)
     electrons    :   1820.89s CPU   1889.68s WALL (       1 calls)
     forces       :     23.31s CPU     23.49s WALL (       1 calls)
     stress       :     95.45s CPU     95.82s WALL (       1 calls)

     Called by init_run:
     wfcinit      :     36.87s CPU     38.54s WALL (       1 calls)
     potinit      :      3.42s CPU      3.45s WALL (       1 calls)

     Called by electrons:
     c_bands      :   1644.46s CPU   1702.56s WALL (      18 calls)
     sum_band     :    161.37s CPU    170.51s WALL (      18 calls)
     v_of_rho     :      2.10s CPU      2.31s WALL (      19 calls)
     newd         :      5.17s CPU      6.45s WALL (      19 calls)
     PAW_pot      :      7.10s CPU      7.11s WALL (      19 calls)
     mix_rho      :      0.54s CPU      0.59s WALL (      18 calls)

     Called by c_bands:
     init_us_2    :      7.94s CPU      7.97s WALL (     312 calls)
     cegterg      :   1612.43s CPU   1670.37s WALL (     144 calls)

     Called by sum_band:
     sum_band:bec :      0.09s CPU      0.09s WALL (     144 calls)
     addusdens    :      5.49s CPU      6.65s WALL (      18 calls)

     Called by *egterg:
     h_psi        :    866.34s CPU    911.83s WALL (     601 calls)
     s_psi        :    188.32s CPU    188.38s WALL (     601 calls)
     g_psi        :      4.10s CPU      4.10s WALL (     449 calls)
     cdiaghg      :     81.01s CPU     81.03s WALL (     593 calls)

     Called by h_psi:
     h_psi:pot    :    860.30s CPU    905.68s WALL (     601 calls)
     h_psi:calbec :    182.78s CPU    183.19s WALL (     601 calls)
     vloc_psi     :    488.98s CPU    533.87s WALL (     601 calls)
     add_vuspsi   :    188.53s CPU    188.62s WALL (     601 calls)

     General routines
     calbec       :    261.37s CPU    261.91s WALL (     785 calls)
     fft          :      1.61s CPU      1.98s WALL (     271 calls)
     fftw         :    530.25s CPU    580.74s WALL (  184866 calls)
 
     Parallel routines
     fft_scatter  :    110.94s CPU    154.49s WALL (  185137 calls)
 
     PWSCF        : 33m16.24s CPU    35m18.19s WALL

 
   This run was terminated on:   4:13: 9  12Dec2017            

=------------------------------------------------------------------------------=
   JOB DONE.
=------------------------------------------------------------------------------=
