
     Program PWSCF v.6.1 (svn rev. 13369) starts on  4Nov2017 at  5: 3:59 

     This program is part of the open-source Quantum ESPRESSO suite
     for quantum simulation of materials; please cite
         "P. Giannozzi et al., J. Phys.:Condens. Matter 21 395502 (2009);
          URL http://www.quantum-espresso.org", 
     in publications or presentations arising from this work. More details at
     http://www.quantum-espresso.org/quote

     Parallel version (MPI), running on     8 processors
     R & G space division:  proc/nbgrp/npool/nimage =       8
     Waiting for input...
     Reading input from standard input

     Current dimensions of program PWSCF are:
     Max number of different atomic species (ntypx) = 10
     Max number of k-points (npk) =  40000
     Max angular momentum in pseudopotentials (lmaxx) =  3
               file C.pbe-n-kjpaw_psl.0.1.UPF: wavefunction(s)  2P renormalized
               file N.pbe-n-kjpaw_psl.0.1.UPF: wavefunction(s)  2P renormalized
               file H.pbe-kjpaw_psl.0.1.UPF: wavefunction(s)  1S renormalized
               file O.pbe-n-kjpaw_psl.0.1.UPF: wavefunction(s)  2P renormalized

     -------------------------------------
     Parameters for Dispersion Correction:
     -------------------------------------
       atom      VdW radius       C_6     

        C          2.744         60.710
        N          2.640         42.670
        H          1.892          4.857
        O          2.536         24.284

     Subspace diagonalization in iterative solution of the eigenvalue problem:
     a serial algorithm will be used

 
     Parallelization info
     --------------------
     sticks:   dense  smooth     PW     G-vecs:    dense   smooth      PW
     Min         834     834    225                92938    92938   13019
     Max         835     835    227                92941    92941   13021
     Sum        6673    6673   1805               743515   743515  104155
 


     bravais-lattice index     =            0
     lattice parameter (alat)  =       9.1363  a.u.
     unit-cell volume          =    5504.0663 (a.u.)^3
     number of atoms/cell      =           76
     number of atomic types    =            4
     number of electrons       =       312.00
     number of Kohn-Sham states=          187
     kinetic-energy cutoff     =     100.0000  Ry
     charge density cutoff     =     400.0000  Ry
     convergence threshold     =      1.0E-08
     mixing beta               =       0.5000
     number of iterations used =            8  plain     mixing
     Exchange-correlation      =  SLA  PW   PBX  PBC ( 1  4  3  4 0 0)

     celldm(1)=   9.136259  celldm(2)=   0.000000  celldm(3)=   0.000000
     celldm(4)=   0.000000  celldm(5)=   0.000000  celldm(6)=   0.000000

     crystal axes: (cart. coord. in units of alat)
               a(1) = (   1.000000   0.000000   0.000000 )  
               a(2) = (   0.000000   2.511428   0.000000 )  
               a(3) = (   0.000000   0.000000   2.873808 )  

     reciprocal axes: (cart. coord. in units 2 pi/alat)
               b(1) = (  1.000000  0.000000  0.000000 )  
               b(2) = (  0.000000  0.398180  0.000000 )  
               b(3) = (  0.000000  0.000000  0.347970 )  


     PseudoPot. # 1 for  C read from file:
     /scratch/ahofstet/pseudo/C.pbe-n-kjpaw_psl.0.1.UPF
     MD5 check sum: 430fe95172b1e11ef3f8ed03bac87931
     Pseudo is Projector augmented-wave + core cor, Zval =  4.0
     Generated using "atomic" code by A. Dal Corso  v.5.0.99 svn rev. 10869
     Shape of augmentation charge: BESSEL
     Using radial grid of 1073 points,  4 beta functions with: 
                l(1) =   0
                l(2) =   0
                l(3) =   1
                l(4) =   1
     Q(r) pseudized with 0 coefficients 


     PseudoPot. # 2 for  N read from file:
     /scratch/ahofstet/pseudo/N.pbe-n-kjpaw_psl.0.1.UPF
     MD5 check sum: f73187c8b701007e77325f868c9291d7
     Pseudo is Projector augmented-wave + core cor, Zval =  5.0
     Generated using "atomic" code by A. Dal Corso  v.5.0.99 svn rev. 10869
     Shape of augmentation charge: PSQ
     Using radial grid of 1085 points,  4 beta functions with: 
                l(1) =   0
                l(2) =   0
                l(3) =   1
                l(4) =   1
     Q(r) pseudized with 0 coefficients 


     PseudoPot. # 3 for  H read from file:
     /scratch/ahofstet/pseudo/H.pbe-kjpaw_psl.0.1.UPF
     MD5 check sum: 94e484f906d9e9773b2f6e52662335b2
     Pseudo is Projector augmented-wave, Zval =  1.0
     Generated using "atomic" code by A. Dal Corso  v.5.0.99 svn rev. 10869
     Shape of augmentation charge: PSQ
     Using radial grid of  929 points,  2 beta functions with: 
                l(1) =   0
                l(2) =   0
     Q(r) pseudized with 0 coefficients 


     PseudoPot. # 4 for  O read from file:
     /scratch/ahofstet/pseudo/O.pbe-n-kjpaw_psl.0.1.UPF
     MD5 check sum: 3f94a2996a3169367d6eb21d9b593f20
     Pseudo is Projector augmented-wave + core cor, Zval =  6.0
     Generated using "atomic" code by A. Dal Corso  v.5.0.99 svn rev. 10869
     Shape of augmentation charge: BESSEL
     Using radial grid of 1095 points,  4 beta functions with: 
                l(1) =   0
                l(2) =   0
                l(3) =   1
                l(4) =   1
     Q(r) pseudized with 0 coefficients 


     atomic species   valence    mass     pseudopotential
        C              4.00    12.01070      C( 1.00)
        N              5.00    14.00670      N( 1.00)
        H              1.00     1.00794      H( 1.00)
        O              6.00    15.99940      O( 1.00)

     No symmetry found



   Cartesian axes

     site n.     atom                  positions (alat units)
         1           O   tau(   1) = (   0.5646651   1.6372679   0.2138642  )
         2           O   tau(   2) = (   0.9356725   0.8740144   1.6508701  )
         3           O   tau(   3) = (   0.4353002   0.3816336   1.2229044  )
         4           O   tau(   4) = (   0.0642996   2.1298195   2.6599890  )
         5           H   tau(   5) = (   0.6113530   1.7380364   0.0340407  )
         6           H   tau(   6) = (   0.8888544   0.7732670   1.4711117  )
         7           H   tau(   7) = (   0.3886612   0.4823523   1.4027436  )
         8           H   tau(   8) = (   0.1111642   2.0290051   2.8397185  )
         9           O   tau(   9) = (   0.1855666   1.9134041   0.2626961  )
        10           O   tau(  10) = (   0.3147255   0.5978202   1.6996613  )
        11           O   tau(  11) = (   0.8144060   0.6577604   1.1741275  )
        12           O   tau(  12) = (   0.6852595   1.8536090   2.6111397  )
        13           O   tau(  13) = (   0.0690338   1.3113705   0.1559994  )
        14           O   tau(  14) = (   0.4311949   1.1999428   1.5929623  )
        15           O   tau(  15) = (   0.9308560   0.0557161   1.2808473  )
        16           O   tau(  16) = (   0.5687126   2.4557112   2.7178083  )
        17           O   tau(  17) = (   0.7461556   1.1069814   0.3973981  )
        18           O   tau(  18) = (   0.7540650   1.4043486   1.8343552  )
        19           O   tau(  19) = (   0.2537534   2.3627575   1.0394790  )
        20           O   tau(  20) = (   0.2458602   0.1486953   2.4763848  )
        21           O   tau(  21) = (   0.6622063   2.0056202   0.6580528  )
        22           O   tau(  22) = (   0.8380328   0.5058051   2.0950379  )
        23           O   tau(  23) = (   0.3377636   0.7498917   0.7786377  )
        24           O   tau(  24) = (   0.1619577   1.7615043   2.2158864  )
        25           O   tau(  25) = (   0.7115345   1.9349955   1.1007683  )
        26           O   tau(  26) = (   0.7885721   0.5765416   2.5377219  )
        27           O   tau(  27) = (   0.2884668   0.6792734   0.3359176  )
        28           O   tau(  28) = (   0.2114455   1.8322416   1.7732061  )
        29           N   tau(  29) = (   0.9455120   1.2645111   0.3750602  )
        30           N   tau(  30) = (   0.5547818   1.2468441   1.8120521  )
        31           N   tau(  31) = (   0.0544728   0.0088267   1.0617680  )
        32           N   tau(  32) = (   0.4452068   2.5025902   2.4987287  )
        33           N   tau(  33) = (   0.6030270   1.8859136   0.8753874  )
        34           N   tau(  34) = (   0.8972341   0.6254871   2.3123182  )
        35           N   tau(  35) = (   0.3969820   0.6302058   0.5613733  )
        36           N   tau(  36) = (   0.1027930   1.8812116   1.9985425  )
        37           C   tau(  37) = (   0.2698267   1.5870585   0.6103614  )
        38           C   tau(  38) = (   0.2305428   0.9242151   2.0473840  )
        39           C   tau(  39) = (   0.7301645   0.3314210   0.8263875  )
        40           C   tau(  40) = (   0.7694617   2.1799989   2.2634848  )
        41           C   tau(  41) = (   0.0499028   1.4000022   0.6271687  )
        42           C   tau(  42) = (   0.4503706   1.1113306   2.0641284  )
        43           C   tau(  43) = (   0.9500604   0.1443713   0.8096942  )
        44           C   tau(  44) = (   0.5496045   2.3671208   2.2466301  )
        45           C   tau(  45) = (   0.9220064   1.3275587   0.8767497  )
        46           C   tau(  46) = (   0.5781459   1.1839362   2.3138062  )
        47           C   tau(  47) = (   0.0780134   0.0718670   0.5600856  )
        48           C   tau(  48) = (   0.4218863   2.4396677   1.9969660  )
        49           H   tau(  49) = (   0.7534273   1.1789075   0.8744875  )
        50           H   tau(  50) = (   0.7466367   1.3326774   2.3115074  )
        51           H   tau(  51) = (   0.2465689   2.4346616   0.5624061  )
        52           H   tau(  52) = (   0.2533692   0.0769946   1.9992173  )
        53           C   tau(  53) = (   0.0316452   1.4272681   1.1235293  )
        54           C   tau(  54) = (   0.4684675   1.0842838   2.5605091  )
        55           C   tau(  55) = (   0.9683856   0.1715378   0.3133034  )
        56           C   tau(  56) = (   0.5315888   2.3399830   1.7502764  )
        57           H   tau(  57) = (   0.9378965   1.3740971   1.3210795  )
        58           H   tau(  58) = (   0.5621100   1.1376260   2.7581552  )
        59           H   tau(  59) = (   0.0621761   0.1183192   0.1157534  )
        60           H   tau(  60) = (   0.4379808   2.3932816   1.5526231  )
        61           C   tau(  61) = (   0.2640503   1.5953206   1.1188741  )
        62           C   tau(  62) = (   0.2362014   0.9161116   2.5559412  )
        63           C   tau(  63) = (   0.7359892   0.3395790   0.3178485  )
        64           C   tau(  64) = (   0.7638606   2.1718041   1.7549480  )
        65           H   tau(  65) = (   0.3559350   1.6690279   1.3100047  )
        66           H   tau(  66) = (   0.1441420   0.8425232   2.7470157  )
        67           H   tau(  67) = (   0.6441105   0.4132519   0.1267383  )
        68           H   tau(  68) = (   0.8559287   2.0981883   1.5638587  )
        69           C   tau(  69) = (   0.3831297   1.6716379   0.8660627  )
        70           C   tau(  70) = (   0.1172601   0.8396230   2.3030419  )
        71           C   tau(  71) = (   0.6168892   0.4159518   0.5706958  )
        72           C   tau(  72) = (   0.8827725   2.0953652   2.0078223  )
        73           C   tau(  73) = (   0.3428985   1.7272239   0.3383502  )
        74           C   tau(  74) = (   0.1574611   0.7840351   1.7753396  )
        75           C   tau(  75) = (   0.6570578   0.4716209   1.0984039  )
        76           C   tau(  76) = (   0.8425268   2.0398293   2.5355075  )

     number of k points=    12
                       cart. coord. in units 2pi/alat
        k(    1) = (   0.0000000   0.0000000   0.0000000), wk =   0.1250000
        k(    2) = (   0.0000000   0.0000000  -0.1739852), wk =   0.1250000
        k(    3) = (   0.0000000  -0.1990899   0.0000000), wk =   0.1250000
        k(    4) = (   0.0000000  -0.1990899  -0.1739852), wk =   0.1250000
        k(    5) = (   0.2500000   0.0000000   0.0000000), wk =   0.2500000
        k(    6) = (   0.2500000   0.0000000  -0.1739852), wk =   0.2500000
        k(    7) = (   0.2500000  -0.1990899   0.0000000), wk =   0.2500000
        k(    8) = (   0.2500000  -0.1990899  -0.1739852), wk =   0.2500000
        k(    9) = (  -0.5000000   0.0000000   0.0000000), wk =   0.1250000
        k(   10) = (  -0.5000000   0.0000000  -0.1739852), wk =   0.1250000
        k(   11) = (  -0.5000000  -0.1990899   0.0000000), wk =   0.1250000
        k(   12) = (  -0.5000000  -0.1990899  -0.1739852), wk =   0.1250000

     Dense  grid:   743515 G-vectors     FFT dimensions: (  60, 150, 180)

     Estimated max dynamical RAM per process >     861.16MB

     Estimated total allocated dynamical RAM >    6889.29MB

     Check: negative/imaginary core charge=   -0.000003    0.000000

     Initial potential from superposition of free atoms

     starting charge  311.99859, renormalised to  312.00000
     Starting wfc are  256 randomized atomic wfcs
     Checking if some PAW data can be deallocated... 

     total cpu time spent up to now is       52.6 secs

     per-process dynamical memory:   623.7 Mb

     Self-consistent Calculation

     iteration #  1     ecut=   100.00 Ry     beta=0.50
     Davidson diagonalization with overlap
     ethr =  1.00E-02,  avg # of iterations =  4.0

     total cpu time spent up to now is      232.3 secs

     total energy              =   -1757.11435336 Ry
     Harris-Foulkes estimate   =   -1761.96468292 Ry
     estimated scf accuracy    <       8.54643423 Ry

     iteration #  2     ecut=   100.00 Ry     beta=0.50
     Davidson diagonalization with overlap
     ethr =  2.74E-03,  avg # of iterations =  3.1

     total cpu time spent up to now is      351.8 secs

     total energy              =   -1758.49570377 Ry
     Harris-Foulkes estimate   =   -1759.82577192 Ry
     estimated scf accuracy    <       2.82283159 Ry

     iteration #  3     ecut=   100.00 Ry     beta=0.50
     Davidson diagonalization with overlap
     ethr =  9.05E-04,  avg # of iterations =  3.9

     total cpu time spent up to now is      466.0 secs

     total energy              =   -1759.13027728 Ry
     Harris-Foulkes estimate   =   -1759.33016364 Ry
     estimated scf accuracy    <       0.45960000 Ry

     iteration #  4     ecut=   100.00 Ry     beta=0.50
     Davidson diagonalization with overlap
     ethr =  1.47E-04,  avg # of iterations =  8.5

     total cpu time spent up to now is      616.8 secs

     total energy              =   -1759.21484307 Ry
     Harris-Foulkes estimate   =   -1759.30984800 Ry
     estimated scf accuracy    <       0.24499203 Ry

     iteration #  5     ecut=   100.00 Ry     beta=0.50
     Davidson diagonalization with overlap
     ethr =  7.85E-05,  avg # of iterations =  2.0

     total cpu time spent up to now is      715.7 secs

     total energy              =   -1759.26077570 Ry
     Harris-Foulkes estimate   =   -1759.27883732 Ry
     estimated scf accuracy    <       0.05697691 Ry

     iteration #  6     ecut=   100.00 Ry     beta=0.50
     Davidson diagonalization with overlap
     c_bands:  2 eigenvalues not converged
     c_bands:  1 eigenvalues not converged
     ethr =  1.83E-05,  avg # of iterations =  6.5

     total cpu time spent up to now is      824.1 secs

     total energy              =   -1759.27056123 Ry
     Harris-Foulkes estimate   =   -1759.27159807 Ry
     estimated scf accuracy    <       0.00303303 Ry

     iteration #  7     ecut=   100.00 Ry     beta=0.50
     Davidson diagonalization with overlap
     ethr =  9.72E-07,  avg # of iterations =  5.2

     total cpu time spent up to now is     1036.9 secs

     total energy              =   -1759.27292822 Ry
     Harris-Foulkes estimate   =   -1759.27377382 Ry
     estimated scf accuracy    <       0.00246082 Ry

     iteration #  8     ecut=   100.00 Ry     beta=0.50
     Davidson diagonalization with overlap
     ethr =  7.89E-07,  avg # of iterations =  3.3

     total cpu time spent up to now is     1135.8 secs

     total energy              =   -1759.27323921 Ry
     Harris-Foulkes estimate   =   -1759.27335227 Ry
     estimated scf accuracy    <       0.00029048 Ry

     iteration #  9     ecut=   100.00 Ry     beta=0.50
     Davidson diagonalization with overlap
     ethr =  9.31E-08,  avg # of iterations =  4.2

     total cpu time spent up to now is     1280.5 secs

     total energy              =   -1759.27331469 Ry
     Harris-Foulkes estimate   =   -1759.27334912 Ry
     estimated scf accuracy    <       0.00009528 Ry

     iteration # 10     ecut=   100.00 Ry     beta=0.50
     Davidson diagonalization with overlap
     ethr =  3.05E-08,  avg # of iterations =  2.0

     total cpu time spent up to now is     1377.0 secs

     total energy              =   -1759.27332097 Ry
     Harris-Foulkes estimate   =   -1759.27334064 Ry
     estimated scf accuracy    <       0.00005804 Ry

     iteration # 11     ecut=   100.00 Ry     beta=0.50
     Davidson diagonalization with overlap
     ethr =  1.86E-08,  avg # of iterations =  2.3

     total cpu time spent up to now is     1474.8 secs

     total energy              =   -1759.27333356 Ry
     Harris-Foulkes estimate   =   -1759.27333576 Ry
     estimated scf accuracy    <       0.00000915 Ry

     iteration # 12     ecut=   100.00 Ry     beta=0.50
     Davidson diagonalization with overlap
     ethr =  2.93E-09,  avg # of iterations =  3.2

     total cpu time spent up to now is     1613.3 secs

     total energy              =   -1759.27333623 Ry
     Harris-Foulkes estimate   =   -1759.27333702 Ry
     estimated scf accuracy    <       0.00000208 Ry

     iteration # 13     ecut=   100.00 Ry     beta=0.50
     Davidson diagonalization with overlap
     ethr =  6.68E-10,  avg # of iterations =  1.7

     total cpu time spent up to now is     1703.4 secs

     total energy              =   -1759.27333635 Ry
     Harris-Foulkes estimate   =   -1759.27333651 Ry
     estimated scf accuracy    <       0.00000045 Ry

     iteration # 14     ecut=   100.00 Ry     beta=0.50
     Davidson diagonalization with overlap
     ethr =  1.43E-10,  avg # of iterations =  3.7

     total cpu time spent up to now is     1863.4 secs

     total energy              =   -1759.27333656 Ry
     Harris-Foulkes estimate   =   -1759.27333663 Ry
     estimated scf accuracy    <       0.00000022 Ry

     iteration # 15     ecut=   100.00 Ry     beta=0.50
     Davidson diagonalization with overlap
     ethr =  6.98E-11,  avg # of iterations =  2.0

     total cpu time spent up to now is     1955.7 secs

     total energy              =   -1759.27333657 Ry
     Harris-Foulkes estimate   =   -1759.27333659 Ry
     estimated scf accuracy    <       0.00000005 Ry

     iteration # 16     ecut=   100.00 Ry     beta=0.50
     Davidson diagonalization with overlap
     ethr =  1.76E-11,  avg # of iterations =  3.2

     total cpu time spent up to now is     2087.2 secs

     total energy              =   -1759.27333658 Ry
     Harris-Foulkes estimate   =   -1759.27333659 Ry
     estimated scf accuracy    <       0.00000001 Ry

     iteration # 17     ecut=   100.00 Ry     beta=0.50
     Davidson diagonalization with overlap
     ethr =  3.46E-12,  avg # of iterations =  2.1

     total cpu time spent up to now is     2188.4 secs

     End of self-consistent calculation

          k = 0.0000 0.0000 0.0000 ( 93007 PWs)   bands (ev):

   -23.9011 -23.8999 -23.8964 -23.8954 -23.7986 -23.7978 -23.7938 -23.7931
   -20.8968 -20.8961 -20.6246 -20.6243 -19.4469 -19.4461 -19.4421 -19.4411
   -19.3616 -19.3608 -19.3606 -19.3599 -18.7433 -18.7419 -18.3861 -18.3855
   -15.5546 -15.5346 -15.5310 -15.5293 -13.5479 -13.5366 -13.5348 -13.5067
   -12.8240 -12.7682 -12.7621 -12.7293 -11.2540 -11.2507 -11.1408 -11.1315
   -10.3250 -10.2415 -10.2111 -10.2081  -9.6250  -9.5415  -9.1403  -9.0625
    -7.9758  -7.9552  -7.9421  -7.9368  -7.6591  -7.6186  -7.5929  -7.5354
    -7.0626  -7.0620  -7.0568  -6.9370  -6.4677  -6.3646  -6.3459  -6.3137
    -6.2383  -6.2252  -6.1867  -6.1375  -6.1092  -6.0823  -6.0262  -6.0154
    -5.9938  -5.9790  -5.7879  -5.7748  -5.6545  -5.6512  -5.6247  -5.5559
    -5.4762  -5.4432  -5.3913  -5.3417  -5.2355  -5.1887  -4.9642  -4.9338
    -4.9189  -4.8766  -4.7352  -4.6817  -4.5787  -4.5736  -4.5166  -4.4155
    -3.5850  -3.5445  -3.5331  -3.5197  -3.1313  -2.9853  -2.7701  -2.7692
    -2.7343  -2.7078  -2.5098  -2.4898  -2.4499  -2.4472  -2.4117  -2.3783
    -2.0660  -2.0418  -1.5652  -1.5432  -1.1776  -1.1738  -1.1419  -1.0986
    -0.8253  -0.8106  -0.7787  -0.7349  -0.7194  -0.6834  -0.6597  -0.6275
    -0.5563  -0.5312  -0.4771  -0.4165  -0.4151  -0.3361  -0.3191  -0.3150
    -0.2712  -0.2570  -0.2564  -0.1455  -0.1442  -0.1064  -0.0146   0.0681
     0.1194   0.1212   0.1324   0.1763   0.2972   0.3148   0.3240   0.3630
     0.4356   0.4679   0.5083   0.5490   3.4876   3.5624   3.5629   3.6347
     3.7896   3.8156   3.8409   3.8510   5.2481   5.2619   5.2634   5.4289
     5.8359   5.9485   5.9657   6.0364   6.1372   6.2146   6.2491   6.2532
     7.2864   8.1351   8.2691   8.3280   8.4189   8.5309   8.6126   8.6898
     8.8183   8.8546   8.9434

          k = 0.0000 0.0000-0.1740 ( 93024 PWs)   bands (ev):

   -23.9006 -23.9005 -23.8959 -23.8958 -23.7986 -23.7978 -23.7938 -23.7931
   -20.8968 -20.8961 -20.6245 -20.6244 -19.4452 -19.4446 -19.4435 -19.4428
   -19.3616 -19.3608 -19.3606 -19.3600 -18.7433 -18.7419 -18.3861 -18.3855
   -15.5465 -15.5458 -15.5290 -15.5282 -13.5429 -13.5424 -13.5203 -13.5197
   -12.7886 -12.7879 -12.7558 -12.7552 -11.2555 -11.2550 -11.1304 -11.1302
   -10.2763 -10.2758 -10.2158 -10.2151  -9.5922  -9.5916  -9.0954  -9.0952
    -7.9776  -7.9771  -7.9420  -7.9413  -7.6216  -7.6211  -7.5675  -7.5674
    -7.1405  -7.1398  -6.9083  -6.9079  -6.4017  -6.4009  -6.3373  -6.3367
    -6.2397  -6.2392  -6.1557  -6.1555  -6.0970  -6.0966  -6.0163  -6.0159
    -5.9823  -5.9821  -5.7724  -5.7721  -5.7226  -5.7224  -5.6026  -5.6022
    -5.4154  -5.4151  -5.3450  -5.3446  -5.2395  -5.2389  -4.9305  -4.9299
    -4.9187  -4.9183  -4.7116  -4.7113  -4.5475  -4.5470  -4.4860  -4.4857
    -3.5693  -3.5685  -3.5227  -3.5220  -3.0666  -3.0656  -2.7537  -2.7531
    -2.7324  -2.7318  -2.5029  -2.5020  -2.4389  -2.4379  -2.3811  -2.3803
    -2.0776  -2.0762  -1.5446  -1.5444  -1.1834  -1.1823  -1.1113  -1.1101
    -0.8299  -0.8296  -0.7612  -0.7609  -0.6885  -0.6882  -0.6211  -0.6205
    -0.5469  -0.5465  -0.4769  -0.4764  -0.3719  -0.3715  -0.3172  -0.3166
    -0.2486  -0.2481  -0.2095  -0.2093  -0.0805  -0.0796  -0.0445  -0.0439
     0.1182   0.1185   0.1705   0.1709   0.3048   0.3051   0.3442   0.3444
     0.4620   0.4628   0.5253   0.5261   3.5205   3.5213   3.6004   3.6016
     3.8019   3.8021   3.8456   3.8463   5.2591   5.2599   5.3393   5.3401
     5.9083   5.9091   5.9876   5.9880   6.1894   6.1905   6.2361   6.2373
     7.6084   7.6094   8.2800   8.2806   8.5488   8.5494   8.7662   8.7672
     8.7965   8.7970   8.8670

          k = 0.0000-0.1991 0.0000 ( 92946 PWs)   bands (ev):

   -23.8991 -23.8985 -23.8980 -23.8974 -23.7967 -23.7958 -23.7957 -23.7950
   -20.8968 -20.8961 -20.6245 -20.6244 -19.4468 -19.4461 -19.4419 -19.4412
   -19.3616 -19.3608 -19.3605 -19.3600 -18.7433 -18.7419 -18.3861 -18.3855
   -15.5461 -15.5458 -15.5290 -15.5287 -13.5423 -13.5420 -13.5210 -13.5207
   -12.8045 -12.8043 -12.7375 -12.7374 -11.2525 -11.2520 -11.1363 -11.1362
   -10.2898 -10.2896 -10.2035 -10.2031  -9.5868  -9.5862  -9.0981  -9.0978
    -7.9620  -7.9611  -7.9439  -7.9429  -7.6484  -7.6481  -7.5558  -7.5557
    -7.0748  -7.0741  -6.9863  -6.9863  -6.3933  -6.3927  -6.3490  -6.3488
    -6.2467  -6.2464  -6.1486  -6.1485  -6.1000  -6.0997  -6.0069  -6.0069
    -5.9952  -5.9950  -5.7870  -5.7867  -5.6602  -5.6597  -5.5767  -5.5767
    -5.4665  -5.4663  -5.3664  -5.3659  -5.2079  -5.2072  -4.9507  -4.9504
    -4.8966  -4.8962  -4.7081  -4.7077  -4.5882  -4.5881  -4.4564  -4.4559
    -3.5707  -3.5701  -3.5208  -3.5205  -3.0664  -3.0654  -2.7638  -2.7630
    -2.7218  -2.7211  -2.4828  -2.4822  -2.4504  -2.4498  -2.4022  -2.4015
    -2.0630  -2.0615  -1.5497  -1.5495  -1.1800  -1.1799  -1.1376  -1.1376
    -0.7998  -0.7995  -0.7358  -0.7351  -0.7230  -0.7227  -0.6410  -0.6405
    -0.5228  -0.5225  -0.4395  -0.4393  -0.3932  -0.3928  -0.3493  -0.3490
    -0.2281  -0.2277  -0.1870  -0.1870  -0.1718  -0.1715   0.0353   0.0357
     0.1138   0.1140   0.1690   0.1693   0.3053   0.3054   0.3423   0.3424
     0.4508   0.4512   0.5286   0.5288   3.5219   3.5222   3.6058   3.6060
     3.8117   3.8119   3.8328   3.8330   5.2366   5.2376   5.3591   5.3599
     5.8868   5.8873   6.0077   6.0079   6.1672   6.1675   6.2650   6.2652
     7.5918   7.5923   8.3811   8.3812   8.6254   8.6259   8.6825   8.6829
     8.7416   8.7426   8.8584

          k = 0.0000-0.1991-0.1740 ( 93044 PWs)   bands (ev):

   -23.8990 -23.8984 -23.8981 -23.8974 -23.7967 -23.7957 -23.7957 -23.7950
   -20.8968 -20.8961 -20.6245 -20.6244 -19.4452 -19.4445 -19.4436 -19.4428
   -19.3616 -19.3607 -19.3606 -19.3600 -18.7433 -18.7419 -18.3861 -18.3855
   -15.5446 -15.5440 -15.5309 -15.5302 -13.5359 -13.5350 -13.5276 -13.5267
   -12.7874 -12.7871 -12.7566 -12.7564 -11.2550 -11.2545 -11.1308 -11.1307
   -10.2678 -10.2672 -10.2247 -10.2240  -9.5917  -9.5911  -9.0955  -9.0952
    -7.9631  -7.9620  -7.9596  -7.9584  -7.6115  -7.6111  -7.5748  -7.5746
    -7.1431  -7.1425  -6.9049  -6.9045  -6.3893  -6.3886  -6.3436  -6.3434
    -6.2438  -6.2432  -6.1554  -6.1552  -6.1037  -6.1034  -5.9983  -5.9982
    -5.9980  -5.9979  -5.7737  -5.7735  -5.7260  -5.7259  -5.5978  -5.5973
    -5.4131  -5.4128  -5.3417  -5.3412  -5.2433  -5.2427  -4.9238  -4.9233
    -4.9227  -4.9222  -4.7153  -4.7150  -4.5346  -4.5340  -4.4992  -4.4989
    -3.5669  -3.5663  -3.5249  -3.5244  -3.0636  -3.0626  -2.7552  -2.7543
    -2.7329  -2.7322  -2.4835  -2.4830  -2.4644  -2.4634  -2.3771  -2.3766
    -2.0722  -2.0709  -1.5455  -1.5453  -1.1704  -1.1703  -1.1523  -1.1521
    -0.7686  -0.7681  -0.7417  -0.7411  -0.7336  -0.7330  -0.6451  -0.6446
    -0.4996  -0.4990  -0.4339  -0.4335  -0.4315  -0.4313  -0.3478  -0.3473
    -0.2385  -0.2379  -0.1916  -0.1914  -0.0939  -0.0931  -0.0606  -0.0600
     0.1519   0.1528   0.1550   0.1556   0.3144   0.3146   0.3331   0.3332
     0.4680   0.4684   0.5181   0.5183   3.5408   3.5412   3.5847   3.5851
     3.8141   3.8144   3.8297   3.8301   5.2779   5.2793   5.3163   5.3176
     5.9124   5.9130   5.9868   5.9870   6.2097   6.2102   6.2196   6.2200
     7.8598   7.8612   7.9108   7.9114   8.6414   8.6415   8.6451   8.6452
     8.7956   8.7963   8.8350

          k = 0.2500 0.0000 0.0000 ( 92991 PWs)   bands (ev):

   -23.8962 -23.8953 -23.8936 -23.8929 -23.7957 -23.7949 -23.7932 -23.7925
   -20.8553 -20.8547 -20.6618 -20.6615 -19.4457 -19.4448 -19.4426 -19.4415
   -19.3662 -19.3652 -19.3651 -19.3640 -18.7034 -18.7022 -18.4500 -18.4493
   -15.5246 -15.5121 -15.5055 -15.5046 -13.5920 -13.5842 -13.5790 -13.5604
   -12.8210 -12.7783 -12.7745 -12.7487 -11.2341 -11.2271 -11.1514 -11.1453
   -10.2907 -10.2350 -10.1917 -10.1862  -9.5565  -9.4869  -9.2166  -9.1561
    -7.9950  -7.9861  -7.9768  -7.9722  -7.6556  -7.6075  -7.5940  -7.5512
    -7.0337  -7.0233  -7.0148  -6.8739  -6.5124  -6.4368  -6.3580  -6.2974
    -6.2595  -6.2349  -6.1951  -6.1547  -6.1215  -6.0473  -6.0106  -6.0100
    -5.9944  -5.9867  -5.8162  -5.7666  -5.6741  -5.6445  -5.6352  -5.5986
    -5.4678  -5.4297  -5.3876  -5.3605  -5.2415  -5.1721  -4.9786  -4.9650
    -4.9425  -4.9326  -4.8076  -4.7867  -4.5716  -4.5310  -4.5027  -4.4501
    -3.5979  -3.5570  -3.5540  -3.5268  -2.9626  -2.8835  -2.7736  -2.7510
    -2.7140  -2.6382  -2.6304  -2.5486  -2.4675  -2.4376  -2.3911  -2.3709
    -2.1592  -2.0155  -1.7337  -1.6961  -1.1296  -1.0657  -1.0647  -0.9903
    -0.8580  -0.7936  -0.7930  -0.7467  -0.6373  -0.5410  -0.5274  -0.5131
    -0.4905  -0.4251  -0.3926  -0.3616  -0.2991  -0.2705  -0.2670  -0.1957
    -0.1929  -0.1525  -0.1414  -0.0967  -0.0776  -0.0479   0.0007   0.0544
     0.1368   0.1399   0.2121   0.2333   0.2835   0.3035   0.3168   0.3207
     0.4476   0.4578   0.5000   0.5235   3.4509   3.4701   3.5410   3.5427
     3.5669   3.5917   3.6803   3.6984   5.3536   5.4111   5.4797   5.5766
     5.7857   5.8345   5.8652   5.9313   5.9977   6.0617   6.1793   6.1800
     7.7256   8.1115   8.1837   8.3256   8.3972   8.7397   8.7981   9.0290
     9.0772   9.1473   9.2148

          k = 0.2500 0.0000-0.1740 ( 92954 PWs)   bands (ev):

   -23.8959 -23.8957 -23.8933 -23.8932 -23.7957 -23.7949 -23.7932 -23.7925
   -20.8553 -20.8547 -20.6618 -20.6615 -19.4449 -19.4442 -19.4432 -19.4425
   -19.3662 -19.3654 -19.3648 -19.3642 -18.7034 -18.7022 -18.4500 -18.4493
   -15.5188 -15.5179 -15.5055 -15.5046 -13.5871 -13.5867 -13.5710 -13.5705
   -12.7932 -12.7926 -12.7698 -12.7691 -11.2333 -11.2328 -11.1444 -11.1442
   -10.2465 -10.2459 -10.2056 -10.2049  -9.5284  -9.5278  -9.1817  -9.1813
    -7.9957  -7.9951  -7.9763  -7.9758  -7.6199  -7.6193  -7.5771  -7.5765
    -7.0803  -7.0797  -6.8881  -6.8877  -6.4749  -6.4743  -6.3285  -6.3283
    -6.2439  -6.2433  -6.1729  -6.1726  -6.0782  -6.0775  -6.0120  -6.0116
    -5.9865  -5.9861  -5.7900  -5.7898  -5.7270  -5.7267  -5.5899  -5.5893
    -5.4310  -5.4306  -5.3760  -5.3758  -5.2141  -5.2135  -4.9593  -4.9588
    -4.9354  -4.9347  -4.8171  -4.8164  -4.5233  -4.5229  -4.4912  -4.4909
    -3.5812  -3.5805  -3.5383  -3.5376  -2.9311  -2.9301  -2.7518  -2.7509
    -2.6880  -2.6873  -2.5781  -2.5776  -2.4534  -2.4525  -2.3697  -2.3693
    -2.1085  -2.1074  -1.7106  -1.7105  -1.1282  -1.1275  -1.0060  -1.0054
    -0.8148  -0.8142  -0.7608  -0.7600  -0.6087  -0.6077  -0.4864  -0.4857
    -0.4651  -0.4645  -0.4001  -0.3996  -0.2701  -0.2697  -0.2356  -0.2350
    -0.1893  -0.1887  -0.1207  -0.1203  -0.0773  -0.0766   0.0517   0.0523
     0.1403   0.1407   0.2179   0.2181   0.2903   0.2910   0.3242   0.3248
     0.4664   0.4668   0.5001   0.5007   3.4646   3.4652   3.5437   3.5446
     3.5646   3.5648   3.6925   3.6929   5.4027   5.4033   5.4933   5.4939
     5.8361   5.8367   5.8875   5.8881   6.0548   6.0552   6.1542   6.1549
     7.9654   7.9664   8.2641   8.2645   8.3491   8.3499   9.0717   9.0722
     9.1319   9.1327   9.2382

          k = 0.2500-0.1991 0.0000 ( 92964 PWs)   bands (ev):

   -23.8953 -23.8946 -23.8945 -23.8938 -23.7949 -23.7940 -23.7940 -23.7933
   -20.8553 -20.8547 -20.6618 -20.6615 -19.4456 -19.4449 -19.4425 -19.4417
   -19.3661 -19.3653 -19.3648 -19.3642 -18.7034 -18.7022 -18.4500 -18.4493
   -15.5185 -15.5182 -15.5052 -15.5049 -13.5877 -13.5875 -13.5703 -13.5700
   -12.8064 -12.8062 -12.7550 -12.7549 -11.2309 -11.2305 -11.1483 -11.1482
   -10.2664 -10.2662 -10.1857 -10.1854  -9.5252  -9.5246  -9.1833  -9.1829
    -7.9891  -7.9886  -7.9763  -7.9759  -7.6347  -7.6346  -7.5694  -7.5693
    -7.0353  -7.0347  -6.9470  -6.9469  -6.4358  -6.4357  -6.3922  -6.3921
    -6.2003  -6.2003  -6.1629  -6.1627  -6.1163  -6.1156  -6.0118  -6.0117
    -5.9913  -5.9911  -5.7705  -5.7703  -5.6802  -5.6800  -5.5756  -5.5752
    -5.4855  -5.4855  -5.3834  -5.3831  -5.1984  -5.1978  -4.9668  -4.9664
    -4.9441  -4.9439  -4.7882  -4.7875  -4.5567  -4.5567  -4.4750  -4.4747
    -3.5833  -3.5828  -3.5349  -3.5346  -2.9279  -2.9271  -2.7655  -2.7649
    -2.6730  -2.6727  -2.5823  -2.5820  -2.4559  -2.4552  -2.3857  -2.3855
    -2.0863  -2.0852  -1.7132  -1.7131  -1.1053  -1.1049  -1.0275  -1.0273
    -0.8361  -0.8359  -0.7509  -0.7508  -0.5778  -0.5775  -0.5227  -0.5226
    -0.4779  -0.4778  -0.3633  -0.3633  -0.2921  -0.2920  -0.2468  -0.2467
    -0.1482  -0.1481  -0.1137  -0.1135  -0.0626  -0.0626   0.0118   0.0119
     0.1643   0.1644   0.1942   0.1944   0.2968   0.2968   0.3210   0.3211
     0.4540   0.4540   0.5125   0.5125   3.4629   3.4631   3.5348   3.5349
     3.6190   3.6192   3.6527   3.6528   5.3815   5.3821   5.5262   5.5268
     5.8175   5.8178   5.8949   5.8951   6.0378   6.0379   6.1707   6.1708
     7.8487   7.8489   8.2742   8.2743   8.7193   8.7199   8.8857   8.8861
     9.0260   9.0265   9.2128

          k = 0.2500-0.1991-0.1740 ( 92932 PWs)   bands (ev):

   -23.8952 -23.8946 -23.8945 -23.8939 -23.7949 -23.7940 -23.7940 -23.7933
   -20.8553 -20.8547 -20.6618 -20.6615 -19.4448 -19.4441 -19.4433 -19.4425
   -19.3661 -19.3653 -19.3649 -19.3643 -18.7034 -18.7022 -18.4500 -18.4493
   -15.5170 -15.5164 -15.5071 -15.5065 -13.5818 -13.5809 -13.5767 -13.5757
   -12.7921 -12.7918 -12.7706 -12.7704 -11.2330 -11.2326 -11.1445 -11.1444
   -10.2417 -10.2411 -10.2106 -10.2099  -9.5281  -9.5275  -9.1818  -9.1815
    -7.9908  -7.9896  -7.9821  -7.9810  -7.6098  -7.6095  -7.5858  -7.5857
    -7.0769  -7.0763  -6.8971  -6.8967  -6.4401  -6.4398  -6.3939  -6.3937
    -6.1966  -6.1965  -6.1699  -6.1697  -6.0881  -6.0872  -6.0060  -6.0057
    -5.9963  -5.9961  -5.7957  -5.7955  -5.7086  -5.7083  -5.5945  -5.5939
    -5.4232  -5.4229  -5.3950  -5.3945  -5.2215  -5.2209  -4.9558  -4.9554
    -4.9295  -4.9289  -4.8143  -4.8137  -4.5108  -4.5105  -4.5061  -4.5057
    -3.5792  -3.5785  -3.5396  -3.5391  -2.9332  -2.9323  -2.7463  -2.7456
    -2.6918  -2.6914  -2.5748  -2.5745  -2.4542  -2.4534  -2.3751  -2.3749
    -2.1030  -2.1018  -1.7136  -1.7134  -1.1243  -1.1238  -1.0194  -1.0192
    -0.7939  -0.7936  -0.7757  -0.7755  -0.5799  -0.5794  -0.5249  -0.5247
    -0.4170  -0.4168  -0.4159  -0.4156  -0.2781  -0.2775  -0.2606  -0.2601
    -0.1742  -0.1738  -0.1325  -0.1319  -0.0581  -0.0574   0.0391   0.0399
     0.1768   0.1772   0.1820   0.1826   0.2927   0.2930   0.3270   0.3271
     0.4697   0.4698   0.4977   0.4978   3.4758   3.4761   3.5145   3.5148
     3.6356   3.6359   3.6385   3.6390   5.4249   5.4260   5.4693   5.4705
     5.8552   5.8558   5.8706   5.8709   6.0941   6.0944   6.1159   6.1161
     8.0432   8.0441   8.0584   8.0589   8.7199   8.7211   8.7596   8.7599
     9.1334   9.1428   9.1483

          k =-0.5000 0.0000 0.0000 ( 92838 PWs)   bands (ev):

   -23.8912 -23.8912 -23.8906 -23.8905 -23.7932 -23.7923 -23.7922 -23.7916
   -20.7574 -20.7569 -20.7557 -20.7552 -19.4440 -19.4439 -19.4426 -19.4425
   -19.3706 -19.3699 -19.3693 -19.3686 -18.5899 -18.5888 -18.5873 -18.5864
   -15.4890 -15.4885 -15.4812 -15.4807 -13.6373 -13.6371 -13.6199 -13.6198
   -12.7994 -12.7991 -12.7763 -12.7760 -11.1912 -11.1907 -11.1817 -11.1812
   -10.2429 -10.2429 -10.1694 -10.1694  -9.3869  -9.3861  -9.3430  -9.3422
    -8.0241  -8.0239  -8.0047  -8.0044  -7.6267  -7.6263  -7.5747  -7.5744
    -6.9659  -6.9656  -6.9005  -6.9003  -6.5281  -6.5276  -6.4127  -6.4125
    -6.2239  -6.2236  -6.2059  -6.2056  -6.0287  -6.0284  -5.9926  -5.9925
    -5.9585  -5.9584  -5.9085  -5.9078  -5.6341  -5.6340  -5.5842  -5.5841
    -5.4519  -5.4518  -5.4102  -5.4101  -5.1471  -5.1461  -5.0772  -5.0764
    -4.9514  -4.9513  -4.8827  -4.8826  -4.5149  -4.5144  -4.4457  -4.4454
    -3.5994  -3.5989  -3.5610  -3.5604  -2.8397  -2.8393  -2.7889  -2.7889
    -2.6716  -2.6713  -2.6192  -2.6191  -2.4380  -2.4370  -2.3697  -2.3689
    -2.0046  -2.0042  -1.9176  -1.9175  -1.1229  -1.1219  -1.0322  -1.0314
    -0.6820  -0.6816  -0.6532  -0.6527  -0.5590  -0.5581  -0.4890  -0.4882
    -0.4740  -0.4734  -0.3602  -0.3593  -0.2697  -0.2692  -0.1652  -0.1648
    -0.1144  -0.1137  -0.0183  -0.0182   0.0900   0.0907   0.1506   0.1515
     0.1989   0.1991   0.3121   0.3122   0.3314   0.3319   0.3950   0.3953
     0.4562   0.4568   0.4846   0.4855   3.2363   3.2367   3.2770   3.2771
     3.4951   3.4960   3.6183   3.6189   5.4642   5.4645   5.6115   5.6118
     5.7405   5.7407   5.8073   5.8077   6.0379   6.0383   6.2105   6.2109
     7.9553   7.9563   8.2232   8.2238   8.9888   8.9892   9.3281   9.3283
     9.4279   9.4292   9.5135

          k =-0.5000 0.0000-0.1740 ( 92900 PWs)   bands (ev):

   -23.8912 -23.8912 -23.8906 -23.8905 -23.7932 -23.7923 -23.7922 -23.7916
   -20.7574 -20.7569 -20.7557 -20.7552 -19.4440 -19.4439 -19.4426 -19.4425
   -19.3706 -19.3699 -19.3693 -19.3686 -18.5899 -18.5888 -18.5873 -18.5864
   -15.4872 -15.4861 -15.4836 -15.4825 -13.6326 -13.6323 -13.6247 -13.6244
   -12.7907 -12.7892 -12.7865 -12.7851 -11.1892 -11.1884 -11.1836 -11.1828
   -10.2117 -10.2109 -10.2027 -10.2018  -9.3746  -9.3733  -9.3559  -9.3547
    -8.0163  -8.0159  -8.0124  -8.0121  -7.6145  -7.6137  -7.5839  -7.5832
    -6.9621  -6.9615  -6.9027  -6.9020  -6.5236  -6.5232  -6.4266  -6.4263
    -6.2219  -6.2214  -6.2081  -6.2076  -6.0082  -6.0077  -5.9908  -5.9902
    -5.9639  -5.9631  -5.9205  -5.9198  -5.6131  -5.6128  -5.6117  -5.6114
    -5.4466  -5.4463  -5.4214  -5.4213  -5.1292  -5.1281  -5.0683  -5.0673
    -4.9585  -4.9577  -4.9087  -4.9078  -4.4918  -4.4913  -4.4482  -4.4478
    -3.5856  -3.5841  -3.5785  -3.5771  -2.8297  -2.8293  -2.7817  -2.7814
    -2.6558  -2.6549  -2.6547  -2.6539  -2.4217  -2.4206  -2.3765  -2.3757
    -1.9818  -1.9814  -1.9542  -1.9538  -1.1253  -1.1243  -1.0429  -1.0420
    -0.6584  -0.6575  -0.6574  -0.6565  -0.5519  -0.5507  -0.5091  -0.5085
    -0.4387  -0.4385  -0.3656  -0.3648  -0.3024  -0.3016  -0.1847  -0.1841
    -0.0887  -0.0883  -0.0091  -0.0087   0.0876   0.0883   0.1463   0.1472
     0.1981   0.1983   0.3052   0.3055   0.3651   0.3658   0.3778   0.3780
     0.4652   0.4667   0.4745   0.4763   3.2432   3.2436   3.2708   3.2710
     3.4853   3.4863   3.6209   3.6215   5.4767   5.4770   5.5821   5.5827
     5.7714   5.7718   5.7921   5.7927   6.0619   6.0623   6.1894   6.1898
     7.9705   7.9716   8.2194   8.2201   9.0589   9.0593   9.2010   9.2015
     9.4314   9.4329   9.4820

          k =-0.5000-0.1991 0.0000 ( 92868 PWs)   bands (ev):

   -23.8912 -23.8911 -23.8906 -23.8905 -23.7932 -23.7923 -23.7922 -23.7916
   -20.7574 -20.7569 -20.7557 -20.7552 -19.4437 -19.4436 -19.4430 -19.4428
   -19.3704 -19.3696 -19.3695 -19.3689 -18.5899 -18.5888 -18.5873 -18.5864
   -15.4883 -15.4883 -15.4815 -15.4814 -13.6363 -13.6363 -13.6207 -13.6207
   -12.7993 -12.7992 -12.7763 -12.7762 -11.1904 -11.1904 -11.1817 -11.1817
   -10.2431 -10.2431 -10.1694 -10.1694  -9.3843  -9.3842  -9.3449  -9.3448
    -8.0211  -8.0210  -8.0071  -8.0070  -7.6240  -7.6240  -7.5813  -7.5813
    -6.9521  -6.9521  -6.9062  -6.9061  -6.5071  -6.5070  -6.4277  -6.4277
    -6.2417  -6.2416  -6.2201  -6.2200  -6.0039  -6.0038  -5.9890  -5.9890
    -5.9392  -5.9391  -5.9353  -5.9352  -5.6243  -5.6243  -5.6076  -5.6076
    -5.4406  -5.4406  -5.4021  -5.4020  -5.1316  -5.1315  -5.0977  -5.0976
    -4.9560  -4.9559  -4.8725  -4.8724  -4.5011  -4.5011  -4.4626  -4.4625
    -3.5966  -3.5966  -3.5660  -3.5659  -2.8230  -2.8230  -2.7972  -2.7972
    -2.6794  -2.6793  -2.6147  -2.6146  -2.4121  -2.4120  -2.4002  -2.4000
    -2.0101  -2.0101  -1.9094  -1.9094  -1.0797  -1.0796  -1.0750  -1.0749
    -0.6682  -0.6682  -0.6590  -0.6590  -0.5686  -0.5686  -0.5174  -0.5173
    -0.4370  -0.4370  -0.3698  -0.3698  -0.2485  -0.2484  -0.1872  -0.1872
    -0.0757  -0.0757  -0.0551  -0.0550   0.0974   0.0974   0.1132   0.1133
     0.2692   0.2693   0.2818   0.2819   0.3593   0.3593   0.3679   0.3680
     0.4537   0.4537   0.4832   0.4833   3.2405   3.2406   3.2732   3.2732
     3.5399   3.5400   3.5719   3.5719   5.4755   5.4756   5.5911   5.5911
     5.7580   5.7580   5.8086   5.8087   6.0604   6.0604   6.1811   6.1811
     8.0246   8.0247   8.1268   8.1268   9.1868   9.1869   9.2031   9.2033
     9.4336   9.4336   9.4963

          k =-0.5000-0.1991-0.1740 ( 92888 PWs)   bands (ev):

   -23.8912 -23.8911 -23.8906 -23.8905 -23.7932 -23.7923 -23.7922 -23.7916
   -20.7574 -20.7569 -20.7557 -20.7552 -19.4437 -19.4436 -19.4430 -19.4428
   -19.3704 -19.3695 -19.3695 -19.3689 -18.5899 -18.5888 -18.5873 -18.5864
   -15.4857 -15.4851 -15.4846 -15.4840 -13.6291 -13.6288 -13.6282 -13.6279
   -12.7888 -12.7885 -12.7873 -12.7871 -11.1864 -11.1861 -11.1856 -11.1854
   -10.2076 -10.2070 -10.2067 -10.2061  -9.3655  -9.3651  -9.3644  -9.3638
    -8.0147  -8.0144  -8.0135  -8.0130  -7.6016  -7.6014  -7.6008  -7.6006
    -6.9294  -6.9290  -6.9287  -6.9283  -6.4726  -6.4724  -6.4722  -6.4720
    -6.2284  -6.2283  -6.2279  -6.2279  -5.9916  -5.9913  -5.9911  -5.9908
    -5.9405  -5.9399  -5.9398  -5.9393  -5.6208  -5.6205  -5.6202  -5.6199
    -5.4250  -5.4250  -5.4248  -5.4247  -5.1050  -5.1043  -5.1037  -5.1033
    -4.9279  -4.9273  -4.9271  -4.9263  -4.4716  -4.4713  -4.4711  -4.4709
    -3.5832  -3.5827  -3.5818  -3.5812  -2.8053  -2.8050  -2.8046  -2.8043
    -2.6561  -2.6552  -2.6549  -2.6542  -2.4006  -2.4000  -2.3997  -2.3990
    -1.9667  -1.9664  -1.9661  -1.9660  -1.0855  -1.0849  -1.0846  -1.0840
    -0.6525  -0.6523  -0.6514  -0.6513  -0.5388  -0.5385  -0.5379  -0.5375
    -0.4126  -0.4122  -0.4118  -0.4115  -0.2316  -0.2311  -0.2309  -0.2302
    -0.0505  -0.0501  -0.0496  -0.0493   0.1012   0.1019   0.1021   0.1028
     0.2788   0.2791   0.2794   0.2797   0.3641   0.3643   0.3647   0.3649
     0.4672   0.4674   0.4689   0.4692   3.2557   3.2557   3.2559   3.2560
     3.5532   3.5536   3.5539   3.5544   5.5245   5.5248   5.5254   5.5257
     5.7899   5.7903   5.7905   5.7908   6.1226   6.1228   6.1230   6.1232
     8.0838   8.0841   8.0846   8.0850   9.1907   9.1908   9.1917   9.1918
     9.4336   9.4340   9.4342

     highest occupied, lowest unoccupied level (ev):     0.5490    3.2363

!    total energy              =   -1759.27333658 Ry
     Harris-Foulkes estimate   =   -1759.27333658 Ry
     estimated scf accuracy    <          2.9E-09 Ry

     total all-electron energy =     -6639.383933 Ry

     The total energy is the sum of the following terms:

     one-electron contribution =    -911.89632689 Ry
     hartree contribution      =     585.01453856 Ry
     xc contribution           =    -346.75705602 Ry
     ewald contribution        =    -604.23097870 Ry
     Dispersion Correction     =      -0.35729930 Ry
     one-center paw contrib.   =    -481.04621422 Ry

     convergence has been achieved in  17 iterations

     Forces acting on atoms (cartesian axes, Ry/au):

     atom    1 type  4   force =    -0.00166450    0.00214094   -0.00031716
     atom    2 type  4   force =     0.00163813   -0.00210218   -0.00032356
     atom    3 type  4   force =     0.00163746    0.00215788    0.00026977
     atom    4 type  4   force =    -0.00167912   -0.00214016    0.00030859
     atom    5 type  3   force =    -0.00141323    0.00116154    0.00080762
     atom    6 type  3   force =     0.00143427   -0.00118786    0.00078781
     atom    7 type  3   force =     0.00140327    0.00116556   -0.00077572
     atom    8 type  3   force =    -0.00143742   -0.00117463   -0.00079265
     atom    9 type  4   force =     0.00381149   -0.00369908   -0.00570456
     atom   10 type  4   force =    -0.00377574    0.00370490   -0.00567629
     atom   11 type  4   force =    -0.00387355   -0.00371396    0.00565799
     atom   12 type  4   force =     0.00369742    0.00359140    0.00571796
     atom   13 type  4   force =    -0.00577601   -0.00012301    0.00243151
     atom   14 type  4   force =     0.00605158    0.00024138    0.00282475
     atom   15 type  4   force =     0.00607480   -0.00027284   -0.00283752
     atom   16 type  4   force =    -0.00582730    0.00012953   -0.00252685
     atom   17 type  4   force =     0.00524012    0.00236057   -0.00278403
     atom   18 type  4   force =    -0.00469882   -0.00193769   -0.00272532
     atom   19 type  4   force =    -0.00465103    0.00190300    0.00270097
     atom   20 type  4   force =     0.00520011   -0.00232830    0.00278716
     atom   21 type  4   force =    -0.00040648    0.00224992   -0.00280820
     atom   22 type  4   force =     0.00031047   -0.00250537   -0.00321591
     atom   23 type  4   force =     0.00028455    0.00250834    0.00328847
     atom   24 type  4   force =    -0.00042971   -0.00224943    0.00277643
     atom   25 type  4   force =    -0.00170775    0.00012363   -0.00092994
     atom   26 type  4   force =     0.00197018   -0.00001752   -0.00140936
     atom   27 type  4   force =     0.00197807   -0.00000943    0.00147143
     atom   28 type  4   force =    -0.00173605   -0.00011891    0.00093711
     atom   29 type  2   force =     0.00318348   -0.00652059   -0.00171986
     atom   30 type  2   force =    -0.00404705    0.00593570   -0.00222559
     atom   31 type  2   force =    -0.00418382   -0.00583549    0.00230375
     atom   32 type  2   force =     0.00322319    0.00650688    0.00179092
     atom   33 type  2   force =    -0.00629472   -0.00162160    0.00342480
     atom   34 type  2   force =     0.00616534    0.00175107    0.00431746
     atom   35 type  2   force =     0.00616333   -0.00175398   -0.00445655
     atom   36 type  2   force =    -0.00628210    0.00159295   -0.00338253
     atom   37 type  1   force =     0.01428813    0.01112502    0.00625377
     atom   38 type  1   force =    -0.01437354   -0.01128683    0.00578055
     atom   39 type  1   force =    -0.01439040    0.01123897   -0.00586969
     atom   40 type  1   force =     0.01428495   -0.01119261   -0.00615917
     atom   41 type  1   force =    -0.01302753   -0.00785916    0.00568660
     atom   42 type  1   force =     0.01339124    0.00813736    0.00624989
     atom   43 type  1   force =     0.01350195   -0.00819957   -0.00623202
     atom   44 type  1   force =    -0.01295860    0.00781986   -0.00578374
     atom   45 type  1   force =     0.02283716   -0.01121290   -0.00044937
     atom   46 type  1   force =    -0.02284745    0.01120107   -0.00135892
     atom   47 type  1   force =    -0.02319311   -0.01096446    0.00090545
     atom   48 type  1   force =     0.02253495    0.01143154    0.00103364
     atom   49 type  3   force =    -0.00245460    0.00095196   -0.00021772
     atom   50 type  3   force =     0.00250732   -0.00092778   -0.00016848
     atom   51 type  3   force =     0.00259301    0.00083295    0.00019964
     atom   52 type  3   force =    -0.00237354   -0.00104148    0.00017395
     atom   53 type  1   force =    -0.00436108   -0.00480488    0.00016226
     atom   54 type  1   force =     0.00472753    0.00493871    0.00125346
     atom   55 type  1   force =     0.00452770   -0.00489950   -0.00051538
     atom   56 type  1   force =    -0.00462591    0.00487110   -0.00101668
     atom   57 type  3   force =    -0.00137595   -0.00140552    0.00107628
     atom   58 type  3   force =     0.00120850    0.00130849    0.00062930
     atom   59 type  3   force =     0.00130486   -0.00135989   -0.00093218
     atom   60 type  3   force =    -0.00124732    0.00133901   -0.00072174
     atom   61 type  1   force =     0.01422126   -0.00078750   -0.00563342
     atom   62 type  1   force =    -0.01473776    0.00050192   -0.00638878
     atom   63 type  1   force =    -0.01438128   -0.00067244    0.00624259
     atom   64 type  1   force =     0.01460344    0.00059999    0.00586939
     atom   65 type  3   force =    -0.00007574    0.00219265    0.00075834
     atom   66 type  3   force =     0.00013396   -0.00222211    0.00084940
     atom   67 type  3   force =     0.00001840    0.00224204   -0.00091582
     atom   68 type  3   force =    -0.00017628   -0.00218403   -0.00072259
     atom   69 type  1   force =    -0.02270553    0.01528239   -0.00430710
     atom   70 type  1   force =     0.02258272   -0.01513512   -0.00367732
     atom   71 type  1   force =     0.02274439    0.01524882    0.00382481
     atom   72 type  1   force =    -0.02253149   -0.01516410    0.00406435
     atom   73 type  1   force =    -0.00341181    0.00033515    0.00192849
     atom   74 type  1   force =     0.00330373   -0.00031667    0.00197393
     atom   75 type  1   force =     0.00353865    0.00030227   -0.00185191
     atom   76 type  1   force =    -0.00318778   -0.00017792   -0.00198697

     Total force =     0.103127     Total SCF correction =     0.000110


     Computing stress (Cartesian axis) and pressure

          total   stress  (Ry/bohr**3)                   (kbar)     P=   -3.23
  -0.00002362   0.00000000  -0.00000038         -3.47      0.00     -0.06
   0.00000000   0.00000795  -0.00000007          0.00      1.17     -0.01
  -0.00000038  -0.00000007  -0.00005019         -0.06     -0.01     -7.38


     Writing output data file scf.save
 
     init_run     :     50.03s CPU     51.98s WALL (       1 calls)
     electrons    :   2050.25s CPU   2136.01s WALL (       1 calls)
     forces       :     24.05s CPU     24.23s WALL (       1 calls)
     stress       :    111.82s CPU    112.22s WALL (       1 calls)

     Called by init_run:
     wfcinit      :     45.27s CPU     47.10s WALL (       1 calls)
     potinit      :      1.75s CPU      1.79s WALL (       1 calls)

     Called by electrons:
     c_bands      :   1846.59s CPU   1921.38s WALL (      17 calls)
     sum_band     :    192.40s CPU    202.18s WALL (      17 calls)
     v_of_rho     :      1.81s CPU      2.00s WALL (      18 calls)
     newd         :      3.51s CPU      4.41s WALL (      18 calls)
     PAW_pot      :      5.51s CPU      5.51s WALL (      18 calls)
     mix_rho      :      0.40s CPU      0.43s WALL (      17 calls)

     Called by c_bands:
     init_us_2    :      9.53s CPU      9.55s WALL (     444 calls)
     cegterg      :   1805.16s CPU   1879.85s WALL (     204 calls)

     Called by sum_band:
     sum_band:bec :      0.14s CPU      0.14s WALL (     204 calls)
     addusdens    :      3.55s CPU      4.39s WALL (      17 calls)

     Called by *egterg:
     h_psi        :    968.77s CPU   1027.09s WALL (     947 calls)
     s_psi        :    219.09s CPU    219.16s WALL (     947 calls)
     g_psi        :      4.80s CPU      4.80s WALL (     731 calls)
     cdiaghg      :    105.88s CPU    105.90s WALL (     935 calls)

     Called by h_psi:
     h_psi:pot    :    962.06s CPU   1020.27s WALL (     947 calls)
     h_psi:calbec :    215.79s CPU    216.28s WALL (     947 calls)
     vloc_psi     :    526.21s CPU    583.87s WALL (     947 calls)
     add_vuspsi   :    220.05s CPU    220.12s WALL (     947 calls)

     General routines
     calbec       :    316.54s CPU    317.22s WALL (    1211 calls)
     fft          :      1.21s CPU      1.54s WALL (     258 calls)
     fftw         :    572.83s CPU    634.79s WALL (  246146 calls)
 
     Parallel routines
     fft_scatter  :    126.81s CPU    176.17s WALL (  246404 calls)
 
     PWSCF        : 37m30.39s CPU    40m 5.19s WALL

 
   This run was terminated on:   5:44: 4   4Nov2017            

=------------------------------------------------------------------------------=
   JOB DONE.
=------------------------------------------------------------------------------=
