
     Program PWSCF v.6.1 (svn rev. 13369) starts on 15Dec2017 at  6:43: 5 

     This program is part of the open-source Quantum ESPRESSO suite
     for quantum simulation of materials; please cite
         "P. Giannozzi et al., J. Phys.:Condens. Matter 21 395502 (2009);
          URL http://www.quantum-espresso.org", 
     in publications or presentations arising from this work. More details at
     http://www.quantum-espresso.org/quote

     Parallel version (MPI), running on     8 processors
     R & G space division:  proc/nbgrp/npool/nimage =       8
     Waiting for input...
     Reading input from standard input

     Current dimensions of program PWSCF are:
     Max number of different atomic species (ntypx) = 10
     Max number of k-points (npk) =  40000
     Max angular momentum in pseudopotentials (lmaxx) =  3
               file C.pbe-n-kjpaw_psl.0.1.UPF: wavefunction(s)  2P renormalized
               file N.pbe-n-kjpaw_psl.0.1.UPF: wavefunction(s)  2P renormalized
               file H.pbe-kjpaw_psl.0.1.UPF: wavefunction(s)  1S renormalized
               file O.pbe-n-kjpaw_psl.0.1.UPF: wavefunction(s)  2P renormalized

     -------------------------------------
     Parameters for Dispersion Correction:
     -------------------------------------
       atom      VdW radius       C_6     

        C          2.744         60.710
        N          2.640         42.670
        H          1.892          4.857
        O          2.536         24.284

     Subspace diagonalization in iterative solution of the eigenvalue problem:
     a serial algorithm will be used

 
     Parallelization info
     --------------------
     sticks:   dense  smooth     PW     G-vecs:    dense   smooth      PW
     Min        1060    1060    278               147143   147143   19743
     Max        1061    1061    279               147147   147147   19747
     Sum        8485    8485   2227              1177157  1177157  157959
 


     bravais-lattice index     =            0
     lattice parameter (alat)  =      24.8159  a.u.
     unit-cell volume          =    8714.6422 (a.u.)^3
     number of atoms/cell      =          124
     number of atomic types    =            4
     number of electrons       =       472.00
     number of Kohn-Sham states=          283
     kinetic-energy cutoff     =     100.0000  Ry
     charge density cutoff     =     400.0000  Ry
     convergence threshold     =      1.0E-08
     mixing beta               =       0.5000
     number of iterations used =            8  plain     mixing
     Exchange-correlation      =  SLA  PW   PBX  PBC ( 1  4  3  4 0 0)

     celldm(1)=  24.815884  celldm(2)=   0.000000  celldm(3)=   0.000000
     celldm(4)=   0.000000  celldm(5)=   0.000000  celldm(6)=   0.000000

     crystal axes: (cart. coord. in units of alat)
               a(1) = (   1.000000   0.000000   0.000000 )  
               a(2) = (   0.000000   0.432729   0.000000 )  
               a(3) = (  -0.384848   0.000000   1.317784 )  

     reciprocal axes: (cart. coord. in units 2 pi/alat)
               b(1) = (  1.000000  0.000000  0.292042 )  
               b(2) = (  0.000000  2.310914  0.000000 )  
               b(3) = (  0.000000  0.000000  0.758850 )  


     PseudoPot. # 1 for  C read from file:
     /scratch/ahofstet/pseudo/C.pbe-n-kjpaw_psl.0.1.UPF
     MD5 check sum: 430fe95172b1e11ef3f8ed03bac87931
     Pseudo is Projector augmented-wave + core cor, Zval =  4.0
     Generated using "atomic" code by A. Dal Corso  v.5.0.99 svn rev. 10869
     Shape of augmentation charge: BESSEL
     Using radial grid of 1073 points,  4 beta functions with: 
                l(1) =   0
                l(2) =   0
                l(3) =   1
                l(4) =   1
     Q(r) pseudized with 0 coefficients 


     PseudoPot. # 2 for  N read from file:
     /scratch/ahofstet/pseudo/N.pbe-n-kjpaw_psl.0.1.UPF
     MD5 check sum: f73187c8b701007e77325f868c9291d7
     Pseudo is Projector augmented-wave + core cor, Zval =  5.0
     Generated using "atomic" code by A. Dal Corso  v.5.0.99 svn rev. 10869
     Shape of augmentation charge: PSQ
     Using radial grid of 1085 points,  4 beta functions with: 
                l(1) =   0
                l(2) =   0
                l(3) =   1
                l(4) =   1
     Q(r) pseudized with 0 coefficients 


     PseudoPot. # 3 for  H read from file:
     /scratch/ahofstet/pseudo/H.pbe-kjpaw_psl.0.1.UPF
     MD5 check sum: 94e484f906d9e9773b2f6e52662335b2
     Pseudo is Projector augmented-wave, Zval =  1.0
     Generated using "atomic" code by A. Dal Corso  v.5.0.99 svn rev. 10869
     Shape of augmentation charge: PSQ
     Using radial grid of  929 points,  2 beta functions with: 
                l(1) =   0
                l(2) =   0
     Q(r) pseudized with 0 coefficients 


     PseudoPot. # 4 for  O read from file:
     /scratch/ahofstet/pseudo/O.pbe-n-kjpaw_psl.0.1.UPF
     MD5 check sum: 3f94a2996a3169367d6eb21d9b593f20
     Pseudo is Projector augmented-wave + core cor, Zval =  6.0
     Generated using "atomic" code by A. Dal Corso  v.5.0.99 svn rev. 10869
     Shape of augmentation charge: BESSEL
     Using radial grid of 1095 points,  4 beta functions with: 
                l(1) =   0
                l(2) =   0
                l(3) =   1
                l(4) =   1
     Q(r) pseudized with 0 coefficients 


     atomic species   valence    mass     pseudopotential
        C              4.00    12.01070      C( 1.00)
        N              5.00    14.00670      N( 1.00)
        H              1.00     1.00794      H( 1.00)
        O              6.00    15.99940      O( 1.00)

      2 Sym. Ops., with inversion, found
          (note:  2 additional sym.ops. were found but ignored
           their fractional translations are incommensurate with FFT grid)


   Cartesian axes

     site n.     atom                  positions (alat units)
         1           O   tau(   1) = (   0.1096926   0.1022008   0.3199188  )
         2           O   tau(   2) = (   0.6978836   0.3185654   0.3389731  )
         3           O   tau(   3) = (   0.5054598   0.3305284   0.9978649  )
         4           O   tau(   4) = (  -0.0827312   0.1141638   0.9788106  )
         5           O   tau(   5) = (   0.4691745   0.0328697   0.5053467  )
         6           O   tau(   6) = (   0.3384017   0.2492343   0.1535452  )
         7           O   tau(   7) = (   0.1459779   0.3998595   0.8124370  )
         8           O   tau(   8) = (   0.2767506   0.1834949   1.1642385  )
         9           O   tau(   9) = (   0.6701705   0.1574682   0.6420737  )
        10           O   tau(  10) = (   0.1374057   0.3738328   0.0168181  )
        11           O   tau(  11) = (  -0.0550181   0.2752610   0.6757099  )
        12           O   tau(  12) = (   0.4777467   0.0588964   1.3009656  )
        13           O   tau(  13) = (   0.4415172   0.1462781   0.6894659  )
        14           O   tau(  14) = (  -0.0187886   0.3626427   1.2872096  )
        15           O   tau(  15) = (   0.1736352   0.2864511   0.6283178  )
        16           O   tau(  16) = (   0.6339410   0.0700865   0.0305741  )
        17           O   tau(  17) = (   0.6851665   0.0278856   0.5375740  )
        18           O   tau(  18) = (   0.1224097   0.2442502   0.1213179  )
        19           O   tau(  19) = (  -0.0700141   0.4048436   0.7802097  )
        20           O   tau(  20) = (   0.4927427   0.1884790   1.1964658  )
        21           O   tau(  21) = (   0.5524801   0.3078343   0.7697546  )
        22           O   tau(  22) = (  -0.1297515   0.0914697   1.2069209  )
        23           O   tau(  23) = (   0.0626723   0.1248949   0.5480291  )
        24           O   tau(  24) = (   0.7449039   0.3412595   0.1108627  )
        25           O   tau(  25) = (   0.5246659   0.0908762   0.8232523  )
        26           O   tau(  26) = (  -0.1019374   0.3072408   1.1534232  )
        27           O   tau(  27) = (   0.0904864   0.3418530   0.4945313  )
        28           O   tau(  28) = (   0.7170897   0.1254884   0.1643605  )
        29           C   tau(  29) = (   0.5594288   0.0152458   0.6627682  )
        30           C   tau(  30) = (  -0.1367002   0.2316104   1.3139073  )
        31           C   tau(  31) = (   0.0557236   0.4174834   0.6550155  )
        32           C   tau(  32) = (   0.7518526   0.2011188   0.0038764  )
        33           N   tau(  33) = (   0.5025388   0.0914215   0.7331410  )
        34           N   tau(  34) = (  -0.0798103   0.3077861   1.2435345  )
        35           N   tau(  35) = (   0.1126135   0.3413077   0.5846427  )
        36           N   tau(  36) = (   0.6949627   0.1249431   0.0742492  )
        37           N   tau(  37) = (   0.6467366   0.0739200   0.6085484  )
        38           N   tau(  38) = (   0.1608396   0.2902846   0.0503434  )
        39           N   tau(  39) = (  -0.0315843   0.3588092   0.7092353  )
        40           N   tau(  40) = (   0.4543128   0.1424446   1.2674402  )
        41           O   tau(  41) = (   0.7025719   0.3779273   0.7479965  )
        42           O   tau(  42) = (  -0.2798434   0.1615627   1.2286790  )
        43           O   tau(  43) = (  -0.0874196   0.0548019   0.5697872  )
        44           O   tau(  44) = (   0.8949958   0.2711665   0.0891046  )
        45           O   tau(  45) = (   0.2963290   0.0142751   0.5291668  )
        46           O   tau(  46) = (   0.5112472   0.2306397   0.1297250  )
        47           O   tau(  47) = (   0.3188234   0.4184541   0.7886168  )
        48           O   tau(  48) = (   0.1039052   0.2020895   1.1880587  )
        49           N   tau(  49) = (   0.3615888   0.1355944   0.4215954  )
        50           N   tau(  50) = (   0.4459874   0.3519590   0.2372964  )
        51           N   tau(  51) = (   0.2535636   0.2971348   0.8961882  )
        52           N   tau(  52) = (   0.1691649   0.0807702   1.0804873  )
        53           N   tau(  53) = (   0.6108703   0.3700101   0.7331727  )
        54           N   tau(  54) = (  -0.1881417   0.1536455   1.2435028  )
        55           N   tau(  55) = (   0.0042821   0.0627191   0.5846110  )
        56           N   tau(  56) = (   0.8032941   0.2790837   0.0742809  )
        57           O   tau(  57) = (   0.2534577   0.0183504   0.2759365  )
        58           O   tau(  58) = (   0.5541185   0.2347150   0.3829553  )
        59           O   tau(  59) = (   0.3616947   0.4143788   1.0418471  )
        60           O   tau(  60) = (   0.0610339   0.1980142   0.9348283  )
        61           C   tau(  61) = (   0.2622479   0.1676863   0.3869134  )
        62           C   tau(  62) = (   0.5453283   0.3840509   0.2719784  )
        63           C   tau(  63) = (   0.3529045   0.2650429   0.9308702  )
        64           C   tau(  64) = (   0.0698240   0.0486783   1.0458053  )
        65           H   tau(  65) = (   0.2710591   0.2367575   0.3400321  )
        66           H   tau(  66) = (   0.5365171   0.0203929   0.3188598  )
        67           H   tau(  67) = (   0.3440932   0.1959718   0.9777516  )
        68           H   tau(  68) = (   0.0786353   0.4123364   0.9989239  )
        69           H   tau(  69) = (   0.2125265   0.1877177   0.4508690  )
        70           H   tau(  70) = (   0.5950497   0.4040823   0.2080228  )
        71           H   tau(  71) = (   0.4026258   0.2450115   0.8669146  )
        72           H   tau(  72) = (   0.0201027   0.0286469   1.1097609  )
        73           C   tau(  73) = (   0.2099058   0.0869700   0.3221245  )
        74           C   tau(  74) = (   0.5976704   0.3033346   0.3367673  )
        75           C   tau(  75) = (   0.4052466   0.3457592   0.9956591  )
        76           C   tau(  76) = (   0.0174819   0.1293946   0.9810163  )
        77           C   tau(  77) = (   0.4883837   0.3964578   0.5863907  )
        78           C   tau(  78) = (   0.3191924   0.1800932   0.0725011  )
        79           C   tau(  79) = (   0.1267686   0.0362714   0.7313930  )
        80           C   tau(  80) = (   0.2959599   0.2526360   1.2452825  )
        81           H   tau(  81) = (   0.5267079   0.3286229   0.5556605  )
        82           H   tau(  82) = (   0.2808683   0.1122583   0.1032313  )
        83           H   tau(  83) = (   0.0884445   0.1041063   0.7621231  )
        84           H   tau(  84) = (   0.3342841   0.3204709   1.2145523  )
        85           H   tau(  85) = (   0.4176700   0.3745982   0.6257037  )
        86           H   tau(  86) = (   0.3899061   0.1582336   0.0331881  )
        87           H   tau(  87) = (   0.1974823   0.0581310   0.6920799  )
        88           H   tau(  88) = (   0.2252462   0.2744956   1.2845956  )
        89           C   tau(  89) = (   0.0488456   0.0313068   0.2590794  )
        90           C   tau(  90) = (   0.7587305   0.2476714   0.3998124  )
        91           C   tau(  91) = (   0.5663067   0.4014224   1.0587043  )
        92           C   tau(  92) = (  -0.1435782   0.1850578   0.9179712  )
        93           H   tau(  93) = (   0.0584926   0.3872999   0.2915901  )
        94           H   tau(  94) = (   0.7490835   0.1709353   0.3673017  )
        95           H   tau(  95) = (   0.5566597   0.0454293   1.0261936  )
        96           H   tau(  96) = (  -0.1339312   0.2617939   0.9504819  )
        97           H   tau(  97) = (   0.0788919   0.0306503   0.1811203  )
        98           H   tau(  98) = (   0.7286843   0.2470149   0.4777715  )
        99           H   tau(  99) = (   0.5362605   0.4020789   1.1366633  )
       100           H   tau( 100) = (  -0.1135319   0.1857143   0.8400122  )
       101           C   tau( 101) = (  -0.0596194   0.0688202   0.2631752  )
       102           C   tau( 102) = (   0.8671956   0.2851848   0.3957166  )
       103           C   tau( 103) = (   0.6747718   0.3639091   1.0546084  )
       104           C   tau( 104) = (  -0.2520432   0.1475445   0.9220671  )
       105           H   tau( 105) = (   0.8912186   0.0186064   0.2178859  )
       106           H   tau( 106) = (  -0.0836424   0.2349710   0.4410059  )
       107           H   tau( 107) = (  -0.2760662   0.4141228   1.0998978  )
       108           H   tau( 108) = (   0.6987947   0.1977582   0.8767777  )
       109           H   tau( 109) = (  -0.0640981   0.1462106   0.2318413  )
       110           H   tau( 110) = (   0.8716743   0.3625752   0.4270505  )
       111           H   tau( 111) = (   0.6792505   0.2865186   1.0859424  )
       112           H   tau( 112) = (  -0.2565220   0.0701540   0.8907331  )
       113           H   tau( 113) = (  -0.0882811   0.0700515   0.3418418  )
       114           H   tau( 114) = (   0.8958573   0.2864161   0.3170500  )
       115           H   tau( 115) = (   0.7034335   0.3626777   0.9759418  )
       116           H   tau( 116) = (  -0.2807049   0.1463131   1.0007337  )
       117           C   tau( 117) = (   0.3676358   0.0586590   0.4891678  )
       118           C   tau( 118) = (   0.4399404   0.2750236   0.1697240  )
       119           C   tau( 119) = (   0.2475166   0.3740702   0.8286159  )
       120           C   tau( 120) = (   0.1752120   0.1577056   1.1480596  )
       121           H   tau( 121) = (   0.4262542   0.1734823   0.3992923  )
       122           H   tau( 122) = (   0.3813220   0.3898469   0.2595996  )
       123           H   tau( 123) = (   0.1888982   0.2592469   0.9184914  )
       124           H   tau( 124) = (   0.2338304   0.0428823   1.0581841  )

     number of k points=     4
                       cart. coord. in units 2pi/alat
        k(    1) = (   0.0000000   0.0000000   0.0000000), wk =   0.3333333
        k(    2) = (   0.0000000   0.7703047   0.0000000), wk =   0.6666667
        k(    3) = (  -0.5000000   0.0000000  -0.1460208), wk =   0.3333333
        k(    4) = (  -0.5000000   0.7703047  -0.1460208), wk =   0.6666667

     Dense  grid:  1177157 G-vectors     FFT dimensions: ( 160,  72, 225)

     Estimated max dynamical RAM per process >    1374.68MB

     Estimated total allocated dynamical RAM >   10997.46MB

     Check: negative/imaginary core charge=   -0.000003    0.000000

     Initial potential from superposition of free atoms

     starting charge  471.99828, renormalised to  472.00000
     Starting wfc are  376 randomized atomic wfcs
     Checking if some PAW data can be deallocated... 

     total cpu time spent up to now is       66.3 secs

     per-process dynamical memory:   763.0 Mb

     Self-consistent Calculation

     iteration #  1     ecut=   100.00 Ry     beta=0.50
     Davidson diagonalization with overlap
     ethr =  1.00E-02,  avg # of iterations =  6.2

     total cpu time spent up to now is      276.1 secs

     total energy              =   -2675.83039156 Ry
     Harris-Foulkes estimate   =   -2683.49297742 Ry
     estimated scf accuracy    <      13.61624102 Ry

     iteration #  2     ecut=   100.00 Ry     beta=0.50
     Davidson diagonalization with overlap
     ethr =  2.88E-03,  avg # of iterations =  5.0

     total cpu time spent up to now is      428.1 secs

     total energy              =   -2678.19271492 Ry
     Harris-Foulkes estimate   =   -2680.57585220 Ry
     estimated scf accuracy    <       5.16148665 Ry

     iteration #  3     ecut=   100.00 Ry     beta=0.50
     Davidson diagonalization with overlap
     ethr =  1.09E-03,  avg # of iterations =  3.0

     total cpu time spent up to now is      547.4 secs

     total energy              =   -2679.24352291 Ry
     Harris-Foulkes estimate   =   -2679.49119784 Ry
     estimated scf accuracy    <       0.63895457 Ry

     iteration #  4     ecut=   100.00 Ry     beta=0.50
     Davidson diagonalization with overlap
     ethr =  1.35E-04,  avg # of iterations =  9.5

     total cpu time spent up to now is      707.5 secs

     total energy              =   -2679.35613384 Ry
     Harris-Foulkes estimate   =   -2679.42457837 Ry
     estimated scf accuracy    <       0.16455151 Ry

     iteration #  5     ecut=   100.00 Ry     beta=0.50
     Davidson diagonalization with overlap
     ethr =  3.49E-05,  avg # of iterations =  4.2

     total cpu time spent up to now is      826.7 secs

     total energy              =   -2679.37677202 Ry
     Harris-Foulkes estimate   =   -2679.40876004 Ry
     estimated scf accuracy    <       0.08986445 Ry

     iteration #  6     ecut=   100.00 Ry     beta=0.50
     Davidson diagonalization with overlap
     ethr =  1.90E-05,  avg # of iterations =  2.0

     total cpu time spent up to now is      930.8 secs

     total energy              =   -2679.39344218 Ry
     Harris-Foulkes estimate   =   -2679.39524967 Ry
     estimated scf accuracy    <       0.00535043 Ry

     iteration #  7     ecut=   100.00 Ry     beta=0.50
     Davidson diagonalization with overlap
     ethr =  1.13E-06,  avg # of iterations =  8.8

     total cpu time spent up to now is     1151.7 secs

     total energy              =   -2679.39556338 Ry
     Harris-Foulkes estimate   =   -2679.39605481 Ry
     estimated scf accuracy    <       0.00125894 Ry

     iteration #  8     ecut=   100.00 Ry     beta=0.50
     Davidson diagonalization with overlap
     ethr =  2.67E-07,  avg # of iterations =  2.0

     total cpu time spent up to now is     1256.8 secs

     total energy              =   -2679.39561852 Ry
     Harris-Foulkes estimate   =   -2679.39582834 Ry
     estimated scf accuracy    <       0.00053948 Ry

     iteration #  9     ecut=   100.00 Ry     beta=0.50
     Davidson diagonalization with overlap
     ethr =  1.14E-07,  avg # of iterations =  3.0

     total cpu time spent up to now is     1394.7 secs

     total energy              =   -2679.39577714 Ry
     Harris-Foulkes estimate   =   -2679.39584619 Ry
     estimated scf accuracy    <       0.00026854 Ry

     iteration # 10     ecut=   100.00 Ry     beta=0.50
     Davidson diagonalization with overlap
     ethr =  5.69E-08,  avg # of iterations =  2.0

     total cpu time spent up to now is     1495.8 secs

     total energy              =   -2679.39579872 Ry
     Harris-Foulkes estimate   =   -2679.39581648 Ry
     estimated scf accuracy    <       0.00004359 Ry

     iteration # 11     ecut=   100.00 Ry     beta=0.50
     Davidson diagonalization with overlap
     ethr =  9.23E-09,  avg # of iterations =  3.0

     total cpu time spent up to now is     1626.1 secs

     total energy              =   -2679.39580667 Ry
     Harris-Foulkes estimate   =   -2679.39580866 Ry
     estimated scf accuracy    <       0.00000506 Ry

     iteration # 12     ecut=   100.00 Ry     beta=0.50
     Davidson diagonalization with overlap
     ethr =  1.07E-09,  avg # of iterations =  3.8

     total cpu time spent up to now is     1771.6 secs

     total energy              =   -2679.39580796 Ry
     Harris-Foulkes estimate   =   -2679.39580940 Ry
     estimated scf accuracy    <       0.00000489 Ry

     iteration # 13     ecut=   100.00 Ry     beta=0.50
     Davidson diagonalization with overlap
     ethr =  1.04E-09,  avg # of iterations =  2.0

     total cpu time spent up to now is     1874.1 secs

     total energy              =   -2679.39580864 Ry
     Harris-Foulkes estimate   =   -2679.39580877 Ry
     estimated scf accuracy    <       0.00000042 Ry

     iteration # 14     ecut=   100.00 Ry     beta=0.50
     Davidson diagonalization with overlap
     ethr =  8.90E-11,  avg # of iterations =  3.5

     total cpu time spent up to now is     2009.7 secs

     total energy              =   -2679.39580874 Ry
     Harris-Foulkes estimate   =   -2679.39580878 Ry
     estimated scf accuracy    <       0.00000010 Ry

     iteration # 15     ecut=   100.00 Ry     beta=0.50
     Davidson diagonalization with overlap
     ethr =  2.16E-11,  avg # of iterations =  3.2

     total cpu time spent up to now is     2126.3 secs

     total energy              =   -2679.39580876 Ry
     Harris-Foulkes estimate   =   -2679.39580877 Ry
     estimated scf accuracy    <       0.00000001 Ry

     iteration # 16     ecut=   100.00 Ry     beta=0.50
     Davidson diagonalization with overlap
     ethr =  3.05E-12,  avg # of iterations =  4.0

     total cpu time spent up to now is     2277.1 secs

     End of self-consistent calculation

          k = 0.0000 0.0000 0.0000 (147029 PWs)   bands (ev):

   -25.6937 -25.6937 -25.6887 -25.6887 -25.2199 -25.2198 -25.2148 -25.2148
   -25.1300 -25.1300 -25.1284 -25.1284 -21.3892 -21.3837 -21.3735 -21.3670
   -21.1378 -21.1350 -21.1261 -21.1223 -21.0999 -21.0943 -21.0921 -21.0904
   -21.0562 -21.0538 -21.0497 -21.0490 -20.9565 -20.9563 -20.9532 -20.9527
   -19.0872 -19.0837 -19.0825 -19.0792 -18.8678 -18.8668 -18.8507 -18.8499
   -16.7900 -16.7881 -16.7799 -16.7783 -16.0574 -16.0560 -16.0543 -16.0529
   -12.8319 -12.8315 -12.7851 -12.7619 -12.2503 -12.2000 -12.1620 -12.1570
   -11.6163 -11.6138 -11.5875 -11.5872 -11.5169 -11.5146 -11.5051 -11.5020
   -11.1578 -11.1027 -11.0500 -11.0386  -9.3174  -9.2874  -9.1797  -9.1228
    -8.6155  -8.5571  -8.5116  -8.4738  -8.4389  -8.4308  -8.4023  -8.3859
    -8.2992  -8.2560  -8.2317  -8.2285  -8.1899  -8.1613  -8.1117  -8.0941
    -7.7437  -7.7372  -7.7098  -7.6731  -7.3669  -7.3548  -7.3182  -7.2965
    -7.2528  -7.2358  -7.1902  -7.1424  -7.1192  -7.1056  -7.0564  -7.0442
    -6.9414  -6.9151  -6.8967  -6.8895  -6.8490  -6.8430  -6.7383  -6.7347
    -6.7165  -6.7142  -6.7080  -6.7032  -6.6590  -6.6534  -6.6393  -6.6295
    -6.0281  -6.0016  -5.9910  -5.9710  -5.8886  -5.8673  -5.8169  -5.7641
    -5.6647  -5.5980  -5.4518  -5.4160  -5.3450  -5.3361  -5.3178  -5.2792
    -5.1299  -5.1044  -4.9477  -4.9141  -4.8761  -4.8323  -4.7926  -4.6307
    -4.5355  -4.3818  -4.3322  -4.3309  -3.9107  -3.8662  -3.8324  -3.8206
    -3.7091  -3.7052  -3.6642  -3.6506  -3.1592  -3.1209  -3.0238  -2.9779
    -2.8461  -2.8324  -2.8180  -2.7940  -2.7158  -2.5978  -2.5763  -2.5738
    -2.5670  -2.5094  -2.4536  -2.4135  -2.3011  -2.2871  -2.2112  -2.2075
    -2.1237  -2.1139  -2.0696  -2.0531  -2.0456  -2.0210  -2.0208  -1.9598
    -1.9537  -1.9151  -1.9038  -1.8814  -1.8379  -1.8348  -1.8058  -1.7511
    -1.6987  -1.6697  -1.6178  -1.6121  -1.5599  -1.5211  -1.4943  -1.4565
    -1.3038  -1.2865  -1.2817  -1.2789  -1.2154  -1.2112  -1.2030  -1.1733
    -1.0902  -1.0841  -1.0272  -1.0095  -0.9591  -0.9589  -0.9549  -0.9474
    -0.8641  -0.8230  -0.7416  -0.6881  -0.6394  -0.5985  -0.5295  -0.5028
    -0.3350  -0.3017  -0.2882  -0.2788  -0.1742  -0.1011  -0.0923  -0.0880
     0.2907   0.2920   0.3213   0.3576   2.5429   2.5447   2.5929   2.5929
     2.6370   2.6370   2.6753   2.6767   2.9129   2.9145   2.9166   2.9201
     5.5485   5.5559   5.5620   5.5641   6.1824   6.2015   6.2749   6.2857
     6.5404   6.6052   6.6403   6.6591   6.7027   6.7872   6.9203   6.9218
     6.9866   7.0128   7.2738   7.3604   7.3941   7.6594   7.7765   7.8531
     8.0329   8.1047   8.1260   8.1770   8.1978   8.3370   8.3427   8.4361
     8.4962   8.6022   8.6341

          k = 0.0000 0.7703 0.0000 (147278 PWs)   bands (ev):

   -25.6715 -25.6715 -25.6665 -25.6665 -25.2281 -25.2281 -25.2221 -25.2221
   -25.1480 -25.1480 -25.1460 -25.1460 -21.3836 -21.3778 -21.3756 -21.3694
   -21.1353 -21.1336 -21.1300 -21.1269 -21.0923 -21.0898 -21.0864 -21.0854
   -21.0658 -21.0646 -21.0600 -21.0596 -20.9521 -20.9521 -20.9489 -20.9486
   -19.0855 -19.0832 -19.0826 -19.0804 -18.8634 -18.8625 -18.8549 -18.8541
   -16.7913 -16.7905 -16.7845 -16.7838 -16.0464 -16.0448 -16.0382 -16.0367
   -12.8212 -12.8134 -12.7930 -12.7840 -12.2176 -12.1860 -12.1735 -12.1622
   -11.6306 -11.6296 -11.6009 -11.5986 -11.5377 -11.5369 -11.5188 -11.5187
   -11.1151 -11.0903 -11.0680 -11.0528  -9.2714  -9.2607  -9.2092  -9.1738
    -8.5693  -8.5413  -8.5081  -8.5005  -8.4270  -8.4076  -8.3978  -8.3606
    -8.2474  -8.2289  -8.2148  -8.1997  -8.1669  -8.1323  -8.1264  -8.1016
    -7.7208  -7.7098  -7.6897  -7.6663  -7.3623  -7.3559  -7.3470  -7.3224
    -7.2743  -7.2074  -7.2039  -7.1455  -7.1342  -7.1088  -7.0688  -7.0475
    -7.0380  -7.0267  -7.0199  -6.9959  -6.8336  -6.8265  -6.7943  -6.7843
    -6.7168  -6.7119  -6.6845  -6.6822  -6.6569  -6.6551  -6.6259  -6.6206
    -6.0070  -5.9880  -5.9744  -5.9689  -5.8664  -5.8364  -5.8184  -5.7660
    -5.5890  -5.5531  -5.4746  -5.4605  -5.3750  -5.3683  -5.3468  -5.3164
    -5.0919  -5.0607  -5.0408  -5.0135  -4.8207  -4.8066  -4.7156  -4.5731
    -4.5728  -4.4651  -4.3412  -4.3366  -3.9668  -3.9130  -3.8976  -3.8516
    -3.7010  -3.6932  -3.6430  -3.6316  -3.0436  -3.0165  -3.0091  -2.9687
    -2.8430  -2.8382  -2.8145  -2.7894  -2.7868  -2.6870  -2.5788  -2.5208
    -2.4922  -2.4773  -2.4104  -2.4077  -2.3588  -2.3362  -2.3225  -2.3182
    -2.0694  -2.0519  -2.0391  -2.0291  -1.9717  -1.9462  -1.9460  -1.9374
    -1.8516  -1.8321  -1.8304  -1.7877  -1.7720  -1.7648  -1.7349  -1.7025
    -1.6444  -1.6201  -1.6022  -1.5723  -1.5364  -1.5242  -1.4871  -1.4722
    -1.4443  -1.4303  -1.4140  -1.3790  -1.1848  -1.1819  -1.1579  -1.1510
    -1.0701  -1.0589  -1.0358  -1.0323  -0.9577  -0.9541  -0.9155  -0.9029
    -0.8490  -0.8239  -0.7271  -0.6965  -0.6153  -0.5907  -0.5483  -0.5394
    -0.3424  -0.3013  -0.2881  -0.2702  -0.1488  -0.0924  -0.0837  -0.0523
     0.2825   0.3117   0.3260   0.3334   2.5372   2.5379   2.5881   2.5885
     2.6449   2.6490   2.6585   2.6622   2.8601   2.8601   2.8645   2.8687
     5.4033   5.4101   5.4104   5.4160   6.2521   6.2869   6.2975   6.3653
     6.5553   6.5744   6.5946   6.6358   6.9694   6.9843   7.0422   7.0690
     7.0927   7.3191   7.4865   7.5597   7.7109   7.8764   7.9129   7.9503
     7.9953   8.0692   8.1473   8.1932   8.2297   8.3808   8.4407   8.4493
     8.4884   8.5328   8.5815

          k =-0.5000 0.0000-0.1460 (147088 PWs)   bands (ev):

   -25.6936 -25.6936 -25.6888 -25.6888 -25.2199 -25.2198 -25.2148 -25.2148
   -25.1298 -25.1298 -25.1287 -25.1287 -21.3893 -21.3836 -21.3735 -21.3670
   -21.1367 -21.1346 -21.1256 -21.1224 -21.1000 -21.0988 -21.0920 -21.0874
   -21.0570 -21.0560 -21.0489 -21.0468 -20.9562 -20.9561 -20.9534 -20.9530
   -19.0872 -19.0838 -19.0824 -19.0791 -18.8673 -18.8664 -18.8512 -18.8504
   -16.7897 -16.7879 -16.7801 -16.7785 -16.0631 -16.0603 -16.0503 -16.0470
   -12.8297 -12.8293 -12.7842 -12.7620 -12.2526 -12.2016 -12.1679 -12.1623
   -11.6196 -11.6124 -11.5856 -11.5838 -11.5206 -11.5164 -11.4996 -11.4995
   -11.1364 -11.0735 -11.0694 -11.0620  -9.3085  -9.2777  -9.2049  -9.1402
    -8.5712  -8.5455  -8.5163  -8.4883  -8.4607  -8.4317  -8.4292  -8.3860
    -8.2970  -8.2682  -8.2469  -8.2105  -8.1625  -8.1535  -8.0918  -8.0906
    -7.7465  -7.7465  -7.7053  -7.6710  -7.3816  -7.3491  -7.3448  -7.2569
    -7.2234  -7.2022  -7.1839  -7.1366  -7.1335  -7.1257  -7.0731  -7.0654
    -6.9272  -6.9174  -6.9134  -6.8974  -6.8521  -6.8433  -6.7505  -6.7413
    -6.7302  -6.7134  -6.6939  -6.6925  -6.6863  -6.6779  -6.6238  -6.6210
    -6.0165  -5.9964  -5.9771  -5.9752  -5.8755  -5.8704  -5.7894  -5.7847
    -5.6615  -5.6065  -5.4527  -5.4151  -5.3711  -5.3662  -5.3307  -5.2921
    -5.1098  -5.0812  -4.9339  -4.8670  -4.8605  -4.8243  -4.7978  -4.6223
    -4.5466  -4.3709  -4.3297  -4.3140  -3.9573  -3.9122  -3.8148  -3.8036
    -3.7873  -3.7257  -3.6796  -3.6367  -3.0944  -3.0281  -3.0262  -2.9995
    -2.8337  -2.8271  -2.7803  -2.7345  -2.7038  -2.6956  -2.6947  -2.5332
    -2.5168  -2.5166  -2.5155  -2.4741  -2.3117  -2.2254  -2.2199  -2.2058
    -2.1527  -2.1160  -2.0947  -2.0510  -2.0174  -2.0108  -2.0090  -1.9504
    -1.9285  -1.9214  -1.9024  -1.8785  -1.8161  -1.8011  -1.7924  -1.7614
    -1.7206  -1.6605  -1.6521  -1.6304  -1.5167  -1.5115  -1.4991  -1.4677
    -1.3072  -1.3055  -1.2952  -1.2735  -1.2151  -1.2072  -1.1986  -1.1835
    -1.0914  -1.0782  -1.0291  -1.0155  -0.9930  -0.9872  -0.9206  -0.9163
    -0.8383  -0.8206  -0.7524  -0.6749  -0.6626  -0.5971  -0.5223  -0.5041
    -0.3389  -0.3044  -0.2936  -0.2843  -0.1739  -0.0987  -0.0901  -0.0856
     0.2902   0.2917   0.3228   0.3601   2.5463   2.5488   2.5791   2.5795
     2.6479   2.6496   2.6745   2.6759   2.9055   2.9119   2.9184   2.9273
     5.5444   5.5578   5.5624   5.5631   6.1780   6.2020   6.2645   6.3374
     6.5622   6.5832   6.5995   6.6739   6.7087   6.7674   6.8491   6.8742
     6.9646   7.1354   7.2835   7.3381   7.5077   7.5752   7.8040   7.8854
     8.0369   8.0428   8.1161   8.1949   8.2440   8.2900   8.4014   8.4652
     8.5359   8.5564   8.6019

          k =-0.5000 0.7703-0.1460 (147126 PWs)   bands (ev):

   -25.6714 -25.6714 -25.6667 -25.6666 -25.2281 -25.2281 -25.2221 -25.2221
   -25.1479 -25.1479 -25.1461 -25.1461 -21.3837 -21.3777 -21.3757 -21.3694
   -21.1347 -21.1328 -21.1294 -21.1266 -21.0938 -21.0933 -21.0858 -21.0837
   -21.0668 -21.0661 -21.0590 -21.0577 -20.9517 -20.9517 -20.9493 -20.9491
   -19.0855 -19.0831 -19.0826 -19.0803 -18.8631 -18.8623 -18.8551 -18.8544
   -16.7911 -16.7903 -16.7847 -16.7840 -16.0459 -16.0445 -16.0387 -16.0371
   -12.8199 -12.8128 -12.7933 -12.7845 -12.2165 -12.1862 -12.1743 -12.1651
   -11.6347 -11.6295 -11.5960 -11.5956 -11.5382 -11.5372 -11.5205 -11.5201
   -11.1020 -11.0792 -11.0771 -11.0648  -9.2664  -9.2536  -9.2167  -9.1800
    -8.5703  -8.5312  -8.5067  -8.4969  -8.4238  -8.4195  -8.3836  -8.3797
    -8.2489  -8.2278  -8.2275  -8.2123  -8.1638  -8.1461  -8.1087  -8.0965
    -7.7159  -7.7159  -7.6928  -7.6606  -7.3859  -7.3668  -7.3333  -7.2847
    -7.2305  -7.2030  -7.1878  -7.1618  -7.1400  -7.1328  -7.0994  -7.0673
    -7.0370  -7.0222  -6.9819  -6.9801  -6.8375  -6.8250  -6.7953  -6.7898
    -6.7161  -6.7158  -6.6795  -6.6722  -6.6607  -6.6563  -6.6393  -6.6384
    -6.0022  -5.9927  -5.9813  -5.9781  -5.8661  -5.8264  -5.8011  -5.7850
    -5.5805  -5.5683  -5.4698  -5.4633  -5.3526  -5.3361  -5.3239  -5.2950
    -5.1141  -5.0892  -5.0546  -5.0354  -4.8119  -4.8038  -4.7364  -4.5951
    -4.5893  -4.5030  -4.3540  -4.3373  -3.9235  -3.8763  -3.8646  -3.8065
    -3.6914  -3.6609  -3.6468  -3.6058  -3.0972  -3.0842  -3.0634  -3.0455
    -2.8950  -2.8465  -2.7966  -2.7865  -2.6852  -2.6583  -2.6004  -2.5500
    -2.4458  -2.4260  -2.4058  -2.4050  -2.3480  -2.3250  -2.3217  -2.3056
    -2.0765  -2.0710  -2.0344  -1.9796  -1.9770  -1.9641  -1.9472  -1.9312
    -1.8705  -1.8489  -1.8339  -1.8033  -1.7790  -1.7658  -1.7600  -1.7436
    -1.6365  -1.5848  -1.5791  -1.5595  -1.5359  -1.5244  -1.4774  -1.4573
    -1.4472  -1.4365  -1.4164  -1.3947  -1.1882  -1.1798  -1.1652  -1.1472
    -1.0854  -1.0780  -1.0203  -1.0137  -0.9593  -0.9566  -0.9124  -0.9062
    -0.8327  -0.8228  -0.7381  -0.7011  -0.6102  -0.5926  -0.5513  -0.5312
    -0.3429  -0.3024  -0.2902  -0.2719  -0.1515  -0.0922  -0.0839  -0.0518
     0.2797   0.3129   0.3265   0.3334   2.5331   2.5335   2.5918   2.5926
     2.6421   2.6472   2.6619   2.6644   2.8565   2.8602   2.8687   2.8688
     5.4024   5.4101   5.4112   5.4149   6.2492   6.2909   6.3064   6.3668
     6.5506   6.5753   6.5857   6.6277   6.9808   6.9938   7.0051   7.0650
     7.1755   7.2296   7.4947   7.5538   7.8184   7.8321   7.9217   8.0247
     8.0610   8.0865   8.1278   8.2198   8.2322   8.3232   8.3358   8.4149
     8.4614   8.5175   8.5845

     highest occupied, lowest unoccupied level (ev):     0.3601    2.5331

!    total energy              =   -2679.39580876 Ry
     Harris-Foulkes estimate   =   -2679.39580877 Ry
     estimated scf accuracy    <          4.5E-09 Ry

     total all-electron energy =     -9951.446989 Ry

     The total energy is the sum of the following terms:

     one-electron contribution =   -1651.11599761 Ry
     hartree contribution      =    1009.85400587 Ry
     xc contribution           =    -525.72853008 Ry
     ewald contribution        =    -812.34491613 Ry
     Dispersion Correction     =      -0.51313780 Ry
     one-center paw contrib.   =    -699.54723302 Ry

     convergence has been achieved in  16 iterations

     Forces acting on atoms (cartesian axes, Ry/au):

     atom    1 type  4   force =     0.00440166    0.00030248    0.00197931
     atom    2 type  4   force =    -0.00439980    0.00030437   -0.00198177
     atom    3 type  4   force =    -0.00440166   -0.00030248   -0.00197931
     atom    4 type  4   force =     0.00439980   -0.00030437    0.00198177
     atom    5 type  4   force =     0.00025277   -0.00061721    0.00078858
     atom    6 type  4   force =    -0.00025202   -0.00061809   -0.00078997
     atom    7 type  4   force =    -0.00025277    0.00061721   -0.00078858
     atom    8 type  4   force =     0.00025202    0.00061809    0.00078997
     atom    9 type  4   force =    -0.00210457    0.00180211   -0.00073267
     atom   10 type  4   force =     0.00210441    0.00180038    0.00073414
     atom   11 type  4   force =     0.00210457   -0.00180211    0.00073267
     atom   12 type  4   force =    -0.00210441   -0.00180038   -0.00073414
     atom   13 type  4   force =    -0.00049956   -0.00090555   -0.00020113
     atom   14 type  4   force =     0.00049739   -0.00090770    0.00019909
     atom   15 type  4   force =     0.00049956    0.00090555    0.00020113
     atom   16 type  4   force =    -0.00049739    0.00090770   -0.00019909
     atom   17 type  4   force =     0.00046520    0.00024890    0.00071852
     atom   18 type  4   force =    -0.00046409    0.00025073   -0.00072091
     atom   19 type  4   force =    -0.00046520   -0.00024890   -0.00071852
     atom   20 type  4   force =     0.00046409   -0.00025073    0.00072091
     atom   21 type  4   force =    -0.00107355   -0.00121021    0.00096742
     atom   22 type  4   force =     0.00108088   -0.00121752   -0.00097165
     atom   23 type  4   force =     0.00107355    0.00121021   -0.00096742
     atom   24 type  4   force =    -0.00108088    0.00121752    0.00097165
     atom   25 type  4   force =     0.00026130   -0.00146386    0.00244775
     atom   26 type  4   force =    -0.00026394   -0.00146377   -0.00245370
     atom   27 type  4   force =    -0.00026130    0.00146386   -0.00244775
     atom   28 type  4   force =     0.00026394    0.00146377    0.00245370
     atom   29 type  1   force =    -0.00184407    0.00305307   -0.00109966
     atom   30 type  1   force =     0.00184334    0.00305277    0.00109507
     atom   31 type  1   force =     0.00184407   -0.00305307    0.00109966
     atom   32 type  1   force =    -0.00184334   -0.00305277   -0.00109507
     atom   33 type  2   force =     0.00147644    0.00136624   -0.00487536
     atom   34 type  2   force =    -0.00147526    0.00136636    0.00487891
     atom   35 type  2   force =    -0.00147644   -0.00136624    0.00487536
     atom   36 type  2   force =     0.00147526   -0.00136636   -0.00487891
     atom   37 type  2   force =    -0.00062598   -0.00348738   -0.00222789
     atom   38 type  2   force =     0.00062457   -0.00348759    0.00222884
     atom   39 type  2   force =     0.00062598    0.00348738    0.00222789
     atom   40 type  2   force =    -0.00062457    0.00348759   -0.00222884
     atom   41 type  4   force =    -0.00222874    0.00018219   -0.00136376
     atom   42 type  4   force =     0.00224134    0.00018007    0.00136349
     atom   43 type  4   force =     0.00222874   -0.00018219    0.00136376
     atom   44 type  4   force =    -0.00224134   -0.00018007   -0.00136349
     atom   45 type  4   force =     0.00016106    0.00091357   -0.00074992
     atom   46 type  4   force =    -0.00015916    0.00091274    0.00074796
     atom   47 type  4   force =    -0.00016106   -0.00091357    0.00074992
     atom   48 type  4   force =     0.00015916   -0.00091274   -0.00074796
     atom   49 type  2   force =    -0.00108912   -0.00113456   -0.00058952
     atom   50 type  2   force =     0.00108889   -0.00113429    0.00059012
     atom   51 type  2   force =     0.00108912    0.00113456    0.00058952
     atom   52 type  2   force =    -0.00108889    0.00113429   -0.00059012
     atom   53 type  2   force =     0.00378052    0.00169345    0.00188792
     atom   54 type  2   force =    -0.00378568    0.00169619   -0.00188576
     atom   55 type  2   force =    -0.00378052   -0.00169345   -0.00188792
     atom   56 type  2   force =     0.00378568   -0.00169619    0.00188576
     atom   57 type  4   force =    -0.00114660    0.00231544    0.00176472
     atom   58 type  4   force =     0.00114584    0.00231485   -0.00176468
     atom   59 type  4   force =     0.00114660   -0.00231544   -0.00176472
     atom   60 type  4   force =    -0.00114584   -0.00231485    0.00176468
     atom   61 type  1   force =     0.00335574    0.00653740   -0.00087895
     atom   62 type  1   force =    -0.00335533    0.00653750    0.00087886
     atom   63 type  1   force =    -0.00335574   -0.00653740    0.00087895
     atom   64 type  1   force =     0.00335533   -0.00653750   -0.00087886
     atom   65 type  3   force =    -0.00016827   -0.00398487    0.00091322
     atom   66 type  3   force =     0.00016817   -0.00398492   -0.00091338
     atom   67 type  3   force =     0.00016827    0.00398487   -0.00091322
     atom   68 type  3   force =    -0.00016817    0.00398492    0.00091338
     atom   69 type  3   force =    -0.00081043   -0.00067185    0.00123789
     atom   70 type  3   force =     0.00081039   -0.00067184   -0.00123780
     atom   71 type  3   force =     0.00081043    0.00067185   -0.00123789
     atom   72 type  3   force =    -0.00081039    0.00067184    0.00123780
     atom   73 type  1   force =    -0.00240300   -0.00344812   -0.00534206
     atom   74 type  1   force =     0.00240240   -0.00344790    0.00534067
     atom   75 type  1   force =     0.00240300    0.00344812    0.00534206
     atom   76 type  1   force =    -0.00240240    0.00344790   -0.00534067
     atom   77 type  1   force =    -0.00025539    0.00021373   -0.00034837
     atom   78 type  1   force =     0.00025539    0.00021402    0.00034135
     atom   79 type  1   force =     0.00025539   -0.00021373    0.00034837
     atom   80 type  1   force =    -0.00025539   -0.00021402   -0.00034135
     atom   81 type  3   force =    -0.00014080    0.00005906    0.00077098
     atom   82 type  3   force =     0.00014068    0.00005900   -0.00077081
     atom   83 type  3   force =     0.00014080   -0.00005906   -0.00077098
     atom   84 type  3   force =    -0.00014068   -0.00005900    0.00077081
     atom   85 type  3   force =     0.00059886   -0.00076711    0.00092838
     atom   86 type  3   force =    -0.00059875   -0.00076713   -0.00092839
     atom   87 type  3   force =    -0.00059886    0.00076711   -0.00092838
     atom   88 type  3   force =     0.00059875    0.00076713    0.00092839
     atom   89 type  1   force =     0.00054122   -0.00329432    0.00114657
     atom   90 type  1   force =    -0.00054134   -0.00329437   -0.00114712
     atom   91 type  1   force =    -0.00054122    0.00329432   -0.00114657
     atom   92 type  1   force =     0.00054134    0.00329437    0.00114712
     atom   93 type  3   force =    -0.00076741    0.00354844   -0.00086452
     atom   94 type  3   force =     0.00076736    0.00354841    0.00086477
     atom   95 type  3   force =     0.00076741   -0.00354844    0.00086452
     atom   96 type  3   force =    -0.00076736   -0.00354841   -0.00086477
     atom   97 type  3   force =     0.00059660    0.00037791   -0.00073966
     atom   98 type  3   force =    -0.00059673    0.00037798    0.00073990
     atom   99 type  3   force =    -0.00059660   -0.00037791    0.00073966
     atom  100 type  3   force =     0.00059673   -0.00037798   -0.00073990
     atom  101 type  1   force =    -0.00074351    0.00171774    0.00049783
     atom  102 type  1   force =     0.00074422    0.00171746   -0.00049342
     atom  103 type  1   force =     0.00074351   -0.00171774   -0.00049783
     atom  104 type  1   force =    -0.00074422   -0.00171746    0.00049342
     atom  105 type  3   force =     0.00079902    0.00011299    0.00041107
     atom  106 type  3   force =    -0.00079904    0.00011293   -0.00041141
     atom  107 type  3   force =    -0.00079902   -0.00011299   -0.00041107
     atom  108 type  3   force =     0.00079904   -0.00011293    0.00041141
     atom  109 type  3   force =    -0.00134224   -0.00197837   -0.00058544
     atom  110 type  3   force =     0.00134229   -0.00197806    0.00058561
     atom  111 type  3   force =     0.00134224    0.00197837    0.00058544
     atom  112 type  3   force =    -0.00134229    0.00197806   -0.00058561
     atom  113 type  3   force =     0.00100823    0.00005442   -0.00286719
     atom  114 type  3   force =    -0.00100858    0.00005437    0.00286856
     atom  115 type  3   force =    -0.00100823   -0.00005442    0.00286719
     atom  116 type  3   force =     0.00100858   -0.00005437   -0.00286856
     atom  117 type  1   force =     0.00058205   -0.00092233    0.00172916
     atom  118 type  1   force =    -0.00058178   -0.00092261   -0.00172652
     atom  119 type  1   force =    -0.00058205    0.00092233   -0.00172916
     atom  120 type  1   force =     0.00058178    0.00092261    0.00172652
     atom  121 type  3   force =     0.00082038    0.00004447   -0.00059636
     atom  122 type  3   force =    -0.00082028    0.00004443    0.00059623
     atom  123 type  3   force =    -0.00082038   -0.00004447    0.00059636
     atom  124 type  3   force =     0.00082028   -0.00004443   -0.00059623

     Total force =     0.035934     Total SCF correction =     0.000140


     Computing stress (Cartesian axis) and pressure

          total   stress  (Ry/bohr**3)                   (kbar)     P=   -2.69
  -0.00002077   0.00000000   0.00000180         -3.06      0.00      0.26
   0.00000000  -0.00000761  -0.00000000          0.00     -1.12     -0.00
   0.00000180  -0.00000000  -0.00002650          0.26     -0.00     -3.90


     Writing output data file scf.save
 
     init_run     :     64.10s CPU     65.56s WALL (       1 calls)
     electrons    :   2152.13s CPU   2211.03s WALL (       1 calls)
     forces       :     35.44s CPU     35.74s WALL (       1 calls)
     stress       :    154.07s CPU    154.44s WALL (       1 calls)

     Called by init_run:
     wfcinit      :     49.25s CPU     50.53s WALL (       1 calls)
     potinit      :      5.14s CPU      5.17s WALL (       1 calls)

     Called by electrons:
     c_bands      :   1932.74s CPU   1981.37s WALL (      16 calls)
     sum_band     :    199.08s CPU    207.31s WALL (      16 calls)
     v_of_rho     :      3.16s CPU      3.39s WALL (      17 calls)
     newd         :      8.06s CPU      9.88s WALL (      17 calls)
     PAW_pot      :      8.48s CPU      8.49s WALL (      17 calls)
     mix_rho      :      0.74s CPU      0.80s WALL (      16 calls)

     Called by c_bands:
     init_us_2    :      6.48s CPU      6.55s WALL (     140 calls)
     cegterg      :   1897.64s CPU   1946.20s WALL (      64 calls)

     Called by sum_band:
     sum_band:bec :      0.09s CPU      0.09s WALL (      64 calls)
     addusdens    :      8.21s CPU      9.93s WALL (      16 calls)

     Called by *egterg:
     h_psi        :    953.29s CPU    988.93s WALL (     329 calls)
     s_psi        :    226.94s CPU    226.96s WALL (     329 calls)
     g_psi        :      3.44s CPU      3.44s WALL (     261 calls)
     cdiaghg      :    127.40s CPU    127.42s WALL (     325 calls)

     Called by h_psi:
     h_psi:pot    :    948.53s CPU    984.05s WALL (     329 calls)
     h_psi:calbec :    237.42s CPU    237.82s WALL (     329 calls)
     vloc_psi     :    484.46s CPU    519.54s WALL (     329 calls)
     add_vuspsi   :    226.65s CPU    226.69s WALL (     329 calls)

     General routines
     calbec       :    359.80s CPU    360.36s WALL (     413 calls)
     fft          :      7.17s CPU      7.57s WALL (     245 calls)
     fftw         :    538.66s CPU    579.90s WALL (  116456 calls)
 
     Parallel routines
     fft_scatter  :    190.14s CPU    231.35s WALL (  116701 calls)
 
     PWSCF        : 40m16.64s CPU    41m57.73s WALL

 
   This run was terminated on:   7:25: 3  15Dec2017            

=------------------------------------------------------------------------------=
   JOB DONE.
=------------------------------------------------------------------------------=
