
     Program PWSCF v.6.1 (svn rev. 13369) starts on 14Dec2017 at 19:40:55 

     This program is part of the open-source Quantum ESPRESSO suite
     for quantum simulation of materials; please cite
         "P. Giannozzi et al., J. Phys.:Condens. Matter 21 395502 (2009);
          URL http://www.quantum-espresso.org", 
     in publications or presentations arising from this work. More details at
     http://www.quantum-espresso.org/quote

     Parallel version (MPI), running on     8 processors
     R & G space division:  proc/nbgrp/npool/nimage =       8
     Waiting for input...
     Reading input from standard input

     Current dimensions of program PWSCF are:
     Max number of different atomic species (ntypx) = 10
     Max number of k-points (npk) =  40000
     Max angular momentum in pseudopotentials (lmaxx) =  3
               file C.pbe-n-kjpaw_psl.0.1.UPF: wavefunction(s)  2P renormalized
               file N.pbe-n-kjpaw_psl.0.1.UPF: wavefunction(s)  2P renormalized
               file H.pbe-kjpaw_psl.0.1.UPF: wavefunction(s)  1S renormalized
               file O.pbe-n-kjpaw_psl.0.1.UPF: wavefunction(s)  2P renormalized

     -------------------------------------
     Parameters for Dispersion Correction:
     -------------------------------------
       atom      VdW radius       C_6     

        C          2.744         60.710
        N          2.640         42.670
        H          1.892          4.857
        O          2.536         24.284

     Subspace diagonalization in iterative solution of the eigenvalue problem:
     a serial algorithm will be used

 
     Parallelization info
     --------------------
     sticks:   dense  smooth     PW     G-vecs:    dense   smooth      PW
     Min        1455    1455    379               154309   154309   20531
     Max        1456    1456    380               154312   154312   20534
     Sum       11643   11643   3037              1234483  1234483  164261
 


     bravais-lattice index     =            0
     lattice parameter (alat)  =      15.6658  a.u.
     unit-cell volume          =    9137.4823 (a.u.)^3
     number of atoms/cell      =          152
     number of atomic types    =            4
     number of electrons       =       512.00
     number of Kohn-Sham states=          307
     kinetic-energy cutoff     =     100.0000  Ry
     charge density cutoff     =     400.0000  Ry
     convergence threshold     =      1.0E-08
     mixing beta               =       0.5000
     number of iterations used =            8  plain     mixing
     Exchange-correlation      =  SLA  PW   PBX  PBC ( 1  4  3  4 0 0)

     celldm(1)=  15.665830  celldm(2)=   0.000000  celldm(3)=   0.000000
     celldm(4)=   0.000000  celldm(5)=   0.000000  celldm(6)=   0.000000

     crystal axes: (cart. coord. in units of alat)
               a(1) = (   1.000000   0.000000   0.000000 )  
               a(2) = (   0.000000   1.491074   0.000000 )  
               a(3) = (  -0.445931   0.000000   1.593923 )  

     reciprocal axes: (cart. coord. in units 2 pi/alat)
               b(1) = (  1.000000  0.000000  0.279770 )  
               b(2) = (  0.000000  0.670658  0.000000 )  
               b(3) = (  0.000000  0.000000  0.627383 )  


     PseudoPot. # 1 for  C read from file:
     /scratch/ahofstet/pseudo/C.pbe-n-kjpaw_psl.0.1.UPF
     MD5 check sum: 430fe95172b1e11ef3f8ed03bac87931
     Pseudo is Projector augmented-wave + core cor, Zval =  4.0
     Generated using "atomic" code by A. Dal Corso  v.5.0.99 svn rev. 10869
     Shape of augmentation charge: BESSEL
     Using radial grid of 1073 points,  4 beta functions with: 
                l(1) =   0
                l(2) =   0
                l(3) =   1
                l(4) =   1
     Q(r) pseudized with 0 coefficients 


     PseudoPot. # 2 for  N read from file:
     /scratch/ahofstet/pseudo/N.pbe-n-kjpaw_psl.0.1.UPF
     MD5 check sum: f73187c8b701007e77325f868c9291d7
     Pseudo is Projector augmented-wave + core cor, Zval =  5.0
     Generated using "atomic" code by A. Dal Corso  v.5.0.99 svn rev. 10869
     Shape of augmentation charge: PSQ
     Using radial grid of 1085 points,  4 beta functions with: 
                l(1) =   0
                l(2) =   0
                l(3) =   1
                l(4) =   1
     Q(r) pseudized with 0 coefficients 


     PseudoPot. # 3 for  H read from file:
     /scratch/ahofstet/pseudo/H.pbe-kjpaw_psl.0.1.UPF
     MD5 check sum: 94e484f906d9e9773b2f6e52662335b2
     Pseudo is Projector augmented-wave, Zval =  1.0
     Generated using "atomic" code by A. Dal Corso  v.5.0.99 svn rev. 10869
     Shape of augmentation charge: PSQ
     Using radial grid of  929 points,  2 beta functions with: 
                l(1) =   0
                l(2) =   0
     Q(r) pseudized with 0 coefficients 


     PseudoPot. # 4 for  O read from file:
     /scratch/ahofstet/pseudo/O.pbe-n-kjpaw_psl.0.1.UPF
     MD5 check sum: 3f94a2996a3169367d6eb21d9b593f20
     Pseudo is Projector augmented-wave + core cor, Zval =  6.0
     Generated using "atomic" code by A. Dal Corso  v.5.0.99 svn rev. 10869
     Shape of augmentation charge: BESSEL
     Using radial grid of 1095 points,  4 beta functions with: 
                l(1) =   0
                l(2) =   0
                l(3) =   1
                l(4) =   1
     Q(r) pseudized with 0 coefficients 


     atomic species   valence    mass     pseudopotential
        C              4.00    12.01070      C( 1.00)
        N              5.00    14.00670      N( 1.00)
        H              1.00     1.00794      H( 1.00)
        O              6.00    15.99940      O( 1.00)

      2 Sym. Ops., with inversion, found



   Cartesian axes

     site n.     atom                  positions (alat units)
         1           O   tau(   1) = (   0.2594213   0.2215679   0.8184904  )
         2           O   tau(   2) = (   0.0716821   0.2215694   1.5723932  )
         3           O   tau(   3) = (   0.7594201   0.9671141   0.8184904  )
         4           O   tau(   4) = (  -0.4283171   0.9671073   1.5723954  )
         5           O   tau(   5) = (   0.2946477   1.2695057   0.7754323  )
         6           O   tau(   6) = (   0.4823869   1.2695042   0.0215296  )
         7           O   tau(   7) = (  -0.2053511   0.5239594   0.7754324  )
         8           O   tau(   8) = (   0.9823861   0.5239663   0.0215274  )
         9           O   tau(   9) = (   0.4274184   0.6499392   0.6308280  )
        10           O   tau(  10) = (   0.3496174   0.6499397   0.1661326  )
        11           O   tau(  11) = (  -0.0725867   1.3954730   0.6308301  )
        12           O   tau(  12) = (   0.8496198   1.3954739   0.1661317  )
        13           O   tau(  13) = (   0.1266506   0.8411344   0.9630948  )
        14           O   tau(  14) = (   0.2044516   0.8411339   1.4277901  )
        15           O   tau(  15) = (   0.6266557   0.0956006   0.9630927  )
        16           O   tau(  16) = (  -0.2955508   0.0955996   1.4277911  )
        17           O   tau(  17) = (   0.1245440   0.3810721   0.9833067  )
        18           O   tau(  18) = (   0.2065576   0.3810730   1.4075788  )
        19           O   tau(  19) = (   0.6245451   1.1266094   0.9833069  )
        20           O   tau(  20) = (  -0.2934403   1.1266087   1.4075769  )
        21           O   tau(  21) = (   0.4295250   1.1100015   0.6106160  )
        22           O   tau(  22) = (   0.3475114   1.1100006   0.1863440  )
        23           O   tau(  23) = (  -0.0704761   0.3644641   0.6106159  )
        24           O   tau(  24) = (   0.8475093   0.3644649   0.1863459  )
        25           N   tau(  25) = (  -0.0333594   0.7830231   0.5983825  )
        26           N   tau(  26) = (   0.8104004   0.7830026   0.1985677  )
        27           N   tau(  27) = (   0.4666419   0.0374934   0.5983823  )
        28           N   tau(  28) = (   0.3103977   0.0374811   0.1985703  )
        29           N   tau(  29) = (   0.5874284   0.7080505   0.9955403  )
        30           N   tau(  30) = (  -0.2563314   0.7080710   1.3953550  )
        31           N   tau(  31) = (   0.0874271   1.4535801   0.9955405  )
        32           N   tau(  32) = (   0.2436713   1.4535925   1.3953525  )
        33           H   tau(  33) = (  -0.0882434   0.6895038   0.6589212  )
        34           H   tau(  34) = (   0.8652742   0.6895128   0.1380445  )
        35           H   tau(  35) = (   0.4117550   1.4350398   0.6589231  )
        36           H   tau(  36) = (   0.3652771   1.4350452   0.1380419  )
        37           H   tau(  37) = (   0.6423124   0.8015697   0.9350015  )
        38           H   tau(  38) = (  -0.3112052   0.8015608   1.4558783  )
        39           H   tau(  39) = (   0.1423140   0.0560338   0.9349996  )
        40           H   tau(  40) = (   0.1887919   0.0560284   1.4558809  )
        41           H   tau(  41) = (  -0.0608695   0.8987301   0.6321719  )
        42           H   tau(  42) = (   0.8379032   0.8987363   0.1647887  )
        43           H   tau(  43) = (   0.4391300   0.1531865   0.6321710  )
        44           H   tau(  44) = (   0.3379042   0.1531913   0.1647908  )
        45           H   tau(  45) = (   0.6149385   0.5923435   0.9617508  )
        46           H   tau(  46) = (  -0.2838342   0.5923373   1.4291340  )
        47           H   tau(  47) = (   0.1149390   1.3378871   0.9617518  )
        48           H   tau(  48) = (   0.2161648   1.3378822   1.4291319  )
        49           N   tau(  49) = (   0.2209497   0.3605494   0.8657276  )
        50           N   tau(  50) = (   0.1101559   0.3605451   1.5251541  )
        51           N   tau(  51) = (   0.7209520   1.1060750   0.8657344  )
        52           N   tau(  52) = (  -0.3898482   1.1060845   1.5251511  )
        53           N   tau(  53) = (   0.3331193   1.1305242   0.7281952  )
        54           N   tau(  54) = (   0.4439131   1.1305285   0.0687687  )
        55           N   tau(  55) = (  -0.1668830   0.3849986   0.7281884  )
        56           N   tau(  56) = (   0.9439172   0.3849891   0.0687717  )
        57           N   tau(  57) = (   0.3894578   0.5088647   0.6766668  )
        58           N   tau(  58) = (   0.3875736   0.5088614   0.1202990  )
        59           N   tau(  59) = (  -0.1105302   1.2544017   0.6766606  )
        60           N   tau(  60) = (   0.8875689   1.2544012   0.1202982  )
        61           N   tau(  61) = (   0.1646112   0.9822089   0.9172560  )
        62           N   tau(  62) = (   0.1664954   0.9822122   1.4736238  )
        63           N   tau(  63) = (   0.6645992   0.2366719   0.9172622  )
        64           N   tau(  64) = (  -0.3334999   0.2366723   1.4736246  )
        65           N   tau(  65) = (   0.0968327   0.6077375   0.4271177  )
        66           N   tau(  66) = (   0.6802013   0.6077162   0.3698416  )
        67           N   tau(  67) = (   0.5968339   1.3532621   0.4271186  )
        68           N   tau(  68) = (   0.1802021   1.3532591   0.3698400  )
        69           N   tau(  69) = (   0.4572363   0.8833361   1.1668051  )
        70           N   tau(  70) = (  -0.1261323   0.8833574   1.2240812  )
        71           N   tau(  71) = (  -0.0427649   0.1378115   1.1668042  )
        72           N   tau(  72) = (   0.3738669   0.1378145   1.2240828  )
        73           H   tau(  73) = (   0.0436537   0.5118599   0.4849458  )
        74           H   tau(  74) = (   0.7333792   0.5118646   0.3120184  )
        75           H   tau(  75) = (   0.5436538   1.2573992   0.4849460  )
        76           H   tau(  76) = (   0.2333798   1.2574004   0.3120169  )
        77           H   tau(  77) = (   0.5104153   0.9792137   1.1089770  )
        78           H   tau(  78) = (  -0.1793102   0.9792090   1.2819044  )
        79           H   tau(  79) = (   0.0104152   0.2336743   1.1089767  )
        80           H   tau(  80) = (   0.3206892   0.2336732   1.2819059  )
        81           H   tau(  81) = (   0.1769263   0.5911320   0.3344734  )
        82           H   tau(  82) = (   0.6001105   0.5911337   0.4624863  )
        83           H   tau(  83) = (   0.6769254   1.3366696   0.3344757  )
        84           H   tau(  84) = (   0.1001082   1.3366698   0.4624858  )
        85           H   tau(  85) = (   0.3771427   0.8999415   1.2594493  )
        86           H   tau(  86) = (  -0.0460415   0.8999399   1.1314365  )
        87           H   tau(  87) = (  -0.1228564   0.1544039   1.2594471  )
        88           H   tau(  88) = (   0.4539608   0.1544037   1.1314370  )
        89           O   tau(  89) = (   0.4546770   0.3875036   0.6128918  )
        90           O   tau(  90) = (   0.3223602   0.3875073   0.1840670  )
        91           O   tau(  91) = (  -0.0453266   1.1330475   0.6128915  )
        92           O   tau(  92) = (   0.8223601   1.1330450   0.1840711  )
        93           O   tau(  93) = (   0.0993920   1.1035699   0.9810310  )
        94           O   tau(  94) = (   0.2317088   1.1035663   1.4098558  )
        95           O   tau(  95) = (   0.5993956   0.3580261   0.9810313  )
        96           O   tau(  96) = (  -0.2682911   0.3580286   1.4098517  )
        97           C   tau(  97) = (   0.0651788   0.7561692   0.4758982  )
        98           C   tau(  98) = (   0.7118571   0.7561919   0.3210709  )
        99           C   tau(  99) = (   0.5651731   0.0106392   0.4758965  )
       100           C   tau( 100) = (   0.2118590   0.0106447   0.3210733  )
       101           C   tau( 101) = (   0.4888902   0.7349044   1.1180246  )
       102           C   tau( 102) = (  -0.1577881   0.7348817   1.2728518  )
       103           C   tau( 103) = (  -0.0111041   1.4804343   1.1180263  )
       104           C   tau( 104) = (   0.3422100   1.4804288   1.2728495  )
       105           C   tau( 105) = (   0.2767985   0.5005555   0.7974373  )
       106           C   tau( 106) = (   0.5002374   0.5005601  -0.0004781  )
       107           C   tau( 107) = (   0.7767928   1.2461004   0.7974424  )
       108           C   tau( 108) = (   0.0002407   1.2460951  -0.0004802  )
       109           C   tau( 109) = (   0.2772705   0.9905181   0.7964855  )
       110           C   tau( 110) = (   0.0538316   0.9905135   1.5944009  )
       111           C   tau( 111) = (  -0.2227238   0.2449732   0.7964804  )
       112           C   tau( 112) = (   0.5538283   0.2449785   1.5944029  )
       113           H   tau( 113) = (   0.2305265   0.6130420   0.8453674  )
       114           H   tau( 114) = (   0.1005763   0.6130404   1.5455170  )
       115           H   tau( 115) = (   0.7305259   1.3585771   0.8453688  )
       116           H   tau( 116) = (  -0.3994217   1.3585783   1.5455146  )
       117           H   tau( 117) = (   0.3235425   0.8780316   0.7485554  )
       118           H   tau( 118) = (   0.4534927   0.8780332   0.0484058  )
       119           H   tau( 119) = (  -0.1764569   0.1324965   0.7485540  )
       120           H   tau( 120) = (   0.9534907   0.1324953   0.0484082  )
       121           C   tau( 121) = (   0.1423162   0.8943781   0.3908895  )
       122           C   tau( 122) = (   0.6347187   0.8943746   0.4060712  )
       123           C   tau( 123) = (   0.6423159   0.1488408   0.3908907  )
       124           C   tau( 124) = (   0.1347185   0.1488399   0.4060701  )
       125           C   tau( 125) = (   0.4117528   0.5966955   1.2030333  )
       126           C   tau( 126) = (  -0.0806497   0.5966989   1.1878516  )
       127           C   tau( 127) = (  -0.0882469   1.3422328   1.2030321  )
       128           C   tau( 128) = (   0.4193505   1.3422337   1.1878527  )
       129           H   tau( 129) = (   0.1754747   0.8609305   0.2678882  )
       130           H   tau( 130) = (   0.6015613   0.8609295   0.5290737  )
       131           H   tau( 131) = (   0.6754722   0.1153927   0.2678885  )
       132           H   tau( 132) = (   0.1015616   0.1153918   0.5290724  )
       133           H   tau( 133) = (   0.3785943   0.6301431   1.3260346  )
       134           H   tau( 134) = (  -0.0474923   0.6301441   1.0648491  )
       135           H   tau( 135) = (  -0.1214032   1.3756809   1.3260343  )
       136           H   tau( 136) = (   0.4525074   1.3756817   1.0648503  )
       137           H   tau( 137) = (   0.2528934   0.9299401   0.4551898  )
       138           H   tau( 138) = (   0.5241389   0.9299408   0.3417712  )
       139           H   tau( 139) = (   0.7528946   0.1844033   0.4551902  )
       140           H   tau( 140) = (   0.0241383   0.1844035   0.3417708  )
       141           H   tau( 141) = (   0.3011756   0.5611335   1.1387329  )
       142           H   tau( 142) = (   0.0299301   0.5611328   1.2521516  )
       143           H   tau( 143) = (  -0.1988256   1.3066703   1.1387326  )
       144           H   tau( 144) = (   0.5299307   1.3066701   1.2521520  )
       145           H   tau( 145) = (   0.0607641   0.9981596   0.3884016  )
       146           H   tau( 146) = (   0.7162727   0.9981604   0.4085585  )
       147           H   tau( 147) = (   0.5607638   0.2526226   0.3884025  )
       148           H   tau( 148) = (   0.2162711   0.2526227   0.4085585  )
       149           H   tau( 149) = (   0.4933049   0.4929140   1.2055212  )
       150           H   tau( 150) = (  -0.1622037   0.4929132   1.1853643  )
       151           H   tau( 151) = (  -0.0066948   1.2384510   1.2055203  )
       152           H   tau( 152) = (   0.3377979   1.2384509   1.1853643  )

     number of k points=     8
                       cart. coord. in units 2pi/alat
        k(    1) = (   0.0000000   0.0000000   0.0000000), wk =   0.1666667
        k(    2) = (   0.0000000   0.0000000  -0.3136915), wk =   0.1666667
        k(    3) = (   0.0000000  -0.3353289   0.0000000), wk =   0.1666667
        k(    4) = (   0.0000000  -0.3353289  -0.3136915), wk =   0.1666667
        k(    5) = (   0.3333333   0.0000000   0.0932565), wk =   0.3333333
        k(    6) = (   0.3333333   0.0000000  -0.2204350), wk =   0.3333333
        k(    7) = (   0.3333333  -0.3353289   0.0932565), wk =   0.3333333
        k(    8) = (   0.3333333  -0.3353289  -0.2204350), wk =   0.3333333

     Dense  grid:  1234483 G-vectors     FFT dimensions: ( 100, 150, 180)

     Estimated max dynamical RAM per process >    1923.27MB

     Estimated total allocated dynamical RAM >   15386.12MB

     Check: negative/imaginary core charge=   -0.000002    0.000000

     Initial potential from superposition of free atoms

     starting charge  511.99811, renormalised to  512.00000
     Starting wfc are  416 randomized atomic wfcs
     Checking if some PAW data can be deallocated... 

     total cpu time spent up to now is      140.2 secs

     per-process dynamical memory:  1227.4 Mb

     Self-consistent Calculation

     iteration #  1     ecut=   100.00 Ry     beta=0.50
     Davidson diagonalization with overlap
     ethr =  1.00E-02,  avg # of iterations =  3.9

     total cpu time spent up to now is      598.8 secs

     total energy              =   -2749.05012780 Ry
     Harris-Foulkes estimate   =   -2757.77089119 Ry
     estimated scf accuracy    <      15.93513477 Ry

     iteration #  2     ecut=   100.00 Ry     beta=0.50
     Davidson diagonalization with overlap
     ethr =  3.11E-03,  avg # of iterations =  3.8

     total cpu time spent up to now is      929.2 secs

     total energy              =   -2751.98261063 Ry
     Harris-Foulkes estimate   =   -2753.59575841 Ry
     estimated scf accuracy    <       3.41094294 Ry

     iteration #  3     ecut=   100.00 Ry     beta=0.50
     Davidson diagonalization with overlap
     ethr =  6.66E-04,  avg # of iterations =  4.9

     total cpu time spent up to now is     1259.0 secs

     total energy              =   -2752.74175230 Ry
     Harris-Foulkes estimate   =   -2753.00845322 Ry
     estimated scf accuracy    <       0.69483593 Ry

     iteration #  4     ecut=   100.00 Ry     beta=0.50
     Davidson diagonalization with overlap
     ethr =  1.36E-04,  avg # of iterations =  9.9

     total cpu time spent up to now is     1593.5 secs

     total energy              =   -2752.83424347 Ry
     Harris-Foulkes estimate   =   -2752.87687964 Ry
     estimated scf accuracy    <       0.12220079 Ry

     iteration #  5     ecut=   100.00 Ry     beta=0.50
     Davidson diagonalization with overlap
     ethr =  2.39E-05,  avg # of iterations =  9.1

     total cpu time spent up to now is     1999.7 secs

     total energy              =   -2752.85245944 Ry
     Harris-Foulkes estimate   =   -2752.88048403 Ry
     estimated scf accuracy    <       0.07526304 Ry

     iteration #  6     ecut=   100.00 Ry     beta=0.50
     Davidson diagonalization with overlap
     ethr =  1.47E-05,  avg # of iterations =  2.0

     total cpu time spent up to now is     2249.6 secs

     total energy              =   -2752.86489581 Ry
     Harris-Foulkes estimate   =   -2752.86766882 Ry
     estimated scf accuracy    <       0.00757499 Ry

     iteration #  7     ecut=   100.00 Ry     beta=0.50
     Davidson diagonalization with overlap
     c_bands:  1 eigenvalues not converged
     ethr =  1.48E-06,  avg # of iterations = 10.2

     total cpu time spent up to now is     2642.7 secs

     total energy              =   -2752.86689556 Ry
     Harris-Foulkes estimate   =   -2752.86703965 Ry
     estimated scf accuracy    <       0.00054974 Ry

     iteration #  8     ecut=   100.00 Ry     beta=0.50
     Davidson diagonalization with overlap
     ethr =  1.07E-07,  avg # of iterations =  3.0

     total cpu time spent up to now is     2974.1 secs

     total energy              =   -2752.86701424 Ry
     Harris-Foulkes estimate   =   -2752.86705556 Ry
     estimated scf accuracy    <       0.00013871 Ry

     iteration #  9     ecut=   100.00 Ry     beta=0.50
     Davidson diagonalization with overlap
     ethr =  2.71E-08,  avg # of iterations =  3.0

     total cpu time spent up to now is     3243.9 secs

     total energy              =   -2752.86702788 Ry
     Harris-Foulkes estimate   =   -2752.86705560 Ry
     estimated scf accuracy    <       0.00008284 Ry

     iteration # 10     ecut=   100.00 Ry     beta=0.50
     Davidson diagonalization with overlap
     ethr =  1.62E-08,  avg # of iterations =  2.0

     total cpu time spent up to now is     3489.6 secs

     total energy              =   -2752.86704173 Ry
     Harris-Foulkes estimate   =   -2752.86704427 Ry
     estimated scf accuracy    <       0.00000726 Ry

     iteration # 11     ecut=   100.00 Ry     beta=0.50
     Davidson diagonalization with overlap
     ethr =  1.42E-09,  avg # of iterations =  4.0

     total cpu time spent up to now is     3906.6 secs

     total energy              =   -2752.86704461 Ry
     Harris-Foulkes estimate   =   -2752.86704700 Ry
     estimated scf accuracy    <       0.00000701 Ry

     iteration # 12     ecut=   100.00 Ry     beta=0.50
     Davidson diagonalization with overlap
     ethr =  1.37E-09,  avg # of iterations =  2.0

     total cpu time spent up to now is     4148.4 secs

     total energy              =   -2752.86704538 Ry
     Harris-Foulkes estimate   =   -2752.86704571 Ry
     estimated scf accuracy    <       0.00000098 Ry

     iteration # 13     ecut=   100.00 Ry     beta=0.50
     Davidson diagonalization with overlap
     ethr =  1.91E-10,  avg # of iterations =  4.0

     total cpu time spent up to now is     4479.2 secs

     total energy              =   -2752.86704571 Ry
     Harris-Foulkes estimate   =   -2752.86704574 Ry
     estimated scf accuracy    <       0.00000011 Ry

     iteration # 14     ecut=   100.00 Ry     beta=0.50
     Davidson diagonalization with overlap
     ethr =  2.11E-11,  avg # of iterations =  2.9

     total cpu time spent up to now is     4760.3 secs

     total energy              =   -2752.86704572 Ry
     Harris-Foulkes estimate   =   -2752.86704574 Ry
     estimated scf accuracy    <       0.00000006 Ry

     iteration # 15     ecut=   100.00 Ry     beta=0.50
     Davidson diagonalization with overlap
     ethr =  1.24E-11,  avg # of iterations =  3.0

     total cpu time spent up to now is     5014.2 secs

     total energy              =   -2752.86704573 Ry
     Harris-Foulkes estimate   =   -2752.86704573 Ry
     estimated scf accuracy    <       0.00000001 Ry

     iteration # 16     ecut=   100.00 Ry     beta=0.50
     Davidson diagonalization with overlap
     ethr =  2.01E-12,  avg # of iterations =  3.1

     total cpu time spent up to now is     5302.1 secs

     End of self-consistent calculation

          k = 0.0000 0.0000 0.0000 (154331 PWs)   bands (ev):

   -23.5644 -23.5616 -23.5596 -23.5568 -23.5085 -23.5062 -23.5045 -23.5023
   -23.1578 -23.1575 -23.1549 -23.1547 -23.1513 -23.1507 -23.1478 -23.1472
   -18.8891 -18.8871 -18.8824 -18.8813 -18.8774 -18.8744 -18.8706 -18.8694
   -18.6850 -18.6844 -18.6815 -18.6801 -18.6784 -18.6776 -18.6739 -18.6728
   -17.8602 -17.8572 -17.8508 -17.8503 -17.7101 -17.7073 -17.7058 -17.7031
   -15.3185 -15.3183 -15.3092 -15.3072 -15.2965 -15.2942 -15.2848 -15.2828
   -14.6023 -14.5851 -14.5803 -14.5801 -14.5457 -14.5429 -14.5426 -14.5336
   -11.6824 -11.6788 -11.6668 -11.6333 -11.6158 -11.5990 -11.5304 -11.5204
   -11.4822 -11.4438 -11.4124 -11.3995 -11.3885 -11.3851 -11.3659 -11.3399
    -8.8698  -8.6652  -8.6585  -8.6471  -8.6051  -8.5656  -8.5320  -8.4706
    -7.6512  -7.6452  -7.6441  -7.6371  -7.5123  -7.5121  -7.4804  -7.4333
    -7.2307  -7.1814  -7.1768  -7.0961  -7.0929  -7.0861  -7.0609  -7.0389
    -6.9741  -6.9634  -6.8764  -6.8499  -6.7207  -6.6922  -6.6646  -6.6267
    -6.6161  -6.6082  -6.6066  -6.5897  -6.5719  -6.5715  -6.5419  -6.5146
    -6.4589  -6.4573  -6.3769  -6.3372  -6.2715  -6.2587  -6.1584  -6.1540
    -6.1436  -6.1390  -6.0854  -6.0840  -6.0740  -6.0588  -6.0397  -6.0394
    -5.6104  -5.5457  -5.5179  -5.5034  -5.4646  -5.4624  -5.4602  -5.4577
    -5.4413  -5.4333  -5.4325  -5.4191  -5.4152  -5.4085  -5.3487  -5.3234
    -5.1510  -5.1078  -4.9434  -4.9296  -4.9103  -4.9092  -4.8740  -4.8666
    -4.6709  -4.6318  -4.5491  -4.5293  -4.5255  -4.4825  -4.3845  -4.3237
    -4.2052  -4.1994  -4.0664  -4.0448  -3.7388  -3.7225  -3.7013  -3.6808
    -3.1719  -3.1514  -3.1415  -3.1141  -3.1034  -3.0994  -3.0660  -3.0351
    -2.8001  -2.7857  -2.7273  -2.7141  -2.5782  -2.5734  -2.5165  -2.5041
    -2.2033  -2.1799  -2.1750  -2.1185  -1.7918  -1.7841  -1.7743  -1.7653
    -1.0491  -1.0021  -0.9859  -0.9812  -0.9558  -0.9349  -0.8882  -0.8240
    -0.6328  -0.6142  -0.6105  -0.5756  -0.5671  -0.5599  -0.5214  -0.5089
    -0.5006  -0.4270  -0.4076  -0.3826  -0.3824  -0.3582  -0.3284  -0.2821
    -0.2470  -0.2198  -0.2164  -0.1591  -0.0779  -0.0737  -0.0609  -0.0366
    -0.0111  -0.0089   0.0390   0.0688   0.1393   0.1453   0.1679   0.1714
     0.1825   0.2268   0.2308   0.2430   0.2616   0.2913   0.3467   0.3769
     0.4834   0.5051   0.5260   0.5270   0.5276   0.5283   0.5457   0.5681
     0.6874   0.7109   0.7283   0.8048   0.9962   1.0154   1.0706   1.0768
     3.4745   3.5338   3.5882   3.5989   3.6267   3.6517   3.7082   3.7640
     5.2620   5.6464   5.6586   5.7108   5.7435   5.7645   5.7815   5.8690
     5.8859   6.0050   6.0142   6.0243   6.0590   6.1559   6.1905   6.3130
     7.1181   8.1068   8.2055   8.2328   8.2445   8.3917   8.4643   8.4791
     8.5479   8.5510   8.5717   8.7540   8.7593   8.8220   8.8433   8.9005
     8.9897   9.1662   9.1690   9.2340   9.2580   9.4008   9.4855   9.4906
     9.4966   9.5832   9.5862

          k = 0.0000 0.0000-0.3137 (154314 PWs)   bands (ev):

   -23.5632 -23.5629 -23.5584 -23.5580 -23.5075 -23.5072 -23.5036 -23.5033
   -23.1566 -23.1564 -23.1562 -23.1560 -23.1495 -23.1494 -23.1489 -23.1487
   -18.8862 -18.8856 -18.8844 -18.8843 -18.8743 -18.8738 -18.8718 -18.8716
   -18.6830 -18.6827 -18.6822 -18.6819 -18.6766 -18.6766 -18.6752 -18.6752
   -17.8587 -17.8587 -17.8505 -17.8505 -17.7087 -17.7087 -17.7044 -17.7044
   -15.3185 -15.3184 -15.3084 -15.3083 -15.2953 -15.2951 -15.2838 -15.2837
   -14.5945 -14.5944 -14.5805 -14.5804 -14.5440 -14.5440 -14.5375 -14.5374
   -11.6776 -11.6773 -11.6692 -11.6685 -11.5595 -11.5587 -11.5583 -11.5578
   -11.4551 -11.4549 -11.4316 -11.4314 -11.3758 -11.3755 -11.3469 -11.3465
    -8.7814  -8.7812  -8.6524  -8.6517  -8.5912  -8.5905  -8.4881  -8.4878
    -7.6124  -7.6123  -7.6091  -7.6090  -7.5448  -7.5448  -7.5046  -7.5045
    -7.2022  -7.2021  -7.1497  -7.1496  -7.0784  -7.0782  -7.0396  -7.0395
    -6.9336  -6.9335  -6.8900  -6.8900  -6.6811  -6.6809  -6.6639  -6.6638
    -6.6458  -6.6457  -6.6046  -6.6045  -6.5392  -6.5390  -6.5309  -6.5307
    -6.4168  -6.4167  -6.4112  -6.4112  -6.2137  -6.2134  -6.2073  -6.2070
    -6.0975  -6.0974  -6.0879  -6.0878  -6.0704  -6.0703  -6.0692  -6.0690
    -5.5436  -5.5431  -5.5048  -5.5043  -5.4892  -5.4888  -5.4859  -5.4856
    -5.4488  -5.4488  -5.4375  -5.4373  -5.3684  -5.3682  -5.3655  -5.3652
    -5.0299  -5.0295  -5.0226  -5.0223  -4.8940  -4.8938  -4.8782  -4.8781
    -4.6215  -4.6209  -4.6120  -4.6115  -4.4325  -4.4324  -4.3989  -4.3988
    -4.1213  -4.1210  -4.1165  -4.1162  -3.7124  -3.7124  -3.7102  -3.7102
    -3.1655  -3.1648  -3.1294  -3.1288  -3.0984  -3.0977  -3.0489  -3.0484
    -2.7933  -2.7932  -2.7210  -2.7209  -2.5755  -2.5754  -2.5102  -2.5102
    -2.1924  -2.1923  -2.1472  -2.1472  -1.7884  -1.7884  -1.7688  -1.7688
    -0.9997  -0.9996  -0.9975  -0.9974  -0.9205  -0.9204  -0.9056  -0.9055
    -0.6094  -0.6092  -0.5875  -0.5874  -0.5696  -0.5694  -0.5644  -0.5642
    -0.4496  -0.4495  -0.3818  -0.3816  -0.3569  -0.3566  -0.3207  -0.3206
    -0.1541  -0.1541  -0.1435  -0.1435  -0.1256  -0.1256  -0.1196  -0.1196
     0.0185   0.0187   0.0460   0.0461   0.1630   0.1631   0.1756   0.1756
     0.1957   0.1958   0.1962   0.1962   0.3126   0.3128   0.3480   0.3482
     0.5015   0.5017   0.5142   0.5143   0.5412   0.5413   0.5496   0.5498
     0.6963   0.6965   0.7653   0.7655   1.0320   1.0321   1.0464   1.0465
     3.5340   3.5341   3.5922   3.5923   3.6515   3.6517   3.6958   3.6959
     5.3779   5.3780   5.7333   5.7343   5.7604   5.7615   5.8656   5.8665
     5.9466   5.9468   6.0281   6.0281   6.0619   6.0624   6.2504   6.2505
     7.4927   7.4929   8.2479   8.2480   8.3855   8.3855   8.4213   8.4213
     8.6290   8.6291   8.6545   8.6545   8.6897   8.6897   9.1022   9.1022
     9.1825   9.1825   9.2211   9.2211   9.2559   9.2560   9.2901   9.2902
     9.4920   9.4921   9.6814

          k = 0.0000-0.3353 0.0000 (154294 PWs)   bands (ev):

   -23.5621 -23.5620 -23.5593 -23.5592 -23.5065 -23.5065 -23.5042 -23.5042
   -23.1576 -23.1576 -23.1548 -23.1548 -23.1510 -23.1509 -23.1475 -23.1475
   -18.8858 -18.8852 -18.8791 -18.8789 -18.8785 -18.8783 -18.8734 -18.8729
   -18.6847 -18.6845 -18.6800 -18.6799 -18.6788 -18.6787 -18.6734 -18.6732
   -17.8557 -17.8557 -17.8535 -17.8535 -17.7084 -17.7084 -17.7048 -17.7048
   -15.3150 -15.3149 -15.3117 -15.3116 -15.2913 -15.2911 -15.2881 -15.2879
   -14.5918 -14.5916 -14.5829 -14.5828 -14.5422 -14.5420 -14.5394 -14.5394
   -11.6718 -11.6716 -11.6431 -11.6429 -11.5924 -11.5923 -11.5731 -11.5730
   -11.4454 -11.4447 -11.4304 -11.4298 -11.3599 -11.3596 -11.3593 -11.3586
    -8.7493  -8.7491  -8.6355  -8.6353  -8.5852  -8.5849  -8.5246  -8.5243
    -7.7702  -7.7701  -7.7558  -7.7557  -7.3304  -7.3304  -7.3156  -7.3156
    -7.2099  -7.2099  -7.1610  -7.1610  -7.1175  -7.1174  -7.0405  -7.0404
    -6.9824  -6.9823  -6.9326  -6.9325  -6.6805  -6.6804  -6.6768  -6.6766
    -6.5876  -6.5875  -6.5395  -6.5395  -6.5053  -6.5053  -6.4801  -6.4800
    -6.4420  -6.4419  -6.4215  -6.4213  -6.2958  -6.2957  -6.2837  -6.2836
    -6.0964  -6.0963  -6.0949  -6.0947  -6.0744  -6.0744  -6.0497  -6.0496
    -5.5154  -5.5153  -5.4556  -5.4555  -5.4495  -5.4493  -5.4293  -5.4291
    -5.4143  -5.4142  -5.3913  -5.3911  -5.3718  -5.3716  -5.3374  -5.3374
    -5.2744  -5.2742  -5.2215  -5.2213  -4.9012  -4.9010  -4.8737  -4.8733
    -4.5531  -4.5530  -4.5061  -4.5060  -4.3593  -4.3592  -4.2660  -4.2659
    -4.2306  -4.2304  -4.2168  -4.2166  -3.7365  -3.7364  -3.6806  -3.6805
    -3.1500  -3.1496  -3.1295  -3.1292  -3.0793  -3.0790  -3.0625  -3.0622
    -2.6887  -2.6886  -2.6847  -2.6846  -2.6217  -2.6217  -2.6154  -2.6154
    -2.1877  -2.1877  -2.1479  -2.1479  -1.7822  -1.7822  -1.7744  -1.7744
    -1.0741  -1.0741  -1.0306  -1.0306  -0.8722  -0.8721  -0.8232  -0.8232
    -0.6168  -0.6167  -0.6024  -0.6024  -0.5680  -0.5679  -0.5164  -0.5164
    -0.4467  -0.4466  -0.3989  -0.3988  -0.3509  -0.3507  -0.3326  -0.3324
    -0.2159  -0.2158  -0.1653  -0.1653  -0.0708  -0.0708  -0.0495  -0.0495
     0.0219   0.0220   0.0363   0.0364   0.1267   0.1268   0.1451   0.1451
     0.1829   0.1830   0.2289   0.2290   0.2776   0.2778   0.3707   0.3710
     0.4697   0.4699   0.4879   0.4881   0.5624   0.5627   0.5753   0.5756
     0.6968   0.6970   0.7594   0.7595   1.0112   1.0113   1.0748   1.0748
     3.5016   3.5017   3.6079   3.6080   3.6213   3.6214   3.7392   3.7394
     5.4568   5.4568   5.7058   5.7058   5.7292   5.7292   5.8052   5.8052
     5.9410   5.9410   5.9703   5.9703   6.1979   6.1979   6.2341   6.2341
     7.4548   7.4549   8.3050   8.3051   8.4477   8.4478   8.4816   8.4818
     8.6127   8.6127   8.7535   8.7539   8.7796   8.7797   8.9522   8.9523
     9.0165   9.0166   9.3167   9.3168   9.4321   9.4323   9.4708   9.4709
     9.4880   9.4882   9.5618

          k = 0.0000-0.3353-0.3137 (154304 PWs)   bands (ev):

   -23.5609 -23.5608 -23.5605 -23.5605 -23.5055 -23.5055 -23.5052 -23.5052
   -23.1565 -23.1564 -23.1561 -23.1561 -23.1493 -23.1492 -23.1490 -23.1490
   -18.8832 -18.8822 -18.8821 -18.8819 -18.8766 -18.8757 -18.8755 -18.8753
   -18.6826 -18.6825 -18.6820 -18.6819 -18.6763 -18.6762 -18.6758 -18.6757
   -17.8547 -17.8547 -17.8546 -17.8546 -17.7066 -17.7066 -17.7066 -17.7066
   -15.3135 -15.3134 -15.3132 -15.3132 -15.2897 -15.2897 -15.2894 -15.2894
   -14.5875 -14.5872 -14.5872 -14.5871 -14.5410 -14.5408 -14.5407 -14.5407
   -11.6595 -11.6590 -11.6588 -11.6581 -11.5821 -11.5816 -11.5812 -11.5807
   -11.4381 -11.4376 -11.4375 -11.4366 -11.3598 -11.3594 -11.3593 -11.3585
    -8.7028  -8.7027  -8.7025  -8.7023  -8.5473  -8.5472  -8.5470  -8.5467
    -7.7540  -7.7540  -7.7539  -7.7539  -7.3313  -7.3313  -7.3311  -7.3311
    -7.1968  -7.1967  -7.1967  -7.1966  -7.0720  -7.0720  -7.0719  -7.0719
    -6.9523  -6.9521  -6.9520  -6.9519  -6.6823  -6.6821  -6.6820  -6.6820
    -6.5580  -6.5579  -6.5578  -6.5578  -6.4926  -6.4926  -6.4925  -6.4924
    -6.4360  -6.4358  -6.4357  -6.4357  -6.2816  -6.2814  -6.2814  -6.2813
    -6.1003  -6.1001  -6.1000  -6.0998  -6.0689  -6.0689  -6.0688  -6.0687
    -5.4785  -5.4783  -5.4781  -5.4780  -5.4404  -5.4402  -5.4401  -5.4399
    -5.3978  -5.3977  -5.3975  -5.3975  -5.3648  -5.3646  -5.3644  -5.3643
    -5.2363  -5.2361  -5.2358  -5.2353  -4.9035  -4.9034  -4.9032  -4.9026
    -4.5241  -4.5240  -4.5240  -4.5238  -4.3004  -4.3003  -4.3002  -4.3000
    -4.2356  -4.2353  -4.2353  -4.2352  -3.7073  -3.7073  -3.7072  -3.7072
    -3.1426  -3.1421  -3.1418  -3.1417  -3.0685  -3.0681  -3.0677  -3.0676
    -2.6868  -2.6867  -2.6866  -2.6866  -2.6188  -2.6188  -2.6187  -2.6187
    -2.1686  -2.1685  -2.1685  -2.1685  -1.7781  -1.7781  -1.7781  -1.7780
    -1.0439  -1.0439  -1.0438  -1.0438  -0.8592  -0.8592  -0.8591  -0.8591
    -0.5936  -0.5934  -0.5933  -0.5933  -0.5743  -0.5742  -0.5742  -0.5740
    -0.3919  -0.3919  -0.3917  -0.3917  -0.3593  -0.3591  -0.3590  -0.3590
    -0.1530  -0.1528  -0.1527  -0.1526  -0.1122  -0.1120  -0.1120  -0.1119
     0.0588   0.0590   0.0590   0.0591   0.1353   0.1355   0.1356   0.1357
     0.1859   0.1859   0.1860   0.1861   0.3334   0.3335   0.3335   0.3337
     0.4818   0.4822   0.4822   0.4822   0.5677   0.5680   0.5681   0.5682
     0.7277   0.7279   0.7280   0.7280   1.0410   1.0412   1.0412   1.0412
     3.5606   3.5608   3.5609   3.5609   3.6745   3.6747   3.6747   3.6748
     5.5367   5.5367   5.5368   5.5370   5.8088   5.8091   5.8095   5.8097
     5.9767   5.9768   5.9768   5.9770   6.1898   6.1898   6.1899   6.1899
     7.7600   7.7602   7.7602   7.7603   8.5254   8.5256   8.5256   8.5257
     8.7271   8.7274   8.7274   8.7276   8.9374   8.9377   8.9377   8.9378
     9.1305   9.1306   9.1307   9.1307   9.3602   9.3605   9.3606   9.3608
     9.6014   9.6016   9.6017

          k = 0.3333 0.0000 0.0933 (154378 PWs)   bands (ev):

   -23.5516 -23.5490 -23.5471 -23.5447 -23.5223 -23.5200 -23.5183 -23.5160
   -23.1643 -23.1641 -23.1638 -23.1637 -23.1407 -23.1405 -23.1400 -23.1398
   -18.8898 -18.8888 -18.8856 -18.8848 -18.8726 -18.8714 -18.8686 -18.8679
   -18.6860 -18.6858 -18.6848 -18.6846 -18.6744 -18.6741 -18.6730 -18.6725
   -17.8596 -17.8559 -17.8547 -17.8528 -17.7088 -17.7067 -17.7045 -17.7025
   -15.3171 -15.3157 -15.3130 -15.3102 -15.2921 -15.2914 -15.2869 -15.2857
   -14.5876 -14.5766 -14.5729 -14.5689 -14.5576 -14.5536 -14.5508 -14.5453
   -11.6892 -11.6859 -11.6687 -11.6404 -11.6039 -11.5632 -11.5558 -11.5283
   -11.4647 -11.4427 -11.4311 -11.4219 -11.3735 -11.3652 -11.3532 -11.3527
    -8.8197  -8.7095  -8.6700  -8.6666  -8.5869  -8.5502  -8.5429  -8.4959
    -7.6834  -7.6116  -7.6047  -7.6029  -7.5467  -7.5320  -7.5242  -7.4442
    -7.2114  -7.1948  -7.1703  -7.1403  -7.0739  -7.0659  -7.0531  -7.0233
    -6.9396  -6.9380  -6.8998  -6.8649  -6.6717  -6.6454  -6.6375  -6.6258
    -6.6229  -6.6185  -6.6101  -6.5958  -6.4959  -6.4847  -6.4653  -6.4617
    -6.4263  -6.4180  -6.4096  -6.3609  -6.2632  -6.2509  -6.2373  -6.2283
    -6.2077  -6.2039  -6.1802  -6.1683  -6.1153  -6.0890  -6.0655  -6.0530
    -5.5862  -5.5756  -5.5733  -5.5387  -5.5372  -5.5176  -5.4863  -5.4755
    -5.4662  -5.4469  -5.4426  -5.4254  -5.2765  -5.2675  -5.2654  -5.2385
    -5.0757  -5.0406  -4.9570  -4.9473  -4.9173  -4.9120  -4.8986  -4.8965
    -4.6147  -4.6017  -4.5932  -4.5857  -4.4086  -4.3883  -4.3679  -4.3369
    -4.1763  -4.1519  -4.0912  -4.0893  -3.8085  -3.7984  -3.7973  -3.7936
    -3.1610  -3.1561  -3.1361  -3.1328  -3.1094  -3.1012  -3.0982  -3.0970
    -2.7726  -2.7532  -2.7352  -2.7326  -2.5543  -2.5500  -2.5259  -2.5170
    -2.0710  -2.0681  -2.0365  -2.0233  -1.8739  -1.8538  -1.8431  -1.8359
    -1.0298  -0.9971  -0.9907  -0.9558  -0.9470  -0.9237  -0.8999  -0.8552
    -0.6165  -0.6162  -0.6070  -0.6060  -0.5982  -0.5301  -0.5103  -0.5089
    -0.4741  -0.4653  -0.4089  -0.4009  -0.3655  -0.3473  -0.3436  -0.3015
    -0.1871  -0.1715  -0.1557  -0.1367  -0.1136  -0.1035  -0.0829  -0.0722
    -0.0036   0.0224   0.0265   0.0428   0.1516   0.1540   0.1609   0.1825
     0.1961   0.1988   0.2092   0.2236   0.2938   0.3190   0.3436   0.3542
     0.5072   0.5156   0.5187   0.5244   0.5311   0.5332   0.5439   0.5594
     0.7343   0.7634   0.7666   0.8085   0.9354   0.9421   0.9812   0.9934
     3.5332   3.5639   3.5885   3.6024   3.6611   3.6872   3.7088   3.7410
     5.3399   5.5191   5.5894   5.6522   5.7490   5.7833   5.7995   5.8403
     5.9265   5.9368   6.0418   6.0679   6.1097   6.1428   6.1586   6.2313
     7.6601   7.9188   8.2300   8.3185   8.3385   8.3809   8.4189   8.4499
     8.5424   8.6415   8.7277   8.7441   8.8165   8.9399   8.9482   9.0091
     9.0493   9.0729   9.0915   9.1446   9.2268   9.3012   9.3917   9.4720
     9.4822   9.5300   9.5761

          k = 0.3333 0.0000-0.2204 (154317 PWs)   bands (ev):

   -23.5505 -23.5501 -23.5462 -23.5456 -23.5214 -23.5209 -23.5174 -23.5170
   -23.1647 -23.1646 -23.1631 -23.1629 -23.1413 -23.1410 -23.1397 -23.1394
   -18.8881 -18.8874 -18.8868 -18.8857 -18.8714 -18.8707 -18.8703 -18.8694
   -18.6862 -18.6861 -18.6831 -18.6824 -18.6764 -18.6753 -18.6727 -18.6725
   -17.8582 -17.8573 -17.8542 -17.8533 -17.7077 -17.7056 -17.7047 -17.7044
   -15.3168 -15.3161 -15.3131 -15.3101 -15.2930 -15.2905 -15.2865 -15.2859
   -14.5874 -14.5764 -14.5726 -14.5678 -14.5614 -14.5512 -14.5508 -14.5456
   -11.6885 -11.6740 -11.6671 -11.6518 -11.6065 -11.5832 -11.5428 -11.5210
   -11.4690 -11.4596 -11.4101 -11.4059 -11.3755 -11.3727 -11.3679 -11.3447
    -8.8089  -8.7481  -8.6964  -8.6356  -8.5616  -8.5592  -8.5169  -8.5087
    -7.6903  -7.6615  -7.6102  -7.5675  -7.5601  -7.5246  -7.4661  -7.4573
    -7.2087  -7.1913  -7.1731  -7.1699  -7.0735  -7.0539  -7.0332  -7.0248
    -6.9813  -6.9599  -6.8674  -6.8648  -6.6912  -6.6559  -6.6393  -6.6276
    -6.6255  -6.6149  -6.5750  -6.5710  -6.5027  -6.4914  -6.4725  -6.4665
    -6.4526  -6.4200  -6.3742  -6.3613  -6.2667  -6.2552  -6.2541  -6.2331
    -6.2122  -6.1913  -6.1601  -6.1574  -6.1207  -6.1156  -6.0499  -6.0436
    -5.5993  -5.5866  -5.5670  -5.5448  -5.5312  -5.4958  -5.4793  -5.4704
    -5.4620  -5.4551  -5.4357  -5.4133  -5.2751  -5.2673  -5.2611  -5.2507
    -5.1053  -5.1029  -4.9678  -4.9440  -4.9210  -4.9144  -4.8500  -4.8491
    -4.6208  -4.6165  -4.5862  -4.5423  -4.4627  -4.4151  -4.3337  -4.3128
    -4.2156  -4.1852  -4.0771  -4.0597  -3.8283  -3.7986  -3.7981  -3.7702
    -3.1674  -3.1478  -3.1468  -3.1175  -3.1154  -3.1123  -3.0973  -3.0900
    -2.7662  -2.7592  -2.7376  -2.7294  -2.5534  -2.5498  -2.5245  -2.5176
    -2.0771  -2.0611  -2.0497  -2.0099  -1.8686  -1.8593  -1.8481  -1.8300
    -1.0349  -1.0307  -0.9555  -0.9538  -0.9496  -0.9448  -0.8579  -0.8514
    -0.6268  -0.6123  -0.5944  -0.5879  -0.5846  -0.5577  -0.5475  -0.5169
    -0.4864  -0.4338  -0.4156  -0.3829  -0.3725  -0.3501  -0.3403  -0.3093
    -0.2116  -0.2069  -0.1789  -0.1762  -0.0717  -0.0661  -0.0531  -0.0455
     0.0019   0.0290   0.0356   0.0408   0.1291   0.1299   0.1489   0.1781
     0.1946   0.2053   0.2210   0.2639   0.2857   0.2980   0.3478   0.3587
     0.5008   0.5103   0.5244   0.5260   0.5311   0.5317   0.5414   0.5595
     0.7251   0.7735   0.7793   0.8001   0.9452   0.9516   0.9645   0.9806
     3.5879   3.5958   3.6013   3.6310   3.6328   3.6691   3.6765   3.6937
     5.3690   5.4969   5.5013   5.6708   5.7461   5.7822   5.8078   5.8730
     5.9752   6.0323   6.0440   6.0455   6.0708   6.1052   6.1627   6.2250
     7.5288   8.1689   8.2091   8.2787   8.3292   8.3778   8.3872   8.4147
     8.5099   8.5336   8.7328   8.8034   8.8730   8.8839   8.9859   9.0057
     9.0240   9.0617   9.1594   9.1665   9.2730   9.3280   9.3854   9.4449
     9.4477   9.5239   9.5489

          k = 0.3333-0.3353 0.0933 (154264 PWs)   bands (ev):

   -23.5495 -23.5494 -23.5469 -23.5468 -23.5205 -23.5203 -23.5179 -23.5178
   -23.1644 -23.1642 -23.1637 -23.1635 -23.1406 -23.1406 -23.1399 -23.1399
   -18.8887 -18.8883 -18.8819 -18.8814 -18.8753 -18.8749 -18.8700 -18.8696
   -18.6862 -18.6859 -18.6845 -18.6841 -18.6752 -18.6747 -18.6722 -18.6719
   -17.8572 -17.8572 -17.8544 -17.8543 -17.7079 -17.7079 -17.7035 -17.7035
   -15.3146 -15.3144 -15.3118 -15.3116 -15.2908 -15.2906 -15.2892 -15.2890
   -14.5813 -14.5809 -14.5719 -14.5718 -14.5538 -14.5534 -14.5499 -14.5498
   -11.6773 -11.6768 -11.6402 -11.6395 -11.5938 -11.5937 -11.5740 -11.5738
   -11.4491 -11.4489 -11.4166 -11.4164 -11.3704 -11.3698 -11.3520 -11.3514
    -8.7298  -8.7296  -8.6288  -8.6286  -8.5993  -8.5991  -8.5515  -8.5512
    -7.8024  -7.8023  -7.7131  -7.7130  -7.3531  -7.3530  -7.3174  -7.3172
    -7.2130  -7.2130  -7.1549  -7.1549  -7.1061  -7.1060  -7.0476  -7.0476
    -6.9674  -6.9671  -6.9208  -6.9206  -6.6792  -6.6789  -6.6444  -6.6442
    -6.5208  -6.5206  -6.4986  -6.4984  -6.4773  -6.4772  -6.4650  -6.4649
    -6.4348  -6.4346  -6.4219  -6.4218  -6.3133  -6.3132  -6.2609  -6.2607
    -6.2240  -6.2239  -6.2044  -6.2042  -6.1051  -6.1050  -6.0757  -6.0755
    -5.5696  -5.5694  -5.5166  -5.5164  -5.4439  -5.4437  -5.4323  -5.4320
    -5.4094  -5.4091  -5.3844  -5.3842  -5.3017  -5.3014  -5.2674  -5.2671
    -5.2104  -5.2100  -5.1945  -5.1941  -4.9132  -4.9127  -4.9013  -4.9007
    -4.5072  -4.5070  -4.4626  -4.4625  -4.3053  -4.3052  -4.2803  -4.2799
    -4.2467  -4.2464  -4.2211  -4.2211  -3.8074  -3.8073  -3.7874  -3.7873
    -3.1571  -3.1560  -3.1429  -3.1421  -3.0924  -3.0915  -3.0845  -3.0833
    -2.6700  -2.6697  -2.6637  -2.6634  -2.6265  -2.6262  -2.6192  -2.6190
    -2.0537  -2.0536  -2.0460  -2.0459  -1.8625  -1.8625  -1.8407  -1.8407
    -1.0586  -1.0585  -1.0188  -1.0188  -0.8704  -0.8703  -0.8342  -0.8341
    -0.6211  -0.6210  -0.6112  -0.6111  -0.5634  -0.5632  -0.4998  -0.4997
    -0.4509  -0.4507  -0.4225  -0.4223  -0.3490  -0.3488  -0.3351  -0.3350
    -0.1647  -0.1647  -0.1376  -0.1376  -0.1035  -0.1035  -0.0752  -0.0752
     0.0296   0.0297   0.0481   0.0483   0.1267   0.1269   0.1438   0.1440
     0.1749   0.1750   0.2149   0.2150   0.3089   0.3091   0.3511   0.3513
     0.4814   0.4816   0.4917   0.4919   0.5575   0.5577   0.5749   0.5751
     0.7351   0.7353   0.7989   0.7990   0.9400   0.9402   0.9885   0.9886
     3.5416   3.5418   3.5954   3.5957   3.6741   3.6742   3.7303   3.7305
     5.5083   5.5084   5.6557   5.6564   5.6804   5.6814   5.7841   5.7843
     5.8598   5.8601   6.0420   6.0421   6.1728   6.1729   6.2401   6.2402
     7.9031   7.9032   8.1346   8.1347   8.3558   8.3561   8.5275   8.5276
     8.6464   8.6467   8.8090   8.8091   8.9186   8.9187   9.0029   9.0030
     9.0151   9.0151   9.1895   9.1897   9.2835   9.2835   9.4065   9.4066
     9.4569   9.4570   9.5575

          k = 0.3333-0.3353-0.2204 (154348 PWs)   bands (ev):

   -23.5487 -23.5485 -23.5479 -23.5476 -23.5198 -23.5195 -23.5187 -23.5184
   -23.1647 -23.1646 -23.1630 -23.1629 -23.1412 -23.1411 -23.1395 -23.1395
   -18.8881 -18.8877 -18.8811 -18.8806 -18.8762 -18.8759 -18.8705 -18.8702
   -18.6862 -18.6861 -18.6826 -18.6824 -18.6764 -18.6763 -18.6722 -18.6721
   -17.8570 -17.8570 -17.8546 -17.8545 -17.7065 -17.7065 -17.7049 -17.7049
   -15.3136 -15.3134 -15.3128 -15.3125 -15.2904 -15.2901 -15.2898 -15.2895
   -14.5790 -14.5789 -14.5739 -14.5737 -14.5531 -14.5529 -14.5506 -14.5505
   -11.6788 -11.6784 -11.6362 -11.6356 -11.5971 -11.5969 -11.5725 -11.5723
   -11.4510 -11.4508 -11.4166 -11.4163 -11.3668 -11.3662 -11.3545 -11.3539
    -8.7116  -8.7112  -8.6776  -8.6773  -8.5778  -8.5773  -8.5399  -8.5395
    -7.8047  -7.8047  -7.7191  -7.7191  -7.3431  -7.3430  -7.3069  -7.3067
    -7.2177  -7.2176  -7.1743  -7.1742  -7.0858  -7.0858  -7.0567  -7.0566
    -6.9753  -6.9751  -6.9177  -6.9175  -6.6727  -6.6725  -6.6524  -6.6522
    -6.5236  -6.5235  -6.4951  -6.4951  -6.4804  -6.4802  -6.4604  -6.4603
    -6.4315  -6.4314  -6.4244  -6.4244  -6.3127  -6.3126  -6.2650  -6.2648
    -6.2303  -6.2302  -6.1965  -6.1964  -6.0991  -6.0988  -6.0743  -6.0740
    -5.5690  -5.5688  -5.5164  -5.5163  -5.4467  -5.4463  -5.4214  -5.4210
    -5.4141  -5.4140  -5.3883  -5.3881  -5.3110  -5.3107  -5.2713  -5.2711
    -5.2051  -5.2046  -5.2014  -5.2010  -4.9018  -4.9014  -4.8932  -4.8927
    -4.5189  -4.5188  -4.4369  -4.4368  -4.3587  -4.3586  -4.2808  -4.2806
    -4.2442  -4.2439  -4.1917  -4.1916  -3.8248  -3.8247  -3.7705  -3.7704
    -3.1623  -3.1611  -3.1380  -3.1370  -3.0977  -3.0965  -3.0799  -3.0789
    -2.6701  -2.6698  -2.6631  -2.6629  -2.6279  -2.6277  -2.6172  -2.6170
    -2.0635  -2.0635  -2.0364  -2.0363  -1.8562  -1.8562  -1.8460  -1.8460
    -1.0552  -1.0551  -1.0377  -1.0377  -0.8500  -0.8499  -0.8323  -0.8322
    -0.6187  -0.6185  -0.5944  -0.5944  -0.5751  -0.5750  -0.5229  -0.5227
    -0.4559  -0.4557  -0.4003  -0.4002  -0.3593  -0.3593  -0.3266  -0.3266
    -0.2094  -0.2094  -0.1638  -0.1638  -0.0645  -0.0645  -0.0435  -0.0435
     0.0269   0.0271   0.0562   0.0563   0.1285   0.1287   0.1368   0.1369
     0.1673   0.1675   0.2266   0.2267   0.2868   0.2870   0.3660   0.3662
     0.4786   0.4788   0.4903   0.4905   0.5592   0.5594   0.5765   0.5766
     0.7509   0.7510   0.7845   0.7846   0.9506   0.9507   0.9705   0.9706
     3.5761   3.5762   3.6250   3.6254   3.6518   3.6523   3.6893   3.6895
     5.5301   5.5301   5.6006   5.6009   5.6735   5.6736   5.7904   5.7907
     5.9258   5.9258   6.0134   6.0136   6.1932   6.1933   6.2273   6.2274
     7.7727   7.7728   8.3589   8.3592   8.4527   8.4528   8.4771   8.4771
     8.5259   8.5261   8.7394   8.7398   8.9108   8.9111   9.0061   9.0063
     9.0779   9.0781   9.0887   9.0888   9.3035   9.3036   9.3669   9.3670
     9.5316   9.5317   9.6486

     highest occupied, lowest unoccupied level (ev):     1.0768    3.4745

!    total energy              =   -2752.86704573 Ry
     Harris-Foulkes estimate   =   -2752.86704573 Ry
     estimated scf accuracy    <          1.3E-09 Ry

     total all-electron energy =    -10223.867396 Ry

     The total energy is the sum of the following terms:

     one-electron contribution =   -1324.30453932 Ry
     hartree contribution      =     870.24800688 Ry
     xc contribution           =    -555.19719478 Ry
     ewald contribution        =   -1013.76543530 Ry
     Dispersion Correction     =      -0.70378700 Ry
     one-center paw contrib.   =    -729.14409621 Ry

     convergence has been achieved in  16 iterations

     Forces acting on atoms (cartesian axes, Ry/au):

     atom    1 type  4   force =    -0.00018024   -0.00014925    0.00079032
     atom    2 type  4   force =     0.00017503   -0.00019695   -0.00078156
     atom    3 type  4   force =    -0.00012751   -0.00039129    0.00074353
     atom    4 type  4   force =     0.00016437   -0.00017559   -0.00079203
     atom    5 type  4   force =     0.00018024    0.00014925   -0.00079032
     atom    6 type  4   force =    -0.00017503    0.00019695    0.00078156
     atom    7 type  4   force =     0.00012751    0.00039129   -0.00074353
     atom    8 type  4   force =    -0.00016437    0.00017559    0.00079203
     atom    9 type  4   force =     0.00000376    0.00046733   -0.00031140
     atom   10 type  4   force =    -0.00002930    0.00046205    0.00034047
     atom   11 type  4   force =     0.00009370    0.00058850   -0.00039254
     atom   12 type  4   force =    -0.00005633    0.00053108    0.00035684
     atom   13 type  4   force =    -0.00000376   -0.00046733    0.00031140
     atom   14 type  4   force =     0.00002930   -0.00046205   -0.00034047
     atom   15 type  4   force =    -0.00009370   -0.00058850    0.00039254
     atom   16 type  4   force =     0.00005633   -0.00053108   -0.00035684
     atom   17 type  4   force =    -0.00049516   -0.00016260   -0.00092133
     atom   18 type  4   force =     0.00054663   -0.00018283    0.00085589
     atom   19 type  4   force =    -0.00055286   -0.00021345   -0.00083620
     atom   20 type  4   force =     0.00051700   -0.00017741    0.00087350
     atom   21 type  4   force =     0.00049516    0.00016260    0.00092133
     atom   22 type  4   force =    -0.00054663    0.00018283   -0.00085589
     atom   23 type  4   force =     0.00055286    0.00021345    0.00083620
     atom   24 type  4   force =    -0.00051700    0.00017741   -0.00087350
     atom   25 type  2   force =    -0.00037708   -0.00043970    0.00060613
     atom   26 type  2   force =     0.00008824    0.00031896   -0.00025680
     atom   27 type  2   force =    -0.00040668   -0.00069274    0.00061326
     atom   28 type  2   force =     0.00015951   -0.00025369   -0.00031674
     atom   29 type  2   force =     0.00037708    0.00043970   -0.00060613
     atom   30 type  2   force =    -0.00008824   -0.00031896    0.00025680
     atom   31 type  2   force =     0.00040668    0.00069274   -0.00061326
     atom   32 type  2   force =    -0.00015951    0.00025369    0.00031674
     atom   33 type  3   force =     0.00025228    0.00023914   -0.00028248
     atom   34 type  3   force =    -0.00008990   -0.00009865    0.00010000
     atom   35 type  3   force =     0.00029236    0.00030496   -0.00032352
     atom   36 type  3   force =    -0.00018177    0.00009884    0.00020155
     atom   37 type  3   force =    -0.00025228   -0.00023914    0.00028248
     atom   38 type  3   force =     0.00008990    0.00009865   -0.00010000
     atom   39 type  3   force =    -0.00029236   -0.00030496    0.00032352
     atom   40 type  3   force =     0.00018177   -0.00009884   -0.00020155
     atom   41 type  3   force =     0.00045177   -0.00018125   -0.00013823
     atom   42 type  3   force =    -0.00046144   -0.00043433    0.00015456
     atom   43 type  3   force =     0.00041747   -0.00001570   -0.00009595
     atom   44 type  3   force =    -0.00042745   -0.00018121    0.00011216
     atom   45 type  3   force =    -0.00045177    0.00018125    0.00013823
     atom   46 type  3   force =     0.00046144    0.00043433   -0.00015456
     atom   47 type  3   force =    -0.00041747    0.00001570    0.00009595
     atom   48 type  3   force =     0.00042745    0.00018121   -0.00011216
     atom   49 type  2   force =    -0.00082843   -0.00084953   -0.00021336
     atom   50 type  2   force =     0.00076245   -0.00069750    0.00028831
     atom   51 type  2   force =    -0.00080892   -0.00040949   -0.00029490
     atom   52 type  2   force =     0.00082119   -0.00076373    0.00027725
     atom   53 type  2   force =     0.00082843    0.00084953    0.00021336
     atom   54 type  2   force =    -0.00076245    0.00069750   -0.00028831
     atom   55 type  2   force =     0.00080892    0.00040949    0.00029490
     atom   56 type  2   force =    -0.00082119    0.00076373   -0.00027725
     atom   57 type  2   force =     0.00081004    0.00005232   -0.00014361
     atom   58 type  2   force =    -0.00065967    0.00019422   -0.00001773
     atom   59 type  2   force =     0.00045899    0.00012067    0.00017254
     atom   60 type  2   force =    -0.00057917    0.00009748   -0.00005721
     atom   61 type  2   force =    -0.00081004   -0.00005232    0.00014361
     atom   62 type  2   force =     0.00065967   -0.00019422    0.00001773
     atom   63 type  2   force =    -0.00045899   -0.00012067   -0.00017254
     atom   64 type  2   force =     0.00057917   -0.00009748    0.00005721
     atom   65 type  2   force =    -0.00008026   -0.00103298   -0.00029298
     atom   66 type  2   force =     0.00005497   -0.00018669    0.00030560
     atom   67 type  2   force =    -0.00012174   -0.00062702   -0.00024148
     atom   68 type  2   force =     0.00003106   -0.00048241    0.00035393
     atom   69 type  2   force =     0.00008026    0.00103298    0.00029298
     atom   70 type  2   force =    -0.00005497    0.00018669   -0.00030560
     atom   71 type  2   force =     0.00012174    0.00062702    0.00024148
     atom   72 type  2   force =    -0.00003106    0.00048241   -0.00035393
     atom   73 type  3   force =     0.00032288    0.00019502   -0.00048859
     atom   74 type  3   force =    -0.00022248   -0.00000839    0.00037178
     atom   75 type  3   force =     0.00028251    0.00008941   -0.00043948
     atom   76 type  3   force =    -0.00024411    0.00003656    0.00039623
     atom   77 type  3   force =    -0.00032288   -0.00019502    0.00048859
     atom   78 type  3   force =     0.00022248    0.00000839   -0.00037178
     atom   79 type  3   force =    -0.00028251   -0.00008941    0.00043948
     atom   80 type  3   force =     0.00024411   -0.00003656   -0.00039623
     atom   81 type  3   force =    -0.00034580   -0.00032019    0.00012743
     atom   82 type  3   force =     0.00032225   -0.00038529   -0.00009924
     atom   83 type  3   force =    -0.00032364   -0.00035056    0.00010019
     atom   84 type  3   force =     0.00035069   -0.00036346   -0.00012930
     atom   85 type  3   force =     0.00034580    0.00032019   -0.00012743
     atom   86 type  3   force =    -0.00032225    0.00038529    0.00009924
     atom   87 type  3   force =     0.00032364    0.00035056   -0.00010019
     atom   88 type  3   force =    -0.00035069    0.00036346    0.00012930
     atom   89 type  4   force =    -0.00020235    0.00025528    0.00036884
     atom   90 type  4   force =     0.00012433    0.00013457   -0.00028878
     atom   91 type  4   force =    -0.00008443    0.00009524    0.00027078
     atom   92 type  4   force =     0.00012103    0.00014901   -0.00030353
     atom   93 type  4   force =     0.00020235   -0.00025528   -0.00036884
     atom   94 type  4   force =    -0.00012433   -0.00013457    0.00028878
     atom   95 type  4   force =     0.00008443   -0.00009524   -0.00027078
     atom   96 type  4   force =    -0.00012103   -0.00014901    0.00030353
     atom   97 type  1   force =    -0.00010373    0.00048541    0.00019110
     atom   98 type  1   force =     0.00020805   -0.00038363   -0.00035093
     atom   99 type  1   force =    -0.00002084    0.00021024    0.00014128
     atom  100 type  1   force =     0.00020261    0.00002237   -0.00039847
     atom  101 type  1   force =     0.00010373   -0.00048541   -0.00019110
     atom  102 type  1   force =    -0.00020805    0.00038363    0.00035093
     atom  103 type  1   force =     0.00002084   -0.00021024   -0.00014128
     atom  104 type  1   force =    -0.00020261   -0.00002237    0.00039847
     atom  105 type  1   force =     0.00000855   -0.00014736    0.00013669
     atom  106 type  1   force =    -0.00007240   -0.00030880   -0.00007006
     atom  107 type  1   force =     0.00017586   -0.00042874   -0.00000260
     atom  108 type  1   force =    -0.00013185   -0.00023752   -0.00003390
     atom  109 type  1   force =    -0.00000855    0.00014736   -0.00013669
     atom  110 type  1   force =     0.00007240    0.00030880    0.00007006
     atom  111 type  1   force =    -0.00017586    0.00042874    0.00000260
     atom  112 type  1   force =     0.00013185    0.00023752    0.00003390
     atom  113 type  3   force =     0.00007420    0.00020576    0.00017809
     atom  114 type  3   force =    -0.00004986    0.00027053   -0.00020112
     atom  115 type  3   force =     0.00003473    0.00030681    0.00022122
     atom  116 type  3   force =    -0.00006055    0.00024865   -0.00019274
     atom  117 type  3   force =    -0.00007420   -0.00020576   -0.00017809
     atom  118 type  3   force =     0.00004986   -0.00027053    0.00020112
     atom  119 type  3   force =    -0.00003473   -0.00030681   -0.00022122
     atom  120 type  3   force =     0.00006055   -0.00024865    0.00019274
     atom  121 type  1   force =     0.00057265   -0.00025646    0.00059781
     atom  122 type  1   force =    -0.00058568   -0.00008462   -0.00055457
     atom  123 type  1   force =     0.00057813   -0.00023616    0.00056935
     atom  124 type  1   force =    -0.00059360   -0.00017868   -0.00054241
     atom  125 type  1   force =    -0.00057265    0.00025646   -0.00059781
     atom  126 type  1   force =     0.00058568    0.00008462    0.00055457
     atom  127 type  1   force =    -0.00057813    0.00023616   -0.00056935
     atom  128 type  1   force =     0.00059360    0.00017868    0.00054241
     atom  129 type  3   force =     0.00021925   -0.00006847   -0.00024271
     atom  130 type  3   force =    -0.00021917   -0.00007366    0.00023698
     atom  131 type  3   force =     0.00022047   -0.00006609   -0.00023862
     atom  132 type  3   force =    -0.00022255   -0.00006208    0.00023814
     atom  133 type  3   force =    -0.00021925    0.00006847    0.00024271
     atom  134 type  3   force =     0.00021917    0.00007366   -0.00023698
     atom  135 type  3   force =    -0.00022047    0.00006609    0.00023862
     atom  136 type  3   force =     0.00022255    0.00006208   -0.00023814
     atom  137 type  3   force =    -0.00057856   -0.00011397    0.00006606
     atom  138 type  3   force =     0.00059951   -0.00012326   -0.00005605
     atom  139 type  3   force =    -0.00058849   -0.00012013    0.00006443
     atom  140 type  3   force =     0.00059812   -0.00012497   -0.00006041
     atom  141 type  3   force =     0.00057856    0.00011397   -0.00006606
     atom  142 type  3   force =    -0.00059951    0.00012326    0.00005605
     atom  143 type  3   force =     0.00058849    0.00012013   -0.00006443
     atom  144 type  3   force =    -0.00059812    0.00012497    0.00006041
     atom  145 type  3   force =     0.00004477    0.00009478    0.00018770
     atom  146 type  3   force =    -0.00008047    0.00007497   -0.00018229
     atom  147 type  3   force =     0.00005025    0.00010023    0.00018565
     atom  148 type  3   force =    -0.00005743    0.00009357   -0.00018534
     atom  149 type  3   force =    -0.00004477   -0.00009478   -0.00018770
     atom  150 type  3   force =     0.00008047   -0.00007497    0.00018229
     atom  151 type  3   force =    -0.00005025   -0.00010023   -0.00018565
     atom  152 type  3   force =     0.00005743   -0.00009357    0.00018534

     Total force =     0.007801     Total SCF correction =     0.000060


     Computing stress (Cartesian axis) and pressure

          total   stress  (Ry/bohr**3)                   (kbar)     P=    0.20
  -0.00000990  -0.00000023  -0.00001531         -1.46     -0.03     -2.25
  -0.00000023   0.00001624   0.00000028         -0.03      2.39      0.04
  -0.00001531   0.00000028  -0.00000228         -2.25      0.04     -0.33


     Writing output data file scf.save
 
     init_run     :    135.53s CPU    139.54s WALL (       1 calls)
     electrons    :   4991.15s CPU   5162.10s WALL (       1 calls)
     forces       :     69.98s CPU     70.40s WALL (       1 calls)
     stress       :    352.71s CPU    353.43s WALL (       1 calls)

     Called by init_run:
     wfcinit      :    119.77s CPU    123.58s WALL (       1 calls)
     potinit      :      5.46s CPU      5.49s WALL (       1 calls)

     Called by electrons:
     c_bands      :   4526.87s CPU   4672.01s WALL (      16 calls)
     sum_band     :    441.38s CPU    464.69s WALL (      16 calls)
     v_of_rho     :      3.11s CPU      3.44s WALL (      17 calls)
     newd         :      9.16s CPU     11.32s WALL (      17 calls)
     PAW_pot      :      9.83s CPU      9.84s WALL (      17 calls)
     mix_rho      :      0.78s CPU      0.82s WALL (      16 calls)

     Called by c_bands:
     init_us_2    :     15.76s CPU     15.83s WALL (     280 calls)
     cegterg      :   4456.06s CPU   4601.09s WALL (     128 calls)

     Called by sum_band:
     sum_band:bec :      0.22s CPU      0.22s WALL (     128 calls)
     addusdens    :      9.12s CPU     11.17s WALL (      16 calls)

     Called by *egterg:
     h_psi        :   2198.99s CPU   2315.50s WALL (     702 calls)
     s_psi        :    592.10s CPU    592.25s WALL (     702 calls)
     g_psi        :      7.92s CPU      7.93s WALL (     566 calls)
     cdiaghg      :    309.92s CPU    310.00s WALL (     694 calls)

     Called by h_psi:
     h_psi:pot    :   2187.49s CPU   2303.80s WALL (     702 calls)
     h_psi:calbec :    588.14s CPU    589.05s WALL (     702 calls)
     vloc_psi     :   1006.62s CPU   1121.89s WALL (     702 calls)
     add_vuspsi   :    592.72s CPU    592.85s WALL (     702 calls)

     General routines
     calbec       :    883.62s CPU    884.97s WALL (     870 calls)
     fft          :      4.36s CPU      4.93s WALL (     245 calls)
     fftw         :   1094.49s CPU   1230.29s WALL (  250688 calls)
 
     Parallel routines
     fft_scatter  :    254.37s CPU    389.02s WALL (  250933 calls)
 
     PWSCF        :     1h32m CPU        1h37m WALL

 
   This run was terminated on:  21:18:49  14Dec2017            

=------------------------------------------------------------------------------=
   JOB DONE.
=------------------------------------------------------------------------------=
