
     Program PWSCF v.6.1 (svn rev. 13369) starts on  3Nov2017 at 21:36:25 

     This program is part of the open-source Quantum ESPRESSO suite
     for quantum simulation of materials; please cite
         "P. Giannozzi et al., J. Phys.:Condens. Matter 21 395502 (2009);
          URL http://www.quantum-espresso.org", 
     in publications or presentations arising from this work. More details at
     http://www.quantum-espresso.org/quote

     Parallel version (MPI), running on     8 processors
     R & G space division:  proc/nbgrp/npool/nimage =       8
     Waiting for input...
     Reading input from standard input

     Current dimensions of program PWSCF are:
     Max number of different atomic species (ntypx) = 10
     Max number of k-points (npk) =  40000
     Max angular momentum in pseudopotentials (lmaxx) =  3
               file C.pbe-n-kjpaw_psl.0.1.UPF: wavefunction(s)  2P renormalized
               file N.pbe-n-kjpaw_psl.0.1.UPF: wavefunction(s)  2P renormalized
               file H.pbe-kjpaw_psl.0.1.UPF: wavefunction(s)  1S renormalized
               file O.pbe-n-kjpaw_psl.0.1.UPF: wavefunction(s)  2P renormalized

     -------------------------------------
     Parameters for Dispersion Correction:
     -------------------------------------
       atom      VdW radius       C_6     

        C          2.744         60.710
        N          2.640         42.670
        H          1.892          4.857
        O          2.536         24.284

     Subspace diagonalization in iterative solution of the eigenvalue problem:
     a serial algorithm will be used

 
     Parallelization info
     --------------------
     sticks:   dense  smooth     PW     G-vecs:    dense   smooth      PW
     Min        1061    1061    280                54121    54121    7364
     Max        1062    1062    282                54123    54123    7365
     Sum        8491    8491   2247               432975   432975   58913
 


     bravais-lattice index     =            0
     lattice parameter (alat)  =      24.0751  a.u.
     unit-cell volume          =    3205.3237 (a.u.)^3
     number of atoms/cell      =           52
     number of atomic types    =            4
     number of electrons       =       152.00
     number of Kohn-Sham states=           91
     kinetic-energy cutoff     =     100.0000  Ry
     charge density cutoff     =     400.0000  Ry
     convergence threshold     =      1.0E-08
     mixing beta               =       0.5000
     number of iterations used =            8  plain     mixing
     Exchange-correlation      =  SLA  PW   PBX  PBC ( 1  4  3  4 0 0)

     celldm(1)=  24.075111  celldm(2)=   0.000000  celldm(3)=   0.000000
     celldm(4)=   0.000000  celldm(5)=   0.000000  celldm(6)=   0.000000

     crystal axes: (cart. coord. in units of alat)
               a(1) = (   1.000000   0.000000   0.000000 )  
               a(2) = (   0.000000   0.459262   0.000000 )  
               a(3) = (   0.000000   0.000000   0.500157 )  

     reciprocal axes: (cart. coord. in units 2 pi/alat)
               b(1) = (  1.000000  0.000000  0.000000 )  
               b(2) = (  0.000000  2.177406  0.000000 )  
               b(3) = (  0.000000  0.000000  1.999372 )  


     PseudoPot. # 1 for  C read from file:
     /scratch/ahofstet/pseudo/C.pbe-n-kjpaw_psl.0.1.UPF
     MD5 check sum: 430fe95172b1e11ef3f8ed03bac87931
     Pseudo is Projector augmented-wave + core cor, Zval =  4.0
     Generated using "atomic" code by A. Dal Corso  v.5.0.99 svn rev. 10869
     Shape of augmentation charge: BESSEL
     Using radial grid of 1073 points,  4 beta functions with: 
                l(1) =   0
                l(2) =   0
                l(3) =   1
                l(4) =   1
     Q(r) pseudized with 0 coefficients 


     PseudoPot. # 2 for  N read from file:
     /scratch/ahofstet/pseudo/N.pbe-n-kjpaw_psl.0.1.UPF
     MD5 check sum: f73187c8b701007e77325f868c9291d7
     Pseudo is Projector augmented-wave + core cor, Zval =  5.0
     Generated using "atomic" code by A. Dal Corso  v.5.0.99 svn rev. 10869
     Shape of augmentation charge: PSQ
     Using radial grid of 1085 points,  4 beta functions with: 
                l(1) =   0
                l(2) =   0
                l(3) =   1
                l(4) =   1
     Q(r) pseudized with 0 coefficients 


     PseudoPot. # 3 for  H read from file:
     /scratch/ahofstet/pseudo/H.pbe-kjpaw_psl.0.1.UPF
     MD5 check sum: 94e484f906d9e9773b2f6e52662335b2
     Pseudo is Projector augmented-wave, Zval =  1.0
     Generated using "atomic" code by A. Dal Corso  v.5.0.99 svn rev. 10869
     Shape of augmentation charge: PSQ
     Using radial grid of  929 points,  2 beta functions with: 
                l(1) =   0
                l(2) =   0
     Q(r) pseudized with 0 coefficients 


     PseudoPot. # 4 for  O read from file:
     /scratch/ahofstet/pseudo/O.pbe-n-kjpaw_psl.0.1.UPF
     MD5 check sum: 3f94a2996a3169367d6eb21d9b593f20
     Pseudo is Projector augmented-wave + core cor, Zval =  6.0
     Generated using "atomic" code by A. Dal Corso  v.5.0.99 svn rev. 10869
     Shape of augmentation charge: BESSEL
     Using radial grid of 1095 points,  4 beta functions with: 
                l(1) =   0
                l(2) =   0
                l(3) =   1
                l(4) =   1
     Q(r) pseudized with 0 coefficients 


     atomic species   valence    mass     pseudopotential
        C              4.00    12.01070      C( 1.00)
        N              5.00    14.00670      N( 1.00)
        H              1.00     1.00794      H( 1.00)
        O              6.00    15.99940      O( 1.00)

      4 Sym. Ops. (no inversion) found ( 3 have fractional translation)



   Cartesian axes

     site n.     atom                  positions (alat units)
         1           O   tau(   1) = (   0.0666186   0.3911524   0.4353203  )
         2           O   tau(   2) = (   0.9333814   0.0681098   0.1852418  )
         3           O   tau(   3) = (   0.4333814   0.1615213   0.1852418  )
         4           O   tau(   4) = (   0.5666186   0.2977409   0.4353203  )
         5           N   tau(   5) = (   0.0407208   0.0268074   0.4344440  )
         6           N   tau(   6) = (   0.9592792   0.4324548   0.1843656  )
         7           N   tau(   7) = (   0.4592792   0.2564385   0.1843656  )
         8           N   tau(   8) = (   0.5407208   0.2028237   0.4344440  )
         9           N   tau(   9) = (   0.9399898   0.0444280   0.4327598  )
        10           N   tau(  10) = (   0.0600102   0.4148342   0.1826813  )
        11           N   tau(  11) = (   0.5600102   0.2740591   0.1826813  )
        12           N   tau(  12) = (   0.4399898   0.1852031   0.4327598  )
        13           C   tau(  13) = (   0.8974882   0.1504459   0.4322168  )
        14           C   tau(  14) = (   0.1025118   0.3088163   0.1821383  )
        15           C   tau(  15) = (   0.6025118   0.3800770   0.1821383  )
        16           C   tau(  16) = (   0.3974882   0.0791852   0.4322168  )
        17           C   tau(  17) = (   0.7822638   0.1289998   0.4324134  )
        18           C   tau(  18) = (   0.2177362   0.3302624   0.1823349  )
        19           C   tau(  19) = (   0.7177362   0.3586309   0.1823349  )
        20           C   tau(  20) = (   0.2822638   0.1006313   0.4324134  )
        21           C   tau(  21) = (   0.7615304   0.0259126   0.4323503  )
        22           C   tau(  22) = (   0.2384696   0.4333495   0.1822718  )
        23           C   tau(  23) = (   0.7384696   0.2555437   0.1822718  )
        24           C   tau(  24) = (   0.2615304   0.2037184   0.4323503  )
        25           C   tau(  25) = (   0.8599234   0.4210041   0.4326379  )
        26           C   tau(  26) = (   0.1400766   0.0382581   0.1825594  )
        27           C   tau(  27) = (   0.6400766   0.1913730   0.1825594  )
        28           C   tau(  28) = (   0.3599234   0.2678892   0.4326379  )
        29           H   tau(  29) = (   0.9247075   0.1954983   0.5013361  )
        30           H   tau(  30) = (   0.0752925   0.2637639   0.2512576  )
        31           H   tau(  31) = (   0.5752925   0.4251293   0.2512576  )
        32           H   tau(  32) = (   0.4247075   0.0341328   0.5013361  )
        33           H   tau(  33) = (   0.9236500   0.1945906   0.3620553  )
        34           H   tau(  34) = (   0.0763500   0.2646716   0.1119768  )
        35           H   tau(  35) = (   0.5763500   0.4242217   0.1119768  )
        36           H   tau(  36) = (   0.4236500   0.0350405   0.3620553  )
        37           H   tau(  37) = (   0.7245853   0.1919878   0.4322490  )
        38           H   tau(  38) = (   0.2754147   0.2672743   0.1821705  )
        39           H   tau(  39) = (   0.7754147   0.4216189   0.1821705  )
        40           H   tau(  40) = (   0.2245853   0.0376432   0.4322490  )
        41           H   tau(  41) = (   0.6840086  -0.0100475   0.4317269  )
        42           H   tau(  42) = (   0.3159914   0.4693097   0.1816484  )
        43           H   tau(  43) = (   0.8159914   0.2195835   0.1816484  )
        44           H   tau(  44) = (   0.1840086   0.2396786   0.4317269  )
        45           H   tau(  45) = (   0.8700126   0.3704225   0.3628955  )
        46           H   tau(  46) = (   0.1299874   0.0888397   0.1128171  )
        47           H   tau(  47) = (   0.6299874   0.1407914   0.1128171  )
        48           H   tau(  48) = (   0.3700126   0.3184707   0.3628955  )
        49           H   tau(  49) = (   0.8702130   0.3704612   0.5024099  )
        50           H   tau(  50) = (   0.1297870   0.0888009   0.2523314  )
        51           H   tau(  51) = (   0.6297870   0.1408302   0.2523314  )
        52           H   tau(  52) = (   0.3702130   0.3184320   0.5024099  )

     number of k points=     8
                       cart. coord. in units 2pi/alat
        k(    1) = (   0.0000000   0.0000000   0.0000000), wk =   0.1111111
        k(    2) = (   0.0000000   0.0000000   0.6664574), wk =   0.2222222
        k(    3) = (   0.0000000   0.7258019   0.0000000), wk =   0.2222222
        k(    4) = (   0.0000000   0.7258019   0.6664574), wk =   0.4444444
        k(    5) = (  -0.5000000   0.0000000   0.0000000), wk =   0.1111111
        k(    6) = (  -0.5000000   0.0000000   0.6664574), wk =   0.2222222
        k(    7) = (  -0.5000000   0.7258019   0.0000000), wk =   0.2222222
        k(    8) = (  -0.5000000   0.7258019   0.6664574), wk =   0.4444444

     Dense  grid:   432975 G-vectors     FFT dimensions: ( 160,  72,  80)

     Estimated max dynamical RAM per process >     224.28MB

     Estimated total allocated dynamical RAM >    1794.26MB

     Check: negative/imaginary core charge=   -0.000002    0.000000

     Initial potential from superposition of free atoms

     starting charge  151.99904, renormalised to  152.00000
     Starting wfc are  136 randomized atomic wfcs
     Checking if some PAW data can be deallocated... 

     total cpu time spent up to now is       10.7 secs

     per-process dynamical memory:   221.6 Mb

     Self-consistent Calculation

     iteration #  1     ecut=   100.00 Ry     beta=0.50
     Davidson diagonalization with overlap
     ethr =  1.00E-02,  avg # of iterations =  3.2

     total cpu time spent up to now is       32.5 secs

     total energy              =    -714.43939022 Ry
     Harris-Foulkes estimate   =    -716.85070179 Ry
     estimated scf accuracy    <       4.76391963 Ry

     iteration #  2     ecut=   100.00 Ry     beta=0.50
     Davidson diagonalization with overlap
     ethr =  3.13E-03,  avg # of iterations =  2.4

     total cpu time spent up to now is       45.1 secs

     total energy              =    -714.57997115 Ry
     Harris-Foulkes estimate   =    -714.98990488 Ry
     estimated scf accuracy    <       0.80584007 Ry

     iteration #  3     ecut=   100.00 Ry     beta=0.50
     Davidson diagonalization with overlap
     ethr =  5.30E-04,  avg # of iterations =  5.6

     total cpu time spent up to now is       69.8 secs

     total energy              =    -715.11186144 Ry
     Harris-Foulkes estimate   =    -715.49648183 Ry
     estimated scf accuracy    <       1.11677330 Ry

     iteration #  4     ecut=   100.00 Ry     beta=0.50
     Davidson diagonalization with overlap
     ethr =  5.30E-04,  avg # of iterations =  2.0

     total cpu time spent up to now is       82.1 secs

     total energy              =    -715.08880322 Ry
     Harris-Foulkes estimate   =    -715.20448432 Ry
     estimated scf accuracy    <       0.26151002 Ry

     iteration #  5     ecut=   100.00 Ry     beta=0.50
     Davidson diagonalization with overlap
     ethr =  1.72E-04,  avg # of iterations =  5.1

     total cpu time spent up to now is      102.4 secs

     total energy              =    -715.20530929 Ry
     Harris-Foulkes estimate   =    -715.21226517 Ry
     estimated scf accuracy    <       0.03341694 Ry

     iteration #  6     ecut=   100.00 Ry     beta=0.50
     Davidson diagonalization with overlap
     c_bands:  1 eigenvalues not converged
     ethr =  2.20E-05,  avg # of iterations =  5.0

     total cpu time spent up to now is      116.0 secs

     total energy              =    -715.19889771 Ry
     Harris-Foulkes estimate   =    -715.20750179 Ry
     estimated scf accuracy    <       0.01358284 Ry

     iteration #  7     ecut=   100.00 Ry     beta=0.50
     Davidson diagonalization with overlap
     ethr =  8.94E-06,  avg # of iterations =  9.4

     total cpu time spent up to now is      139.3 secs

     total energy              =    -715.20427588 Ry
     Harris-Foulkes estimate   =    -715.20541887 Ry
     estimated scf accuracy    <       0.00351252 Ry

     iteration #  8     ecut=   100.00 Ry     beta=0.50
     Davidson diagonalization with overlap
     ethr =  2.31E-06,  avg # of iterations =  2.0

     total cpu time spent up to now is      151.4 secs

     total energy              =    -715.20330463 Ry
     Harris-Foulkes estimate   =    -715.20436943 Ry
     estimated scf accuracy    <       0.00158116 Ry

     iteration #  9     ecut=   100.00 Ry     beta=0.50
     Davidson diagonalization with overlap
     ethr =  1.04E-06,  avg # of iterations =  4.2

     total cpu time spent up to now is      173.0 secs

     total energy              =    -715.20427245 Ry
     Harris-Foulkes estimate   =    -715.20468869 Ry
     estimated scf accuracy    <       0.00118058 Ry

     iteration # 10     ecut=   100.00 Ry     beta=0.50
     Davidson diagonalization with overlap
     ethr =  7.77E-07,  avg # of iterations =  1.1

     total cpu time spent up to now is      184.7 secs

     total energy              =    -715.20409911 Ry
     Harris-Foulkes estimate   =    -715.20430494 Ry
     estimated scf accuracy    <       0.00047352 Ry

     iteration # 11     ecut=   100.00 Ry     beta=0.50
     Davidson diagonalization with overlap
     ethr =  3.12E-07,  avg # of iterations =  3.2

     total cpu time spent up to now is      203.2 secs

     total energy              =    -715.20431719 Ry
     Harris-Foulkes estimate   =    -715.20431792 Ry
     estimated scf accuracy    <       0.00002372 Ry

     iteration # 12     ecut=   100.00 Ry     beta=0.50
     Davidson diagonalization with overlap
     ethr =  1.56E-08,  avg # of iterations =  2.0

     total cpu time spent up to now is      215.4 secs

     total energy              =    -715.20430552 Ry
     Harris-Foulkes estimate   =    -715.20431824 Ry
     estimated scf accuracy    <       0.00002164 Ry

     iteration # 13     ecut=   100.00 Ry     beta=0.50
     Davidson diagonalization with overlap
     ethr =  1.42E-08,  avg # of iterations =  3.1

     total cpu time spent up to now is      232.5 secs

     total energy              =    -715.20431166 Ry
     Harris-Foulkes estimate   =    -715.20431179 Ry
     estimated scf accuracy    <       0.00000104 Ry

     iteration # 14     ecut=   100.00 Ry     beta=0.50
     Davidson diagonalization with overlap
     ethr =  6.82E-10,  avg # of iterations =  3.5

     total cpu time spent up to now is      246.2 secs

     total energy              =    -715.20431129 Ry
     Harris-Foulkes estimate   =    -715.20431178 Ry
     estimated scf accuracy    <       0.00000083 Ry

     iteration # 15     ecut=   100.00 Ry     beta=0.50
     Davidson diagonalization with overlap
     ethr =  5.48E-10,  avg # of iterations =  3.8

     total cpu time spent up to now is      263.7 secs

     total energy              =    -715.20431155 Ry
     Harris-Foulkes estimate   =    -715.20431157 Ry
     estimated scf accuracy    <       0.00000008 Ry

     iteration # 16     ecut=   100.00 Ry     beta=0.50
     Davidson diagonalization with overlap
     ethr =  5.51E-11,  avg # of iterations =  3.8

     total cpu time spent up to now is      277.4 secs

     total energy              =    -715.20431153 Ry
     Harris-Foulkes estimate   =    -715.20431156 Ry
     estimated scf accuracy    <       0.00000007 Ry

     iteration # 17     ecut=   100.00 Ry     beta=0.50
     Davidson diagonalization with overlap
     ethr =  4.39E-11,  avg # of iterations =  3.1

     total cpu time spent up to now is      292.3 secs

     total energy              =    -715.20431154 Ry
     Harris-Foulkes estimate   =    -715.20431155 Ry
     estimated scf accuracy    <       0.00000001 Ry

     iteration # 18     ecut=   100.00 Ry     beta=0.50
     Davidson diagonalization with overlap
     ethr =  8.71E-12,  avg # of iterations =  4.1

     total cpu time spent up to now is      312.8 secs

     End of self-consistent calculation

          k = 0.0000 0.0000 0.0000 ( 54041 PWs)   bands (ev):

   -22.2753 -22.2739 -22.1557 -22.1547 -18.1612 -18.1438 -18.0454 -18.0422
   -14.3734 -14.3155 -14.2608 -14.2587 -12.2358 -12.2118 -12.1555 -12.1503
   -10.7530 -10.7526 -10.7458 -10.7201  -8.1817  -8.1657  -8.0862  -8.0635
    -7.8032  -7.7323  -7.6757  -7.5742  -6.7592  -6.6680  -6.4412  -6.4318
    -6.4289  -6.4250  -5.8019  -5.6444  -5.0156  -4.9020  -4.8934  -4.8452
    -4.4578  -4.4157  -4.2525  -4.2479  -4.0844  -3.9578  -3.9347  -3.9318
    -3.7410  -3.6291  -3.5922  -3.4884  -3.4130  -3.4009  -3.3057  -3.3032
    -2.8236  -2.7630  -2.6756  -2.6065  -2.2738  -2.2399  -1.9959  -1.8873
    -0.6826  -0.4276  -0.3461   0.0368   0.0898   0.1946   0.4012   0.4510
     1.0409   1.0516   1.1235   1.1786   3.9542   4.0906   4.2755   4.3303
     5.0385   5.0401   6.3015   6.4303   6.4461   6.8382   7.0203   7.3993
     7.7799   7.9873   8.2575

          k = 0.0000 0.0000 0.6665 ( 54166 PWs)   bands (ev):

   -22.2457 -22.2444 -22.1859 -22.1848 -18.1332 -18.1192 -18.0753 -18.0684
   -14.3449 -14.3010 -14.2875 -14.2736 -12.2124 -12.1968 -12.1695 -12.1686
   -10.7547 -10.7547 -10.7419 -10.7289  -8.1601  -8.1409  -8.1126  -8.0894
    -7.7814  -7.7187  -7.7041  -7.6241  -6.6046  -6.4892  -6.4612  -6.4441
    -6.4152  -6.3246  -5.9961  -5.8921  -4.9677  -4.9081  -4.9004  -4.8765
    -4.4597  -4.4390  -4.3022  -4.2911  -3.9914  -3.9596  -3.9278  -3.8675
    -3.6634  -3.6472  -3.6039  -3.5728  -3.3718  -3.3523  -3.3174  -3.3009
    -2.8030  -2.7673  -2.6503  -2.6231  -2.2421  -2.2244  -1.9664  -1.9131
    -0.5064  -0.4526  -0.3873  -0.1475   0.1147   0.1599   0.2635   0.2907
     1.1299   1.1325   1.1817   1.1848   4.0215   4.0806   4.1659   4.2153
     5.2651   5.3180   5.8810   6.0059   6.8620   7.2763   7.2852   7.6128
     7.8847   7.9285   8.2143

          k = 0.0000 0.7258 0.0000 ( 54113 PWs)   bands (ev):

   -22.2738 -22.2732 -22.1547 -22.1542 -18.1567 -18.1480 -18.0419 -18.0403
   -14.3318 -14.2818 -14.2738 -14.2513 -12.3656 -12.3241 -12.3049 -12.2686
   -10.7708 -10.7518 -10.6827 -10.6769  -7.9004  -7.8888  -7.8215  -7.8126
    -7.7514  -7.6793  -7.6396  -7.5182  -6.6521  -6.6108  -6.6004  -6.5605
    -6.2259  -6.2127  -5.7158  -5.6362  -5.1349  -5.0884  -4.9653  -4.8429
    -4.6887  -4.5456  -4.2608  -4.2242  -4.1953  -4.1456  -4.0234  -3.9756
    -3.9237  -3.8041  -3.5617  -3.5138  -3.3680  -3.2852  -3.2846  -3.2700
    -3.2141  -3.1492  -2.7502  -2.7478  -2.4862  -2.4829  -1.7995  -1.7567
    -0.5527  -0.3606  -0.3252  -0.0936   0.3288   0.4775   0.5348   0.6801
     1.0783   1.0958   1.1718   1.2060   4.0697   4.0996   4.2147   4.2466
     5.2150   5.3860   5.8633   6.0251   6.6791   6.7897   7.3963   7.6999
     7.7060   7.8464   8.0838

          k = 0.0000 0.7258 0.6665 ( 54123 PWs)   bands (ev):

   -22.2444 -22.2438 -22.1848 -22.1843 -18.1290 -18.1220 -18.0715 -18.0681
   -14.3125 -14.2801 -14.2772 -14.2652 -12.3403 -12.3205 -12.3078 -12.2884
   -10.7738 -10.7641 -10.6816 -10.6787  -7.8775  -7.8628  -7.8390  -7.8076
    -7.7646  -7.7132  -7.6293  -7.5657  -6.6299  -6.6220  -6.4062  -6.3770
    -6.2334  -6.1928  -5.9028  -5.8501  -5.0934  -5.0672  -4.9397  -4.8612
    -4.7338  -4.6570  -4.2845  -4.2788  -4.0617  -4.0329  -3.9947  -3.9345
    -3.9012  -3.8015  -3.7035  -3.6610  -3.2815  -3.2653  -3.2428  -3.2417
    -3.1815  -3.1555  -2.7555  -2.7467  -2.4569  -2.4568  -1.7897  -1.7701
    -0.4380  -0.3732  -0.3675  -0.2120   0.3677   0.4227   0.4493   0.5360
     1.1510   1.1552   1.2162   1.2183   4.0440   4.1107   4.1443   4.1631
     5.2907   5.3706   5.6088   5.6864   7.0876   7.2678   7.5882   7.8020
     8.0830   8.2133   8.3732

          k =-0.5000 0.0000 0.0000 ( 54120 PWs)   bands (ev):

   -22.2746 -22.2746 -22.1552 -22.1552 -18.1526 -18.1526 -18.0436 -18.0436
   -14.3473 -14.3473 -14.2569 -14.2569 -12.2224 -12.2224 -12.1541 -12.1541
   -10.7509 -10.7509 -10.7363 -10.7363  -8.1721  -8.1721  -8.0781  -8.0781
    -7.7586  -7.7586  -7.6068  -7.6068  -6.7168  -6.7168  -6.4935  -6.4935
    -6.4521  -6.4521  -5.7203  -5.7203  -4.8289  -4.8289  -4.7464  -4.7464
    -4.4844  -4.4844  -4.4100  -4.4100  -4.0551  -4.0551  -3.9053  -3.9053
    -3.6777  -3.6777  -3.5414  -3.5414  -3.3972  -3.3972  -3.3168  -3.3168
    -2.8156  -2.8156  -2.6739  -2.6739  -2.0976  -2.0976  -2.0278  -2.0278
    -0.6047  -0.6047  -0.1128  -0.1128   0.1343   0.1343   0.4417   0.4417
     1.0438   1.0438   1.1493   1.1493   4.0193   4.0193   4.3055   4.3055
     5.0365   5.0365   6.3740   6.3740   6.5772   6.5772   7.2992   7.2992
     7.8252   7.8252   8.3722

          k =-0.5000 0.0000 0.6665 ( 54192 PWs)   bands (ev):

   -22.2451 -22.2451 -22.1854 -22.1854 -18.1263 -18.1263 -18.0718 -18.0718
   -14.3244 -14.3244 -14.2792 -14.2792 -12.2037 -12.2037 -12.1695 -12.1695
   -10.7496 -10.7496 -10.7422 -10.7422  -8.1502  -8.1502  -8.1034  -8.1034
    -7.7293  -7.7293  -7.6530  -7.6530  -6.5868  -6.5868  -6.5266  -6.5266
    -6.3508  -6.3508  -5.9289  -5.9289  -4.7918  -4.7918  -4.7696  -4.7696
    -4.5010  -4.5010  -4.4628  -4.4628  -3.9985  -3.9985  -3.8958  -3.8958
    -3.6481  -3.6481  -3.5893  -3.5893  -3.3516  -3.3516  -3.3184  -3.3184
    -2.7671  -2.7671  -2.6995  -2.6995  -2.0706  -2.0706  -2.0368  -2.0368
    -0.5007  -0.5007  -0.2522  -0.2522   0.1350   0.1350   0.2835   0.2835
     1.1297   1.1297   1.1822   1.1822   4.0498   4.0498   4.1909   4.1909
     5.2918   5.2918   5.9494   5.9494   6.9737   6.9737   7.5686   7.5686
     7.8378   7.8378   8.2117

          k =-0.5000 0.7258 0.0000 ( 54154 PWs)   bands (ev):

   -22.2735 -22.2735 -22.1545 -22.1545 -18.1524 -18.1524 -18.0411 -18.0411
   -14.3119 -14.3119 -14.2576 -14.2576 -12.3508 -12.3508 -12.2809 -12.2809
   -10.7298 -10.7298 -10.7121 -10.7121  -7.8791  -7.8791  -7.8332  -7.8332
    -7.6946  -7.6946  -7.6036  -7.6036  -6.6277  -6.6277  -6.4450  -6.4450
    -6.4000  -6.4000  -5.6754  -5.6754  -5.0295  -5.0295  -4.9299  -4.9299
    -4.4648  -4.4648  -4.3942  -4.3942  -4.1833  -4.1833  -3.9841  -3.9841
    -3.8832  -3.8832  -3.5286  -3.5286  -3.3304  -3.3304  -3.2898  -3.2898
    -3.1030  -3.1030  -3.0139  -3.0139  -2.0513  -2.0513  -2.0115  -2.0115
    -0.4954  -0.4954  -0.1707  -0.1707   0.3796   0.3796   0.6308   0.6308
     1.0859   1.0859   1.1872   1.1872   4.0850   4.0850   4.2300   4.2300
     5.2905   5.2905   5.9557   5.9557   6.7251   6.7251   7.5413   7.5414
     7.8525   7.8525   8.1840

          k =-0.5000 0.7258 0.6665 ( 54094 PWs)   bands (ev):

   -22.2441 -22.2441 -22.1846 -22.1846 -18.1255 -18.1255 -18.0698 -18.0698
   -14.2974 -14.2973 -14.2703 -14.2701 -12.3322 -12.3317 -12.2970 -12.2967
   -10.7298 -10.7291 -10.7206 -10.7202  -7.8578  -7.8560  -7.8336  -7.8319
    -7.6977  -7.6970  -7.6485  -7.6483  -6.4948  -6.4912  -6.4636  -6.4620
    -6.3148  -6.3105  -5.8806  -5.8783  -4.9795  -4.9779  -4.9458  -4.9452
    -4.5066  -4.5016  -4.4862  -4.4783  -4.0363  -4.0315  -3.9799  -3.9795
    -3.8519  -3.8473  -3.6885  -3.6860  -3.2715  -3.2689  -3.2623  -3.2622
    -3.0596  -3.0587  -3.0222  -3.0196  -2.0387  -2.0363  -2.0170  -2.0165
    -0.4283  -0.4259  -0.2705  -0.2675   0.3838   0.3839   0.5039   0.5043
     1.1566   1.1587   1.2087   1.2123   4.0833   4.0843   4.1458   4.1478
     5.3244   5.3316   5.6456   5.6544   7.1682   7.1724   7.7229   7.7312
     8.1147   8.1249   8.3421

     highest occupied, lowest unoccupied level (ev):     1.2183    3.9542

!    total energy              =    -715.20431154 Ry
     Harris-Foulkes estimate   =    -715.20431155 Ry
     estimated scf accuracy    <          4.7E-09 Ry

     total all-electron energy =     -2725.207809 Ry

     The total energy is the sum of the following terms:

     one-electron contribution =    -383.39541751 Ry
     hartree contribution      =     248.94742462 Ry
     xc contribution           =    -155.90407539 Ry
     ewald contribution        =    -213.83749324 Ry
     Dispersion Correction     =      -0.23332715 Ry
     one-center paw contrib.   =    -210.78142288 Ry

     convergence has been achieved in  18 iterations

     Forces acting on atoms (cartesian axes, Ry/au):

     atom    1 type  4   force =    -0.00000051   -0.00482883   -0.00051041
     atom    2 type  4   force =     0.00000051    0.00482883   -0.00051041
     atom    3 type  4   force =     0.00000051   -0.00482883   -0.00051041
     atom    4 type  4   force =    -0.00000051    0.00482883   -0.00051041
     atom    5 type  2   force =    -0.00226489    0.00836772   -0.00046522
     atom    6 type  2   force =     0.00226489   -0.00836772   -0.00046522
     atom    7 type  2   force =     0.00226489    0.00836772   -0.00046522
     atom    8 type  2   force =    -0.00226489   -0.00836772   -0.00046522
     atom    9 type  2   force =     0.01352935   -0.01394070    0.00044873
     atom   10 type  2   force =    -0.01352935    0.01394070    0.00044873
     atom   11 type  2   force =    -0.01352935   -0.01394070    0.00044873
     atom   12 type  2   force =     0.01352935    0.01394070    0.00044873
     atom   13 type  1   force =     0.00426996    0.01726471   -0.00054817
     atom   14 type  1   force =    -0.00426996   -0.01726471   -0.00054817
     atom   15 type  1   force =    -0.00426996    0.01726471   -0.00054817
     atom   16 type  1   force =     0.00426996   -0.01726471   -0.00054817
     atom   17 type  1   force =    -0.00834791   -0.00074254    0.00034304
     atom   18 type  1   force =     0.00834791    0.00074254    0.00034304
     atom   19 type  1   force =     0.00834791   -0.00074254    0.00034304
     atom   20 type  1   force =    -0.00834791    0.00074254    0.00034304
     atom   21 type  1   force =    -0.00427154    0.00544034    0.00012230
     atom   22 type  1   force =     0.00427154   -0.00544034    0.00012230
     atom   23 type  1   force =     0.00427154    0.00544034    0.00012230
     atom   24 type  1   force =    -0.00427154   -0.00544034    0.00012230
     atom   25 type  1   force =    -0.00159643   -0.00445035   -0.00021219
     atom   26 type  1   force =     0.00159643    0.00445035   -0.00021219
     atom   27 type  1   force =     0.00159643   -0.00445035   -0.00021219
     atom   28 type  1   force =    -0.00159643    0.00445035   -0.00021219
     atom   29 type  3   force =    -0.00204705   -0.00574515   -0.00109217
     atom   30 type  3   force =     0.00204705    0.00574515   -0.00109217
     atom   31 type  3   force =     0.00204705   -0.00574515   -0.00109217
     atom   32 type  3   force =    -0.00204705    0.00574515   -0.00109217
     atom   33 type  3   force =    -0.00106840   -0.00623347    0.00162250
     atom   34 type  3   force =     0.00106840    0.00623347    0.00162250
     atom   35 type  3   force =     0.00106840   -0.00623347    0.00162250
     atom   36 type  3   force =    -0.00106840    0.00623347    0.00162250
     atom   37 type  3   force =     0.00210915   -0.00097895   -0.00007814
     atom   38 type  3   force =    -0.00210915    0.00097895   -0.00007814
     atom   39 type  3   force =    -0.00210915   -0.00097895   -0.00007814
     atom   40 type  3   force =     0.00210915    0.00097895   -0.00007814
     atom   41 type  3   force =     0.00165112   -0.00008318    0.00059073
     atom   42 type  3   force =    -0.00165112    0.00008318    0.00059073
     atom   43 type  3   force =    -0.00165112   -0.00008318    0.00059073
     atom   44 type  3   force =     0.00165112    0.00008318    0.00059073
     atom   45 type  3   force =    -0.00141210    0.00238191    0.00013210
     atom   46 type  3   force =     0.00141210   -0.00238191    0.00013210
     atom   47 type  3   force =     0.00141210    0.00238191    0.00013210
     atom   48 type  3   force =    -0.00141210   -0.00238191    0.00013210
     atom   49 type  3   force =    -0.00232187    0.00264258   -0.00035309
     atom   50 type  3   force =     0.00232187   -0.00264258   -0.00035309
     atom   51 type  3   force =     0.00232187    0.00264258   -0.00035309
     atom   52 type  3   force =    -0.00232187   -0.00264258   -0.00035309

     Total force =     0.064605     Total SCF correction =     0.000091


     Computing stress (Cartesian axis) and pressure

          total   stress  (Ry/bohr**3)                   (kbar)     P=   -0.98
   0.00007968   0.00000000   0.00000000         11.72      0.00      0.00
   0.00000000  -0.00004609   0.00000000          0.00     -6.78      0.00
   0.00000000   0.00000000  -0.00005366          0.00      0.00     -7.89


     Writing output data file scf.save
 
     init_run     :      9.79s CPU     10.09s WALL (       1 calls)
     electrons    :    289.36s CPU    302.26s WALL (       1 calls)
     forces       :      4.77s CPU      4.83s WALL (       1 calls)
     stress       :     17.30s CPU     17.32s WALL (       1 calls)

     Called by init_run:
     wfcinit      :      6.31s CPU      6.53s WALL (       1 calls)
     potinit      :      1.24s CPU      1.27s WALL (       1 calls)

     Called by electrons:
     c_bands      :    248.96s CPU    259.76s WALL (      18 calls)
     sum_band     :     32.21s CPU     34.03s WALL (      18 calls)
     v_of_rho     :      1.14s CPU      1.25s WALL (      19 calls)
     newd         :      2.01s CPU      2.05s WALL (      19 calls)
     PAW_pot      :      4.57s CPU      4.58s WALL (      19 calls)
     mix_rho      :      0.28s CPU      0.31s WALL (      18 calls)

     Called by c_bands:
     init_us_2    :      3.05s CPU      3.06s WALL (     312 calls)
     cegterg      :    238.88s CPU    249.63s WALL (     144 calls)

     Called by sum_band:
     sum_band:bec :      0.03s CPU      0.03s WALL (     144 calls)
     addusdens    :      2.14s CPU      2.17s WALL (      18 calls)

     Called by *egterg:
     h_psi        :    160.42s CPU    168.70s WALL (     686 calls)
     s_psi        :     18.93s CPU     18.93s WALL (     686 calls)
     g_psi        :      1.35s CPU      1.35s WALL (     534 calls)
     cdiaghg      :     13.97s CPU     13.97s WALL (     678 calls)

     Called by h_psi:
     h_psi:pot    :    158.95s CPU    167.21s WALL (     686 calls)
     h_psi:calbec :     17.48s CPU     17.58s WALL (     686 calls)
     vloc_psi     :    122.58s CPU    130.73s WALL (     686 calls)
     add_vuspsi   :     18.89s CPU     18.89s WALL (     686 calls)

     General routines
     calbec       :     25.87s CPU     26.00s WALL (     870 calls)
     fft          :      0.78s CPU      0.98s WALL (     271 calls)
     fftw         :    131.67s CPU    141.13s WALL (   88414 calls)
 
     Parallel routines
     fft_scatter  :     31.11s CPU     36.74s WALL (   88685 calls)
 
     PWSCF        :  5m24.58s CPU     5m38.71s WALL

 
   This run was terminated on:  21:42: 4   3Nov2017            

=------------------------------------------------------------------------------=
   JOB DONE.
=------------------------------------------------------------------------------=
