
     Program PWSCF v.6.1 (svn rev. 13369) starts on  4Nov2017 at  4:17:23 

     This program is part of the open-source Quantum ESPRESSO suite
     for quantum simulation of materials; please cite
         "P. Giannozzi et al., J. Phys.:Condens. Matter 21 395502 (2009);
          URL http://www.quantum-espresso.org", 
     in publications or presentations arising from this work. More details at
     http://www.quantum-espresso.org/quote

     Parallel version (MPI), running on     8 processors
     R & G space division:  proc/nbgrp/npool/nimage =       8
     Waiting for input...
     Reading input from standard input

     Current dimensions of program PWSCF are:
     Max number of different atomic species (ntypx) = 10
     Max number of k-points (npk) =  40000
     Max angular momentum in pseudopotentials (lmaxx) =  3
               file C.pbe-n-kjpaw_psl.0.1.UPF: wavefunction(s)  2P renormalized
               file N.pbe-n-kjpaw_psl.0.1.UPF: wavefunction(s)  2P renormalized
               file H.pbe-kjpaw_psl.0.1.UPF: wavefunction(s)  1S renormalized
               file O.pbe-n-kjpaw_psl.0.1.UPF: wavefunction(s)  2P renormalized

     -------------------------------------
     Parameters for Dispersion Correction:
     -------------------------------------
       atom      VdW radius       C_6     

        C          2.744         60.710
        N          2.640         42.670
        H          1.892          4.857
        O          2.536         24.284

     Subspace diagonalization in iterative solution of the eigenvalue problem:
     a serial algorithm will be used

 
     Parallelization info
     --------------------
     sticks:   dense  smooth     PW     G-vecs:    dense   smooth      PW
     Min        2037    2037    535               134810   134810   18048
     Max        2038    2038    536               134813   134813   18049
     Sum       16303   16303   4283              1078497  1078497  144389
 


     bravais-lattice index     =            0
     lattice parameter (alat)  =      23.7047  a.u.
     unit-cell volume          =    7984.1389 (a.u.)^3
     number of atoms/cell      =          112
     number of atomic types    =            4
     number of electrons       =       296.00
     number of Kohn-Sham states=          177
     kinetic-energy cutoff     =     100.0000  Ry
     charge density cutoff     =     400.0000  Ry
     convergence threshold     =      1.0E-08
     mixing beta               =       0.5000
     number of iterations used =            8  plain     mixing
     Exchange-correlation      =  SLA  PW   PBX  PBC ( 1  4  3  4 0 0)

     celldm(1)=  23.704725  celldm(2)=   0.000000  celldm(3)=   0.000000
     celldm(4)=   0.000000  celldm(5)=   0.000000  celldm(6)=   0.000000

     crystal axes: (cart. coord. in units of alat)
               a(1) = (   1.000000   0.000000   0.000000 )  
               a(2) = (   0.000000   0.912229   0.000000 )  
               a(3) = (  -0.078469   0.000000   0.657082 )  

     reciprocal axes: (cart. coord. in units 2 pi/alat)
               b(1) = (  1.000000  0.000000  0.119420 )  
               b(2) = (  0.000000  1.096216  0.000000 )  
               b(3) = (  0.000000  0.000000  1.521880 )  


     PseudoPot. # 1 for  C read from file:
     /scratch/ahofstet/pseudo/C.pbe-n-kjpaw_psl.0.1.UPF
     MD5 check sum: 430fe95172b1e11ef3f8ed03bac87931
     Pseudo is Projector augmented-wave + core cor, Zval =  4.0
     Generated using "atomic" code by A. Dal Corso  v.5.0.99 svn rev. 10869
     Shape of augmentation charge: BESSEL
     Using radial grid of 1073 points,  4 beta functions with: 
                l(1) =   0
                l(2) =   0
                l(3) =   1
                l(4) =   1
     Q(r) pseudized with 0 coefficients 


     PseudoPot. # 2 for  N read from file:
     /scratch/ahofstet/pseudo/N.pbe-n-kjpaw_psl.0.1.UPF
     MD5 check sum: f73187c8b701007e77325f868c9291d7
     Pseudo is Projector augmented-wave + core cor, Zval =  5.0
     Generated using "atomic" code by A. Dal Corso  v.5.0.99 svn rev. 10869
     Shape of augmentation charge: PSQ
     Using radial grid of 1085 points,  4 beta functions with: 
                l(1) =   0
                l(2) =   0
                l(3) =   1
                l(4) =   1
     Q(r) pseudized with 0 coefficients 


     PseudoPot. # 3 for  H read from file:
     /scratch/ahofstet/pseudo/H.pbe-kjpaw_psl.0.1.UPF
     MD5 check sum: 94e484f906d9e9773b2f6e52662335b2
     Pseudo is Projector augmented-wave, Zval =  1.0
     Generated using "atomic" code by A. Dal Corso  v.5.0.99 svn rev. 10869
     Shape of augmentation charge: PSQ
     Using radial grid of  929 points,  2 beta functions with: 
                l(1) =   0
                l(2) =   0
     Q(r) pseudized with 0 coefficients 


     PseudoPot. # 4 for  O read from file:
     /scratch/ahofstet/pseudo/O.pbe-n-kjpaw_psl.0.1.UPF
     MD5 check sum: 3f94a2996a3169367d6eb21d9b593f20
     Pseudo is Projector augmented-wave + core cor, Zval =  6.0
     Generated using "atomic" code by A. Dal Corso  v.5.0.99 svn rev. 10869
     Shape of augmentation charge: BESSEL
     Using radial grid of 1095 points,  4 beta functions with: 
                l(1) =   0
                l(2) =   0
                l(3) =   1
                l(4) =   1
     Q(r) pseudized with 0 coefficients 


     atomic species   valence    mass     pseudopotential
        C              4.00    12.01070      C( 1.00)
        N              5.00    14.00670      N( 1.00)
        H              1.00     1.00794      H( 1.00)
        O              6.00    15.99940      O( 1.00)

     No symmetry found



   Cartesian axes

     site n.     atom                  positions (alat units)
         1           N   tau(   1) = (   0.4354850   0.1156709   0.3123304  )
         2           N   tau(   2) = (   0.3962647   0.7965521   0.6408685  )
         3           N   tau(   3) = (   0.9354971   0.5717844   0.3123237  )
         4           N   tau(   4) = (   0.8962595   0.3404407   0.6408678  )
         5           N   tau(   5) = (   0.4793441   0.0301089   0.2634398  )
         6           N   tau(   6) = (   0.4401049   0.8821243   0.5919811  )
         7           N   tau(   7) = (  -0.0206630   0.4862252   0.2634458  )
         8           N   tau(   8) = (  -0.0598912   0.4260104   0.5919807  )
         9           N   tau(   9) = (   0.8190738   0.3426980   0.2117796  )
        10           N   tau(  10) = (   0.7798389   0.5695353   0.5403171  )
        11           N   tau(  11) = (   0.3190726   0.7988097   0.2117785  )
        12           N   tau(  12) = (   0.2798412   0.1134188   0.5403157  )
        13           N   tau(  13) = (   0.7916532   0.3314029   0.1077757  )
        14           N   tau(  14) = (   0.7524245   0.5808215   0.4363188  )
        15           N   tau(  15) = (   0.2916492   0.7875172   0.1077751  )
        16           N   tau(  16) = (   0.2524241   0.1247051   0.4363165  )
        17           C   tau(  17) = (   0.5719150   0.0645439   0.2222073  )
        18           C   tau(  18) = (   0.5326823   0.8476817   0.5507466  )
        19           C   tau(  19) = (   0.0719203   0.5206532   0.2221995  )
        20           C   tau(  20) = (   0.0326796   0.3915683   0.5507488  )
        21           C   tau(  21) = (   0.5870332   0.1739951   0.2455497  )
        22           C   tau(  22) = (   0.5478150   0.7382341   0.5740825  )
        23           C   tau(  23) = (   0.0870411   0.6301152   0.2455492  )
        24           C   tau(  24) = (   0.0478166   0.2821172   0.5740821  )
        25           C   tau(  25) = (   0.4972674   0.2035641   0.3043581  )
        26           C   tau(  26) = (   0.4580204   0.7086612   0.6329056  )
        27           C   tau(  27) = (  -0.0027394   0.6596799   0.3043617  )
        28           C   tau(  28) = (  -0.0419819   0.2525460   0.6329074  )
        29           C   tau(  29) = (   0.6462508  -0.0089905   0.1656819  )
        30           C   tau(  30) = (   0.6070140   0.9212243   0.4942242  )
        31           C   tau(  31) = (   0.1462498   0.4471270   0.1656844  )
        32           C   tau(  32) = (   0.1070145   0.4651103   0.4942244  )
        33           H   tau(  33) = (   0.6066733   0.8276833   0.1467037  )
        34           H   tau(  34) = (   0.5674430   0.0845410   0.4752411  )
        35           H   tau(  35) = (   0.1066761   0.3715693   0.1467018  )
        36           H   tau(  36) = (   0.0674408   0.5406562   0.4752438  )
        37           H   tau(  37) = (   0.7167233  -0.0261724   0.2153278  )
        38           H   tau(  38) = (   0.6774913   0.9384016   0.5438674  )
        39           H   tau(  39) = (   0.2167259   0.4299432   0.2153270  )
        40           H   tau(  40) = (   0.1774914   0.4822872   0.5438680  )
        41           H   tau(  41) = (   0.6748560   0.0260864   0.0907897  )
        42           H   tau(  42) = (   0.6356246   0.8861407   0.4193315  )
        43           H   tau(  43) = (   0.1748566   0.4822012   0.0907903  )
        44           H   tau(  44) = (   0.1356224   0.4300290   0.4193302  )
        45           C   tau(  45) = (   0.4662159   0.3081066   0.3516470  )
        46           C   tau(  46) = (   0.5054539   0.6041233   0.0231028  )
        47           C   tau(  47) = (   0.9662179   0.7642212   0.3516451  )
        48           C   tau(  48) = (   1.0054544   0.1480093   0.0231012  )
        49           H   tau(  49) = (   0.3931919   0.3000351   0.3992759  )
        50           H   tau(  50) = (   0.4324208   0.6121954   0.0707366  )
        51           H   tau(  51) = (   0.8931881   0.7561499   0.3992758  )
        52           H   tau(  52) = (   0.9324222   0.1560794   0.0707362  )
        53           H   tau(  53) = (   0.4522352   0.3679021   0.2889233  )
        54           H   tau(  54) = (   0.4130013   0.5443264   0.6174637  )
        55           H   tau(  55) = (   0.9522369   0.8240174   0.2889232  )
        56           H   tau(  56) = (   0.9130006   0.0882121   0.6174630  )
        57           H   tau(  57) = (   0.5300312   0.3392191   0.4030967  )
        58           H   tau(  58) = (   0.5692628   0.5730090   0.0745580  )
        59           H   tau(  59) = (   0.0300296   0.7953324   0.4030979  )
        60           H   tau(  60) = (   0.0692640   0.1168954   0.0745549  )
        61           C   tau(  61) = (   0.7041478   0.2697466   0.1071986  )
        62           C   tau(  62) = (   0.6649095   0.6424844   0.4357327  )
        63           C   tau(  63) = (   0.2041552   0.7258619   0.1072059  )
        64           C   tau(  64) = (   0.1649080   0.1863749   0.4357336  )
        65           C   tau(  65) = (   0.6756407   0.2415074   0.2127621  )
        66           C   tau(  66) = (   0.6363969   0.6707209   0.5413057  )
        67           C   tau(  67) = (   0.1756347   0.6976207   0.2127571  )
        68           C   tau(  68) = (   0.1363938   0.2146110   0.5413043  )
        69           C   tau(  69) = (   0.7515778   0.2909303   0.2779004  )
        70           C   tau(  70) = (   0.7123426   0.6212972   0.6064445  )
        71           C   tau(  71) = (   0.2515785   0.7470449   0.2779048  )
        72           C   tau(  72) = (   0.2123440   0.1651829   0.6064480  )
        73           C   tau(  73) = (   0.6470570   0.2431575   0.0060295  )
        74           C   tau(  74) = (   0.6078221   0.6690689   0.3345723  )
        75           C   tau(  75) = (   0.1470550   0.6992721   0.0060251  )
        76           C   tau(  76) = (   0.1078237   0.2129556   0.3345706  )
        77           H   tau(  77) = (   0.6230283   0.2473859   0.5946995  )
        78           H   tau(  78) = (   0.6622583   0.6648404   0.2661575  )
        79           H   tau(  79) = (   0.1230255   0.7035008   0.5947005  )
        80           H   tau(  80) = (   0.1622591   0.2087280   0.2661573  )
        81           H   tau(  81) = (   0.5814030   0.2997651  -0.0087576  )
        82           H   tau(  82) = (   0.5421655   0.6124639   0.3197832  )
        83           H   tau(  83) = (   0.0814029   0.7558808  -0.0087575  )
        84           H   tau(  84) = (   0.0421665   0.1563507   0.3197833  )
        85           H   tau(  85) = (   0.5330524   0.1631602   0.6660967  )
        86           H   tau(  86) = (   0.5722852   0.7490684   0.3375544  )
        87           H   tau(  87) = (   0.0330508   0.6192756   0.6660972  )
        88           H   tau(  88) = (   0.0722844   0.2929556   0.3375552  )
        89           C   tau(  89) = (   0.7620362   0.2922449   0.3961584  )
        90           C   tau(  90) = (   0.8012686   0.6199828   0.0676174  )
        91           C   tau(  91) = (   0.2620366   0.7483605   0.3961583  )
        92           C   tau(  92) = (   0.3012692   0.1638695   0.0676147  )
        93           H   tau(  93) = (   0.8447142   0.2790358   0.4223413  )
        94           H   tau(  94) = (   0.8839485   0.6331907   0.0937963  )
        95           H   tau(  95) = (   0.3447151   0.7351543   0.4223393  )
        96           H   tau(  96) = (   0.3839501   0.1770773   0.0937977  )
        97           H   tau(  97) = (   0.7114794   0.2292747   0.4304447  )
        98           H   tau(  98) = (   0.7507143   0.6829563   0.1019044  )
        99           H   tau(  99) = (   0.2114813   0.6853868   0.4304474  )
       100           H   tau( 100) = (   0.2507141   0.2268412   0.1019051  )
       101           H   tau( 101) = (   0.7367032   0.3695131   0.4295118  )
       102           H   tau( 102) = (   0.7759341   0.5427142   0.1009712  )
       103           H   tau( 103) = (   0.2367012   0.8256284   0.4295107  )
       104           H   tau( 104) = (   0.2759370   0.0866002   0.1009683  )
       105           H   tau( 105) = (   0.8849540   0.3907541   0.2321173  )
       106           H   tau( 106) = (   0.8457181   0.5214790   0.5606585  )
       107           H   tau( 107) = (   0.3849510   0.8468699   0.2321183  )
       108           H   tau( 108) = (   0.3457168   0.0653597   0.5606576  )
       109           H   tau( 109) = (   0.3617133   0.1107860   0.3521464  )
       110           H   tau( 110) = (   0.4009420   0.8014438   0.0236095  )
       111           H   tau( 111) = (   0.8617091   0.5668979   0.3521512  )
       112           H   tau( 112) = (   0.9009448   0.3453309   0.0236073  )

     number of k points=     8
                       cart. coord. in units 2pi/alat
        k(    1) = (   0.0000000   0.0000000   0.0000000), wk =   0.1666667
        k(    2) = (   0.0000000   0.0000000   0.5072935), wk =   0.3333333
        k(    3) = (   0.0000000  -0.5481080   0.0000000), wk =   0.1666667
        k(    4) = (   0.0000000  -0.5481080   0.5072935), wk =   0.3333333
        k(    5) = (  -0.5000000   0.0000000  -0.0597099), wk =   0.1666667
        k(    6) = (  -0.5000000   0.0000000   0.4475836), wk =   0.3333333
        k(    7) = (  -0.5000000  -0.5481080  -0.0597099), wk =   0.1666667
        k(    8) = (  -0.5000000  -0.5481080   0.4475836), wk =   0.3333333

     Dense  grid:  1078497 G-vectors     FFT dimensions: ( 160, 144, 100)

     Estimated max dynamical RAM per process >    1015.34MB

     Estimated total allocated dynamical RAM >    8122.69MB

     Check: negative/imaginary core charge=   -0.000002    0.000000

     Initial potential from superposition of free atoms

     starting charge  295.99768, renormalised to  296.00000
     Starting wfc are  280 randomized atomic wfcs
     Checking if some PAW data can be deallocated... 

     total cpu time spent up to now is       50.7 secs

     per-process dynamical memory:   694.6 Mb

     Self-consistent Calculation

     iteration #  1     ecut=   100.00 Ry     beta=0.50
     Davidson diagonalization with overlap
     ethr =  1.00E-02,  avg # of iterations =  5.5

     total cpu time spent up to now is      183.7 secs

     total energy              =   -1253.89139978 Ry
     Harris-Foulkes estimate   =   -1260.12906269 Ry
     estimated scf accuracy    <      11.76585562 Ry

     iteration #  2     ecut=   100.00 Ry     beta=0.50
     Davidson diagonalization with overlap
     ethr =  3.97E-03,  avg # of iterations =  2.0

     total cpu time spent up to now is      248.1 secs

     total energy              =   -1254.03667075 Ry
     Harris-Foulkes estimate   =   -1254.79824496 Ry
     estimated scf accuracy    <       1.42717022 Ry

     iteration #  3     ecut=   100.00 Ry     beta=0.50
     Davidson diagonalization with overlap
     ethr =  4.82E-04,  avg # of iterations =  5.0

     total cpu time spent up to now is      392.2 secs

     total energy              =   -1255.79625259 Ry
     Harris-Foulkes estimate   =   -1256.52170081 Ry
     estimated scf accuracy    <       2.31816152 Ry

     iteration #  4     ecut=   100.00 Ry     beta=0.50
     Davidson diagonalization with overlap
     ethr =  4.82E-04,  avg # of iterations =  1.1

     total cpu time spent up to now is      453.1 secs

     total energy              =   -1255.06198709 Ry
     Harris-Foulkes estimate   =   -1255.84572805 Ry
     estimated scf accuracy    <       1.05077259 Ry

     iteration #  5     ecut=   100.00 Ry     beta=0.50
     Davidson diagonalization with overlap
     ethr =  3.55E-04,  avg # of iterations =  4.4

     total cpu time spent up to now is      589.9 secs

     total energy              =   -1255.84826556 Ry
     Harris-Foulkes estimate   =   -1256.70474633 Ry
     estimated scf accuracy    <       2.91446509 Ry

     iteration #  6     ecut=   100.00 Ry     beta=0.50
     Davidson diagonalization with overlap
     ethr =  3.55E-04,  avg # of iterations =  1.1

     total cpu time spent up to now is      651.2 secs

     total energy              =   -1255.40994633 Ry
     Harris-Foulkes estimate   =   -1255.90268795 Ry
     estimated scf accuracy    <       1.38734657 Ry

     iteration #  7     ecut=   100.00 Ry     beta=0.50
     Davidson diagonalization with overlap
     ethr =  3.55E-04,  avg # of iterations =  3.0

     total cpu time spent up to now is      734.0 secs

     total energy              =   -1255.70900515 Ry
     Harris-Foulkes estimate   =   -1255.72982340 Ry
     estimated scf accuracy    <       0.03654215 Ry

     iteration #  8     ecut=   100.00 Ry     beta=0.50
     Davidson diagonalization with overlap
     ethr =  1.23E-05,  avg # of iterations =  5.0

     total cpu time spent up to now is      878.7 secs

     total energy              =   -1255.74214174 Ry
     Harris-Foulkes estimate   =   -1255.74492538 Ry
     estimated scf accuracy    <       0.00857114 Ry

     iteration #  9     ecut=   100.00 Ry     beta=0.50
     Davidson diagonalization with overlap
     c_bands:  1 eigenvalues not converged
     c_bands:  1 eigenvalues not converged
     ethr =  2.90E-06,  avg # of iterations = 17.6

     total cpu time spent up to now is      976.8 secs

     total energy              =   -1255.74133530 Ry
     Harris-Foulkes estimate   =   -1255.74251719 Ry
     estimated scf accuracy    <       0.00248495 Ry

     iteration # 10     ecut=   100.00 Ry     beta=0.50
     Davidson diagonalization with overlap
     ethr =  8.40E-07,  avg # of iterations =  5.5

     total cpu time spent up to now is     1080.5 secs

     total energy              =   -1255.74248992 Ry
     Harris-Foulkes estimate   =   -1255.74262382 Ry
     estimated scf accuracy    <       0.00036719 Ry

     iteration # 11     ecut=   100.00 Ry     beta=0.50
     Davidson diagonalization with overlap
     ethr =  1.24E-07,  avg # of iterations =  2.0

     total cpu time spent up to now is     1144.6 secs

     total energy              =   -1255.74242939 Ry
     Harris-Foulkes estimate   =   -1255.74251277 Ry
     estimated scf accuracy    <       0.00014557 Ry

     iteration # 12     ecut=   100.00 Ry     beta=0.50
     Davidson diagonalization with overlap
     ethr =  4.92E-08,  avg # of iterations =  4.0

     total cpu time spent up to now is     1258.2 secs

     total energy              =   -1255.74253520 Ry
     Harris-Foulkes estimate   =   -1255.74254895 Ry
     estimated scf accuracy    <       0.00007465 Ry

     iteration # 13     ecut=   100.00 Ry     beta=0.50
     Davidson diagonalization with overlap
     ethr =  2.52E-08,  avg # of iterations =  1.1

     total cpu time spent up to now is     1320.2 secs

     total energy              =   -1255.74251347 Ry
     Harris-Foulkes estimate   =   -1255.74253597 Ry
     estimated scf accuracy    <       0.00005128 Ry

     iteration # 14     ecut=   100.00 Ry     beta=0.50
     Davidson diagonalization with overlap
     ethr =  1.73E-08,  avg # of iterations =  2.0

     total cpu time spent up to now is     1385.9 secs

     total energy              =   -1255.74251235 Ry
     Harris-Foulkes estimate   =   -1255.74251734 Ry
     estimated scf accuracy    <       0.00000990 Ry

     iteration # 15     ecut=   100.00 Ry     beta=0.50
     Davidson diagonalization with overlap
     ethr =  3.34E-09,  avg # of iterations =  4.0

     total cpu time spent up to now is     1507.4 secs

     total energy              =   -1255.74252431 Ry
     Harris-Foulkes estimate   =   -1255.74252894 Ry
     estimated scf accuracy    <       0.00001045 Ry

     iteration # 16     ecut=   100.00 Ry     beta=0.50
     Davidson diagonalization with overlap
     ethr =  3.34E-09,  avg # of iterations =  1.0

     total cpu time spent up to now is     1568.9 secs

     total energy              =   -1255.74252390 Ry
     Harris-Foulkes estimate   =   -1255.74252466 Ry
     estimated scf accuracy    <       0.00000304 Ry

     iteration # 17     ecut=   100.00 Ry     beta=0.50
     Davidson diagonalization with overlap
     ethr =  1.03E-09,  avg # of iterations =  4.0

     total cpu time spent up to now is     1671.8 secs

     total energy              =   -1255.74252555 Ry
     Harris-Foulkes estimate   =   -1255.74252557 Ry
     estimated scf accuracy    <       0.00000011 Ry

     iteration # 18     ecut=   100.00 Ry     beta=0.50
     Davidson diagonalization with overlap
     ethr =  3.73E-11,  avg # of iterations =  3.5

     total cpu time spent up to now is     1745.8 secs

     total energy              =   -1255.74252555 Ry
     Harris-Foulkes estimate   =   -1255.74252557 Ry
     estimated scf accuracy    <       0.00000003 Ry

     iteration # 19     ecut=   100.00 Ry     beta=0.50
     Davidson diagonalization with overlap
     ethr =  1.09E-11,  avg # of iterations =  4.0

     total cpu time spent up to now is     1857.6 secs

     End of self-consistent calculation

          k = 0.0000 0.0000 0.0000 (134833 PWs)   bands (ev):

   -20.7505 -20.7220 -20.6785 -20.6775 -20.5805 -20.5799 -20.5566 -20.5238
   -15.3585 -15.3061 -15.2845 -15.2748 -15.2151 -15.1817 -15.1626 -15.0760
   -14.9845 -14.9351 -14.9158 -14.8918 -13.8697 -13.8157 -13.8093 -13.7148
   -12.5516 -12.4887 -12.4178 -12.4110 -12.2641 -12.2256 -12.2212 -12.1538
   -12.1337 -12.0906 -12.0737 -12.0524 -11.8927 -11.8400 -11.7926 -11.7821
   -10.2694 -10.0462 -10.0290  -9.8344  -8.7082  -8.5848  -8.5626  -8.5186
    -8.4430  -8.4160  -8.4067  -8.3135  -8.2339  -8.2299  -8.1665  -8.1648
    -7.6992  -7.4995  -7.4736  -7.2454  -7.1222  -7.0298  -6.9091  -6.5438
    -6.1653  -6.1038  -6.0388  -5.9152  -5.8909  -5.7822  -5.7245  -5.6836
    -5.4347  -5.3896  -5.3473  -5.3074  -5.2345  -5.2054  -5.1985  -5.1698
    -5.1214  -5.1198  -5.0794  -5.0702  -5.0258  -4.9933  -4.8315  -4.8162
    -4.8046  -4.7682  -4.7535  -4.6780  -4.6231  -4.6075  -4.5907  -4.5700
    -4.4920  -4.4655  -4.4601  -4.4272  -4.3263  -4.3236  -4.3041  -4.2532
    -4.0247  -4.0141  -4.0026  -3.9789  -3.9563  -3.9559  -3.9342  -3.9077
    -3.8959  -3.8551  -3.8521  -3.8181  -3.7175  -3.6099  -3.5573  -3.4797
    -3.4293  -3.4170  -3.3407  -3.3187  -2.2385  -1.9516  -1.9505  -1.9226
    -1.7451  -1.7140  -1.5593  -1.5239  -1.0096  -0.8300  -0.8200  -0.8168
    -0.6884  -0.6637  -0.6136  -0.5665  -0.5266  -0.5150  -0.4870  -0.4738
    -0.1772   0.0046   0.0404   0.0758   4.0799   4.5515   4.6085   4.6546
     4.6983   4.7004   4.7694   4.7997   4.8109   4.8164   5.2577   5.3195
     5.3558   5.3977   5.4927   5.5045   5.8557   5.9212   6.0106   6.0561
     6.0798   6.2276   6.2380   6.3134   6.4577   6.4776   6.5414   6.5889
     6.6524

          k = 0.0000 0.0000 0.5073 (134847 PWs)   bands (ev):

   -20.7358 -20.7119 -20.7010 -20.6903 -20.5731 -20.5618 -20.5610 -20.5344
   -15.3497 -15.3162 -15.3004 -15.2849 -15.2037 -15.1772 -15.1449 -15.0949
   -14.9674 -14.9324 -14.9243 -14.9032 -13.8516 -13.8210 -13.7896 -13.7383
   -12.4941 -12.4562 -12.4183 -12.4069 -12.2672 -12.2643 -12.1902 -12.1554
   -12.1258 -12.1077 -12.1048 -12.0934 -11.8636 -11.8272 -11.8088 -11.7951
   -10.2147 -10.0967  -9.9903  -9.8847  -8.6956  -8.6155  -8.5745  -8.5423
    -8.4116  -8.3937  -8.3903  -8.3291  -8.2398  -8.2379  -8.1851  -8.1819
    -7.6835  -7.5789  -7.4672  -7.3629  -7.0481  -7.0215  -6.8099  -6.6187
    -6.0447  -6.0344  -5.9860  -5.9325  -5.8681  -5.7899  -5.7847  -5.7842
    -5.4323  -5.3416  -5.3298  -5.2387  -5.2374  -5.2208  -5.2036  -5.1781
    -5.1250  -5.0859  -5.0739  -5.0170  -5.0048  -4.9713  -4.9079  -4.8458
    -4.7613  -4.7603  -4.7591  -4.7363  -4.6041  -4.5992  -4.5983  -4.5490
    -4.4919  -4.4699  -4.4422  -4.4007  -4.2585  -4.2425  -4.2046  -4.1943
    -4.1154  -4.0885  -4.0738  -4.0722  -4.0307  -4.0164  -4.0034  -3.9707
    -3.9246  -3.8887  -3.8618  -3.8488  -3.6690  -3.5566  -3.5306  -3.5024
    -3.4366  -3.3745  -3.3417  -3.3040  -2.1787  -2.0499  -1.9240  -1.9008
    -1.6769  -1.6433  -1.5927  -1.5471  -0.9672  -0.8742  -0.8365  -0.8193
    -0.6657  -0.6233  -0.6000  -0.5758  -0.5188  -0.5115  -0.4913  -0.4794
    -0.1281  -0.0148   0.0308   0.0671   4.2761   4.5565   4.6050   4.6073
     4.6628   4.6940   4.7241   4.7669   4.8445   4.8659   5.0749   5.2550
     5.3530   5.4045   5.5363   5.5608   5.6450   5.6815   5.9900   6.0287
     6.0299   6.1289   6.2622   6.3524   6.3680   6.4582   6.4893   6.5510
     6.6236

          k = 0.0000-0.5481 0.0000 (134796 PWs)   bands (ev):

   -20.7386 -20.7382 -20.6757 -20.6752 -20.5840 -20.5836 -20.5372 -20.5368
   -15.3388 -15.3387 -15.2799 -15.2796 -15.1942 -15.1940 -15.1153 -15.1152
   -14.9639 -14.9638 -14.9039 -14.9038 -13.8404 -13.8404 -13.7616 -13.7616
   -12.5160 -12.5159 -12.4243 -12.4243 -12.2362 -12.2361 -12.1800 -12.1798
   -12.1378 -12.1377 -12.0418 -12.0416 -11.8757 -11.8756 -11.7909 -11.7908
   -10.1539 -10.1536  -9.9308  -9.9305  -8.6489  -8.6486  -8.5538  -8.5535
    -8.4203  -8.4203  -8.3554  -8.3554  -8.2139  -8.2138  -8.1910  -8.1908
    -7.6156  -7.6155  -7.3976  -7.3975  -7.0111  -7.0110  -6.7243  -6.7242
    -6.1434  -6.1434  -5.9375  -5.9373  -5.8532  -5.8531  -5.7344  -5.7342
    -5.4154  -5.4153  -5.3099  -5.3097  -5.2722  -5.2722  -5.1646  -5.1644
    -5.1085  -5.1084  -5.0920  -5.0918  -4.9816  -4.9815  -4.8723  -4.8722
    -4.7433  -4.7433  -4.6971  -4.6970  -4.5980  -4.5979  -4.5741  -4.5740
    -4.5329  -4.5327  -4.4007  -4.4005  -4.3417  -4.3416  -4.1686  -4.1684
    -4.1294  -4.1292  -4.0110  -4.0110  -3.9760  -3.9759  -3.9289  -3.9287
    -3.8596  -3.8595  -3.8134  -3.8134  -3.6927  -3.6926  -3.4936  -3.4935
    -3.4503  -3.4500  -3.2922  -3.2920  -2.1408  -2.1405  -1.8436  -1.8436
    -1.7827  -1.7824  -1.5321  -1.5319  -0.9250  -0.9249  -0.8302  -0.8301
    -0.6801  -0.6799  -0.5653  -0.5651  -0.5450  -0.5448  -0.4601  -0.4599
    -0.0874  -0.0872   0.0541   0.0543   4.3001   4.3001   4.6532   4.6533
     4.6599   4.6601   4.7841   4.7842   4.8651   4.8653   5.2801   5.2805
     5.3360   5.3362   5.6642   5.6642   5.7099   5.7100   5.9438   5.9438
     6.0895   6.0896   6.3307   6.3308   6.4874   6.4875   6.5943   6.5944
     6.7398

          k = 0.0000-0.5481 0.5073 (134870 PWs)   bands (ev):

   -20.7256 -20.7251 -20.6953 -20.6948 -20.5685 -20.5681 -20.5463 -20.5458
   -15.3309 -15.3308 -15.3033 -15.3031 -15.1694 -15.1692 -15.1312 -15.1311
   -14.9488 -14.9487 -14.9185 -14.9184 -13.8188 -13.8187 -13.7787 -13.7787
   -12.4713 -12.4712 -12.4165 -12.4164 -12.2493 -12.2492 -12.2118 -12.2118
   -12.1134 -12.1131 -12.0692 -12.0689 -11.8575 -11.8574 -11.8081 -11.8080
   -10.0996 -10.0993  -9.9893  -9.9890  -8.6385  -8.6383  -8.5838  -8.5836
    -8.3930  -8.3929  -8.3571  -8.3571  -8.2201  -8.2200  -8.2110  -8.2108
    -7.5979  -7.5978  -7.5041  -7.5040  -6.9095  -6.9093  -6.7675  -6.7673
    -6.0515  -6.0514  -5.9421  -5.9420  -5.8532  -5.8531  -5.7760  -5.7758
    -5.3718  -5.3717  -5.2871  -5.2869  -5.2566  -5.2565  -5.1759  -5.1757
    -5.1116  -5.1116  -5.0600  -5.0600  -4.9901  -4.9900  -4.8856  -4.8855
    -4.7799  -4.7798  -4.7103  -4.7102  -4.5850  -4.5848  -4.5503  -4.5501
    -4.4997  -4.4997  -4.4382  -4.4380  -4.2401  -4.2400  -4.1978  -4.1976
    -4.1069  -4.1068  -4.0657  -4.0656  -4.0267  -4.0266  -4.0196  -4.0195
    -3.9103  -3.9101  -3.8287  -3.8285  -3.6147  -3.6145  -3.5175  -3.5172
    -3.4062  -3.4059  -3.3147  -3.3144  -2.0791  -2.0789  -1.9567  -1.9565
    -1.6611  -1.6608  -1.5602  -1.5600  -0.8994  -0.8993  -0.8497  -0.8496
    -0.6454  -0.6451  -0.5820  -0.5817  -0.5260  -0.5255  -0.4814  -0.4810
    -0.0472  -0.0470   0.0244   0.0246   4.4470   4.4471   4.5998   4.6000
     4.6806   4.6806   4.7867   4.7868   4.8318   4.8320   5.0556   5.0559
     5.4057   5.4062   5.5511   5.5514   5.7094   5.7095   5.9034   5.9035
     6.0623   6.0624   6.2798   6.2800   6.3335   6.3337   6.5750   6.5751
     6.8707

          k =-0.5000 0.0000-0.0597 (134806 PWs)   bands (ev):

   -20.7376 -20.7372 -20.6782 -20.6777 -20.5803 -20.5801 -20.5392 -20.5389
   -15.3364 -15.3363 -15.2863 -15.2861 -15.1891 -15.1890 -15.1136 -15.1136
   -14.9439 -14.9439 -14.9288 -14.9287 -13.8120 -13.8119 -13.7875 -13.7874
   -12.5232 -12.5231 -12.4188 -12.4187 -12.2179 -12.2179 -12.1832 -12.1832
   -12.1457 -12.1454 -12.0427 -12.0424 -11.8662 -11.8661 -11.8113 -11.8112
   -10.0453 -10.0451 -10.0363 -10.0361  -8.6351  -8.6348  -8.5659  -8.5656
    -8.4355  -8.4352  -8.3398  -8.3396  -8.2007  -8.2005  -8.1981  -8.1979
    -7.5548  -7.5547  -7.5262  -7.5261  -6.9120  -6.9116  -6.7411  -6.7409
    -6.1602  -6.1601  -5.9291  -5.9290  -5.8619  -5.8618  -5.7474  -5.7472
    -5.3741  -5.3740  -5.3668  -5.3667  -5.2192  -5.2191  -5.1437  -5.1436
    -5.1353  -5.1351  -5.0745  -5.0744  -5.0267  -5.0266  -4.8339  -4.8338
    -4.7553  -4.7553  -4.6800  -4.6800  -4.6418  -4.6416  -4.5866  -4.5865
    -4.4860  -4.4857  -4.4743  -4.4740  -4.3138  -4.3137  -4.2834  -4.2834
    -4.0139  -4.0138  -3.9773  -3.9772  -3.9469  -3.9467  -3.9352  -3.9350
    -3.8661  -3.8659  -3.8509  -3.8509  -3.6696  -3.6694  -3.4821  -3.4820
    -3.4485  -3.4482  -3.3223  -3.3221  -2.0932  -2.0930  -1.9467  -1.9465
    -1.7232  -1.7230  -1.5548  -1.5547  -0.9036  -0.9034  -0.8260  -0.8258
    -0.6805  -0.6803  -0.5878  -0.5876  -0.5193  -0.5191  -0.4828  -0.4827
    -0.0483  -0.0479   0.0270   0.0275   4.2963   4.2963   4.6496   4.6497
     4.6678   4.6680   4.7801   4.7802   4.7969   4.7971   5.3298   5.3302
     5.3757   5.3760   5.6388   5.6390   5.7890   5.7891   6.0048   6.0049
     6.1588   6.1589   6.1930   6.1931   6.5641   6.5641   6.6153   6.6153
     6.7415

          k =-0.5000 0.0000 0.4476 (134864 PWs)   bands (ev):

   -20.7309 -20.7181 -20.7044 -20.6860 -20.5779 -20.5573 -20.5549 -20.5399
   -15.3359 -15.3211 -15.3156 -15.2896 -15.1954 -15.1483 -15.1476 -15.1178
   -14.9606 -14.9491 -14.9122 -14.9076 -13.8394 -13.8280 -13.7724 -13.7587
   -12.4795 -12.4737 -12.4169 -12.4141 -12.2343 -12.2288 -12.2182 -12.2152
   -12.1445 -12.0871 -12.0832 -12.0637 -11.8735 -11.8347 -11.8165 -11.8043
   -10.1332 -10.1294  -9.9606  -9.9554  -8.6548  -8.6177  -8.6055  -8.5630
    -8.4560  -8.3966  -8.3557  -8.3114  -8.2146  -8.2113  -8.2078  -8.2050
    -7.6294  -7.6185  -7.4629  -7.4320  -7.0688  -6.9512  -6.7300  -6.6576
    -6.0900  -6.0402  -5.9667  -5.9609  -5.8216  -5.8161  -5.8076  -5.7745
    -5.4055  -5.3355  -5.3299  -5.3124  -5.2481  -5.2273  -5.1890  -5.1694
    -5.0943  -5.0608  -5.0551  -5.0548  -4.9934  -4.9675  -4.8765  -4.8580
    -4.7842  -4.7744  -4.7344  -4.7136  -4.6222  -4.6058  -4.5716  -4.5552
    -4.5116  -4.4941  -4.4416  -4.4080  -4.2423  -4.2334  -4.2087  -4.2079
    -4.1102  -4.0885  -4.0679  -4.0596  -4.0185  -4.0127  -4.0027  -3.9831
    -3.9111  -3.9005  -3.8562  -3.8557  -3.6299  -3.6256  -3.5564  -3.4960
    -3.3917  -3.3707  -3.3650  -3.2938  -2.1339  -2.0855  -1.9654  -1.8428
    -1.7202  -1.6261  -1.5884  -1.5632  -0.9305  -0.8979  -0.8459  -0.8137
    -0.6517  -0.6486  -0.5998  -0.5781  -0.5091  -0.4939  -0.4932  -0.4920
    -0.0377  -0.0213   0.0030   0.0144   4.4282   4.4665   4.6023   4.6057
     4.6244   4.6810   4.7138   4.7781   4.8408   4.8418   5.1413   5.1555
     5.2559   5.4088   5.5027   5.6712   5.7904   5.8045   5.9001   5.9658
     6.1516   6.1659   6.1752   6.2215   6.3814   6.3993   6.4450   6.6626
     6.7037

          k =-0.5000-0.5481-0.0597 (134664 PWs)   bands (ev):

   -20.7385 -20.7381 -20.6758 -20.6754 -20.5838 -20.5835 -20.5372 -20.5369
   -15.3377 -15.3376 -15.2765 -15.2762 -15.2081 -15.2076 -15.1058 -15.1053
   -14.9536 -14.9536 -14.9148 -14.9147 -13.8392 -13.8390 -13.7627 -13.7626
   -12.5145 -12.5143 -12.4266 -12.4264 -12.2357 -12.2354 -12.1862 -12.1860
   -12.1217 -12.1214 -12.0604 -12.0603 -11.8533 -11.8531 -11.8045 -11.8043
   -10.1467 -10.1461  -9.9408  -9.9402  -8.6438  -8.6434  -8.5608  -8.5606
    -8.4242  -8.4240  -8.3502  -8.3501  -8.2220  -8.2219  -8.1704  -8.1702
    -7.6168  -7.6163  -7.3938  -7.3936  -7.0676  -7.0673  -6.6702  -6.6699
    -6.1580  -6.1579  -5.9398  -5.9396  -5.8592  -5.8591  -5.7118  -5.7117
    -5.4185  -5.4184  -5.3293  -5.3291  -5.2569  -5.2568  -5.1424  -5.1421
    -5.1259  -5.1256  -5.0802  -5.0801  -5.0177  -5.0174  -4.8535  -4.8533
    -4.7065  -4.7065  -4.6775  -4.6775  -4.6488  -4.6487  -4.5690  -4.5689
    -4.5213  -4.5210  -4.4535  -4.4532  -4.3446  -4.3444  -4.1459  -4.1458
    -4.1198  -4.1196  -4.0003  -3.9999  -3.9731  -3.9730  -3.9339  -3.9337
    -3.9039  -3.9036  -3.7963  -3.7962  -3.6720  -3.6717  -3.4973  -3.4973
    -3.4472  -3.4468  -3.2927  -3.2924  -2.1430  -2.1425  -1.8401  -1.8401
    -1.7928  -1.7924  -1.5283  -1.5282  -0.9222  -0.9218  -0.8296  -0.8295
    -0.6794  -0.6791  -0.5743  -0.5741  -0.5421  -0.5419  -0.4618  -0.4617
    -0.0607  -0.0601   0.0323   0.0330   4.3625   4.3626   4.6331   4.6333
     4.6643   4.6644   4.7479   4.7482   4.8464   4.8466   5.2738   5.2740
     5.3486   5.3490   5.4087   5.4091   5.9826   5.9828   6.0638   6.0641
     6.2492   6.2493   6.2856   6.2859   6.3468   6.3470   6.4577   6.4578
     6.6827

          k =-0.5000-0.5481 0.4476 (134824 PWs)   bands (ev):

   -20.7283 -20.7279 -20.6906 -20.6902 -20.5752 -20.5747 -20.5415 -20.5409
   -15.3350 -15.3348 -15.2902 -15.2898 -15.1965 -15.1959 -15.1190 -15.1184
   -14.9549 -14.9548 -14.9036 -14.9035 -13.8527 -13.8526 -13.7490 -13.7489
   -12.4726 -12.4725 -12.4131 -12.4129 -12.2785 -12.2783 -12.1639 -12.1637
   -12.1155 -12.1153 -12.0988 -12.0985 -11.8589 -11.8588 -11.7871 -11.7869
   -10.1866 -10.1860  -9.9077  -9.9072  -8.6676  -8.6673  -8.5431  -8.5427
    -8.4448  -8.4447  -8.3247  -8.3246  -8.2297  -8.2296  -8.1905  -8.1903
    -7.6444  -7.6439  -7.3447  -7.3445  -7.1435  -7.1432  -6.6541  -6.6538
    -6.0674  -6.0674  -5.9634  -5.9633  -5.8324  -5.8323  -5.7625  -5.7624
    -5.3902  -5.3901  -5.2906  -5.2905  -5.2206  -5.2205  -5.1866  -5.1864
    -5.1107  -5.1105  -5.0379  -5.0377  -4.9999  -4.9998  -4.8859  -4.8858
    -4.7551  -4.7550  -4.6746  -4.6745  -4.6507  -4.6506  -4.5714  -4.5713
    -4.4930  -4.4928  -4.4320  -4.4317  -4.2370  -4.2369  -4.1898  -4.1897
    -4.1122  -4.1121  -4.0618  -4.0617  -4.0367  -4.0365  -4.0067  -4.0066
    -3.9076  -3.9075  -3.8360  -3.8359  -3.6205  -3.6203  -3.5154  -3.5152
    -3.4288  -3.4286  -3.2942  -3.2939  -2.1396  -2.1390  -1.8691  -1.8686
    -1.7044  -1.7042  -1.5408  -1.5406  -0.9370  -0.9367  -0.8106  -0.8105
    -0.6456  -0.6453  -0.5886  -0.5884  -0.5291  -0.5285  -0.4746  -0.4742
    -0.0645  -0.0639   0.0386   0.0393   4.4686   4.4688   4.5982   4.5984
     4.7163   4.7164   4.7436   4.7438   4.8574   4.8576   5.0908   5.0910
     5.2616   5.2618   5.5638   5.5640   5.6326   5.6330   5.9455   5.9457
     6.1410   6.1410   6.3091   6.3092   6.4564   6.4565   6.5944   6.5944
     6.7148

     highest occupied, lowest unoccupied level (ev):     0.0758    4.0799

!    total energy              =   -1255.74252557 Ry
     Harris-Foulkes estimate   =   -1255.74252557 Ry
     estimated scf accuracy    <          7.2E-09 Ry

     total all-electron energy =     -4867.087158 Ry

     The total energy is the sum of the following terms:

     one-electron contribution =   -1093.06365638 Ry
     hartree contribution      =     643.48548894 Ry
     xc contribution           =    -293.04761637 Ry
     ewald contribution        =    -114.19304637 Ry
     Dispersion Correction     =      -0.42167566 Ry
     one-center paw contrib.   =    -398.50201972 Ry

     convergence has been achieved in  19 iterations

     Forces acting on atoms (cartesian axes, Ry/au):

     atom    1 type  2   force =     0.00041126    0.00001675   -0.00010863
     atom    2 type  2   force =    -0.00027559    0.00021267    0.00018543
     atom    3 type  2   force =    -0.00019912    0.00004540    0.00024383
     atom    4 type  2   force =    -0.00005904    0.00012378    0.00010802
     atom    5 type  2   force =    -0.00063479   -0.00018778   -0.00050018
     atom    6 type  2   force =    -0.00041081   -0.00001397   -0.00054324
     atom    7 type  2   force =    -0.00026160   -0.00024882   -0.00073386
     atom    8 type  2   force =    -0.00054796    0.00002717   -0.00049624
     atom    9 type  2   force =    -0.00013508   -0.00055263    0.00020591
     atom   10 type  2   force =    -0.00010632    0.00051549    0.00035729
     atom   11 type  2   force =    -0.00008369   -0.00049998    0.00029548
     atom   12 type  2   force =    -0.00022588    0.00059338    0.00038604
     atom   13 type  2   force =    -0.00051455    0.00132911   -0.00005089
     atom   14 type  2   force =    -0.00074210   -0.00115187   -0.00015435
     atom   15 type  2   force =    -0.00035012    0.00140654   -0.00000031
     atom   16 type  2   force =    -0.00082596   -0.00108578   -0.00009194
     atom   17 type  1   force =    -0.00060459    0.00061524   -0.00029399
     atom   18 type  1   force =    -0.00059964   -0.00051746   -0.00030913
     atom   19 type  1   force =    -0.00085637    0.00089775   -0.00004260
     atom   20 type  1   force =    -0.00046373   -0.00058338   -0.00036378
     atom   21 type  1   force =    -0.00010577   -0.00004684   -0.00056213
     atom   22 type  1   force =    -0.00083267    0.00011470   -0.00018544
     atom   23 type  1   force =    -0.00045929   -0.00036003   -0.00051823
     atom   24 type  1   force =    -0.00100820    0.00021906   -0.00011277
     atom   25 type  1   force =    -0.00060426    0.00009012   -0.00005283
     atom   26 type  1   force =     0.00012178    0.00002340   -0.00045981
     atom   27 type  1   force =    -0.00020515    0.00007961   -0.00026394
     atom   28 type  1   force =     0.00015623    0.00012399   -0.00052515
     atom   29 type  1   force =     0.00058078   -0.00014939   -0.00024728
     atom   30 type  1   force =     0.00070981   -0.00004384   -0.00028571
     atom   31 type  1   force =     0.00067864   -0.00027455   -0.00034807
     atom   32 type  1   force =     0.00066811   -0.00003554   -0.00026865
     atom   33 type  3   force =    -0.00000126   -0.00022157   -0.00016904
     atom   34 type  3   force =    -0.00007497    0.00035120   -0.00019123
     atom   35 type  3   force =     0.00000571   -0.00020989   -0.00016136
     atom   36 type  3   force =    -0.00006184    0.00034395   -0.00018965
     atom   37 type  3   force =    -0.00015564   -0.00014230    0.00001406
     atom   38 type  3   force =    -0.00018058    0.00015004    0.00001172
     atom   39 type  3   force =    -0.00017049   -0.00013854    0.00001124
     atom   40 type  3   force =    -0.00017832    0.00014918    0.00001104
     atom   41 type  3   force =     0.00040473   -0.00021424    0.00060839
     atom   42 type  3   force =     0.00038069    0.00024894    0.00066108
     atom   43 type  3   force =     0.00040381   -0.00021667    0.00061675
     atom   44 type  3   force =     0.00038236    0.00024261    0.00065959
     atom   45 type  1   force =     0.00023530    0.00009309    0.00021366
     atom   46 type  1   force =    -0.00000603   -0.00016365    0.00037951
     atom   47 type  1   force =     0.00008937    0.00010201    0.00030166
     atom   48 type  1   force =    -0.00002788   -0.00018496    0.00040185
     atom   49 type  3   force =    -0.00027410    0.00013591   -0.00016501
     atom   50 type  3   force =    -0.00015532   -0.00017055   -0.00024123
     atom   51 type  3   force =    -0.00020915    0.00015589   -0.00020531
     atom   52 type  3   force =    -0.00016151   -0.00017185   -0.00023523
     atom   53 type  3   force =    -0.00019893    0.00028313    0.00010797
     atom   54 type  3   force =    -0.00019262   -0.00028356    0.00009935
     atom   55 type  3   force =    -0.00019755    0.00028858    0.00009682
     atom   56 type  3   force =    -0.00019160   -0.00028729    0.00009016
     atom   57 type  3   force =    -0.00034050    0.00034314    0.00017909
     atom   58 type  3   force =    -0.00032000   -0.00033630    0.00017483
     atom   59 type  3   force =    -0.00032236    0.00034518    0.00018608
     atom   60 type  3   force =    -0.00031320   -0.00034145    0.00018071
     atom   61 type  1   force =     0.00047496    0.00037725    0.00037094
     atom   62 type  1   force =     0.00067066   -0.00051724    0.00064921
     atom   63 type  1   force =     0.00016789    0.00024302    0.00002629
     atom   64 type  1   force =     0.00075730   -0.00060048    0.00062254
     atom   65 type  1   force =     0.00096134   -0.00012874    0.00107350
     atom   66 type  1   force =     0.00135076   -0.00009082    0.00085628
     atom   67 type  1   force =     0.00123655    0.00003440    0.00129151
     atom   68 type  1   force =     0.00153512   -0.00022190    0.00092467
     atom   69 type  1   force =    -0.00178706   -0.00160895   -0.00239106
     atom   70 type  1   force =    -0.00187492    0.00165464   -0.00254561
     atom   71 type  1   force =    -0.00188804   -0.00166053   -0.00259969
     atom   72 type  1   force =    -0.00190438    0.00167112   -0.00276929
     atom   73 type  1   force =     0.00031304    0.00087883    0.00055108
     atom   74 type  1   force =     0.00025053   -0.00082633    0.00044434
     atom   75 type  1   force =     0.00037529    0.00090581    0.00075117
     atom   76 type  1   force =     0.00021015   -0.00079372    0.00047989
     atom   77 type  3   force =     0.00022913    0.00006774   -0.00016478
     atom   78 type  3   force =     0.00023312   -0.00006857   -0.00016553
     atom   79 type  3   force =     0.00026780    0.00006723   -0.00021993
     atom   80 type  3   force =     0.00024888   -0.00006987   -0.00018179
     atom   81 type  3   force =     0.00060504   -0.00026671    0.00022877
     atom   82 type  3   force =     0.00060681    0.00026546    0.00023322
     atom   83 type  3   force =     0.00059544   -0.00025364    0.00022941
     atom   84 type  3   force =     0.00060859    0.00026379    0.00022932
     atom   85 type  3   force =     0.00034318    0.00034539    0.00019231
     atom   86 type  3   force =     0.00035535   -0.00037118    0.00019451
     atom   87 type  3   force =     0.00034042    0.00033601    0.00018750
     atom   88 type  3   force =     0.00036330   -0.00038783    0.00018358
     atom   89 type  1   force =    -0.00059858   -0.00074480    0.00280968
     atom   90 type  1   force =    -0.00058398    0.00074246    0.00284467
     atom   91 type  1   force =    -0.00061938   -0.00076859    0.00286503
     atom   92 type  1   force =    -0.00054996    0.00074007    0.00293458
     atom   93 type  3   force =     0.00038973    0.00009362   -0.00077785
     atom   94 type  3   force =     0.00038278   -0.00009769   -0.00076713
     atom   95 type  3   force =     0.00039701    0.00009396   -0.00076915
     atom   96 type  3   force =     0.00035655   -0.00009926   -0.00077939
     atom   97 type  3   force =     0.00127110    0.00140421   -0.00137049
     atom   98 type  3   force =     0.00127970   -0.00141916   -0.00137860
     atom   99 type  3   force =     0.00129243    0.00143328   -0.00138770
     atom  100 type  3   force =     0.00128073   -0.00142126   -0.00138411
     atom  101 type  3   force =     0.00011165   -0.00049780   -0.00078478
     atom  102 type  3   force =     0.00011663    0.00051193   -0.00078383
     atom  103 type  3   force =     0.00011265   -0.00049995   -0.00078068
     atom  104 type  3   force =     0.00011271    0.00050870   -0.00077728
     atom  105 type  3   force =     0.00012517   -0.00013565    0.00043281
     atom  106 type  3   force =     0.00012100    0.00014311    0.00042221
     atom  107 type  3   force =     0.00011409   -0.00015689    0.00041167
     atom  108 type  3   force =     0.00013759    0.00013430    0.00042274
     atom  109 type  3   force =    -0.00048707   -0.00027424    0.00063908
     atom  110 type  3   force =    -0.00022351    0.00022596    0.00050219
     atom  111 type  3   force =    -0.00024336   -0.00024263    0.00051128
     atom  112 type  3   force =    -0.00032439    0.00024979    0.00055240

     Total force =     0.013019     Total SCF correction =     0.000188


     Computing stress (Cartesian axis) and pressure

          total   stress  (Ry/bohr**3)                   (kbar)     P=   -1.59
  -0.00000292  -0.00000002  -0.00002071         -0.43     -0.00     -3.05
  -0.00000002  -0.00000883  -0.00000001         -0.00     -1.30     -0.00
  -0.00002071  -0.00000001  -0.00002074         -3.05     -0.00     -3.05


     Writing output data file scf.save
 
     init_run     :     47.44s CPU     49.83s WALL (       1 calls)
     electrons    :   1716.86s CPU   1807.07s WALL (       1 calls)
     forces       :     21.79s CPU     22.07s WALL (       1 calls)
     stress       :    149.40s CPU    149.89s WALL (       1 calls)

     Called by init_run:
     wfcinit      :     35.90s CPU     37.99s WALL (       1 calls)
     potinit      :      4.02s CPU      4.07s WALL (       1 calls)

     Called by electrons:
     c_bands      :   1534.37s CPU   1612.60s WALL (      19 calls)
     sum_band     :    165.26s CPU    174.75s WALL (      19 calls)
     v_of_rho     :      2.78s CPU      3.06s WALL (      20 calls)
     newd         :      6.23s CPU      8.19s WALL (      20 calls)
     PAW_pot      :      7.52s CPU      7.55s WALL (      20 calls)
     mix_rho      :      0.74s CPU      0.97s WALL (      19 calls)

     Called by c_bands:
     init_us_2    :     13.70s CPU     13.76s WALL (     328 calls)
     cegterg      :   1492.50s CPU   1570.66s WALL (     152 calls)

     Called by sum_band:
     sum_band:bec :      0.08s CPU      0.08s WALL (     152 calls)
     addusdens    :      6.79s CPU      8.67s WALL (      19 calls)

     Called by *egterg:
     h_psi        :    904.34s CPU    965.41s WALL (     767 calls)
     s_psi        :    158.82s CPU    158.89s WALL (     767 calls)
     g_psi        :      5.91s CPU      5.91s WALL (     607 calls)
     cdiaghg      :     60.11s CPU     60.29s WALL (     759 calls)

     Called by h_psi:
     h_psi:pot    :    896.27s CPU    957.21s WALL (     767 calls)
     h_psi:calbec :    149.88s CPU    150.25s WALL (     767 calls)
     vloc_psi     :    586.72s CPU    647.22s WALL (     767 calls)
     add_vuspsi   :    159.67s CPU    159.74s WALL (     767 calls)

     General routines
     calbec       :    210.84s CPU    211.33s WALL (     959 calls)
     fft          :      1.55s CPU      2.11s WALL (     284 calls)
     fftw         :    621.08s CPU    687.69s WALL (  189946 calls)
 
     Parallel routines
     fft_scatter  :    115.12s CPU    176.47s WALL (  190230 calls)
 
     PWSCF        : 32m26.75s CPU    34m38.91s WALL

 
   This run was terminated on:   4:52: 2   4Nov2017            

=------------------------------------------------------------------------------=
   JOB DONE.
=------------------------------------------------------------------------------=
