
     Program PWSCF v.6.1 (svn rev. 13369) starts on  4Nov2017 at  4:55:13 

     This program is part of the open-source Quantum ESPRESSO suite
     for quantum simulation of materials; please cite
         "P. Giannozzi et al., J. Phys.:Condens. Matter 21 395502 (2009);
          URL http://www.quantum-espresso.org", 
     in publications or presentations arising from this work. More details at
     http://www.quantum-espresso.org/quote

     Parallel version (MPI), running on     8 processors
     R & G space division:  proc/nbgrp/npool/nimage =       8
     Waiting for input...
     Reading input from standard input

     Current dimensions of program PWSCF are:
     Max number of different atomic species (ntypx) = 10
     Max number of k-points (npk) =  40000
     Max angular momentum in pseudopotentials (lmaxx) =  3
               file C.pbe-n-kjpaw_psl.0.1.UPF: wavefunction(s)  2P renormalized
               file N.pbe-n-kjpaw_psl.0.1.UPF: wavefunction(s)  2P renormalized
               file H.pbe-kjpaw_psl.0.1.UPF: wavefunction(s)  1S renormalized
               file O.pbe-n-kjpaw_psl.0.1.UPF: wavefunction(s)  2P renormalized

     -------------------------------------
     Parameters for Dispersion Correction:
     -------------------------------------
       atom      VdW radius       C_6     

        C          2.744         60.710
        N          2.640         42.670
        H          1.892          4.857
        O          2.536         24.284

     Subspace diagonalization in iterative solution of the eigenvalue problem:
     a serial algorithm will be used

 
     Parallelization info
     --------------------
     sticks:   dense  smooth     PW     G-vecs:    dense   smooth      PW
     Min        2166    2166    584               162741   162741   22794
     Max        2167    2167    585               162743   162743   22796
     Sum       17329   17329   4679              1301931  1301931  182361
 


     bravais-lattice index     =            0
     lattice parameter (alat)  =      59.4224  a.u.
     unit-cell volume          =    9638.4585 (a.u.)^3
     number of atoms/cell      =          144
     number of atomic types    =            4
     number of electrons       =       528.00
     number of Kohn-Sham states=          316
     kinetic-energy cutoff     =     100.0000  Ry
     charge density cutoff     =     400.0000  Ry
     convergence threshold     =      1.0E-08
     mixing beta               =       0.5000
     number of iterations used =            8  plain     mixing
     Exchange-correlation      =  SLA  PW   PBX  PBC ( 1  4  3  4 0 0)

     celldm(1)=  59.422438  celldm(2)=   0.000000  celldm(3)=   0.000000
     celldm(4)=   0.000000  celldm(5)=   0.000000  celldm(6)=   0.000000

     crystal axes: (cart. coord. in units of alat)
               a(1) = (   1.000000   0.000000   0.000000 )  
               a(2) = (   0.000000   0.153977   0.000000 )  
               a(3) = (  -0.044959   0.000000   0.298333 )  

     reciprocal axes: (cart. coord. in units 2 pi/alat)
               b(1) = (  1.000000  0.000000  0.150700 )  
               b(2) = (  0.000000  6.494486  0.000000 )  
               b(3) = (  0.000000  0.000000  3.351962 )  


     PseudoPot. # 1 for  C read from file:
     /scratch/ahofstet/pseudo/C.pbe-n-kjpaw_psl.0.1.UPF
     MD5 check sum: 430fe95172b1e11ef3f8ed03bac87931
     Pseudo is Projector augmented-wave + core cor, Zval =  4.0
     Generated using "atomic" code by A. Dal Corso  v.5.0.99 svn rev. 10869
     Shape of augmentation charge: BESSEL
     Using radial grid of 1073 points,  4 beta functions with: 
                l(1) =   0
                l(2) =   0
                l(3) =   1
                l(4) =   1
     Q(r) pseudized with 0 coefficients 


     PseudoPot. # 2 for  N read from file:
     /scratch/ahofstet/pseudo/N.pbe-n-kjpaw_psl.0.1.UPF
     MD5 check sum: f73187c8b701007e77325f868c9291d7
     Pseudo is Projector augmented-wave + core cor, Zval =  5.0
     Generated using "atomic" code by A. Dal Corso  v.5.0.99 svn rev. 10869
     Shape of augmentation charge: PSQ
     Using radial grid of 1085 points,  4 beta functions with: 
                l(1) =   0
                l(2) =   0
                l(3) =   1
                l(4) =   1
     Q(r) pseudized with 0 coefficients 


     PseudoPot. # 3 for  H read from file:
     /scratch/ahofstet/pseudo/H.pbe-kjpaw_psl.0.1.UPF
     MD5 check sum: 94e484f906d9e9773b2f6e52662335b2
     Pseudo is Projector augmented-wave, Zval =  1.0
     Generated using "atomic" code by A. Dal Corso  v.5.0.99 svn rev. 10869
     Shape of augmentation charge: PSQ
     Using radial grid of  929 points,  2 beta functions with: 
                l(1) =   0
                l(2) =   0
     Q(r) pseudized with 0 coefficients 


     PseudoPot. # 4 for  O read from file:
     /scratch/ahofstet/pseudo/O.pbe-n-kjpaw_psl.0.1.UPF
     MD5 check sum: 3f94a2996a3169367d6eb21d9b593f20
     Pseudo is Projector augmented-wave + core cor, Zval =  6.0
     Generated using "atomic" code by A. Dal Corso  v.5.0.99 svn rev. 10869
     Shape of augmentation charge: BESSEL
     Using radial grid of 1095 points,  4 beta functions with: 
                l(1) =   0
                l(2) =   0
                l(3) =   1
                l(4) =   1
     Q(r) pseudized with 0 coefficients 


     atomic species   valence    mass     pseudopotential
        C              4.00    12.01070      C( 1.00)
        N              5.00    14.00670      N( 1.00)
        H              1.00     1.00794      H( 1.00)
        O              6.00    15.99940      O( 1.00)

      2 Sym. Ops., with inversion, found



   Cartesian axes

     site n.     atom                  positions (alat units)
         1           N   tau(   1) = (   0.0759840   0.1132689   0.0357842  )
         2           N   tau(   2) = (   0.5759854   0.0362377   0.0357954  )
         3           N   tau(   3) = (   0.9015318   0.1132666   0.1133842  )
         4           N   tau(   4) = (   0.4015340   0.0362355   0.1133701  )
         5           N   tau(   5) = (   0.8790572   0.0407079   0.2625485  )
         6           N   tau(   6) = (   0.3790558   0.1177391   0.2625374  )
         7           N   tau(   7) = (   0.0535094   0.0407102   0.1849486  )
         8           N   tau(   8) = (   0.5535072   0.1177413   0.1849626  )
         9           N   tau(   9) = (   0.0663465   0.0788345   0.0080465  )
        10           N   tau(  10) = (   0.5663384   0.0018071   0.0080506  )
        11           N   tau(  11) = (   0.9111746   0.0788346   0.1411220  )
        12           N   tau(  12) = (   0.4111821   0.0018076   0.1411164  )
        13           N   tau(  13) = (   0.8886947   0.0751423   0.2902863  )
        14           N   tau(  14) = (   0.3887028   0.1521697   0.2902821  )
        15           N   tau(  15) = (   0.0438665   0.0751422   0.1572108  )
        16           N   tau(  16) = (   0.5438590   0.1521692   0.1572164  )
        17           O   tau(  17) = (   0.0467191   0.1376337   0.0458945  )
        18           O   tau(  18) = (   0.5467240   0.0606035   0.0459108  )
        19           O   tau(  19) = (   0.9308032   0.1376348   0.1032704  )
        20           O   tau(  20) = (   0.4307970   0.0606054   0.1032568  )
        21           O   tau(  21) = (   0.9083221   0.0163431   0.2524383  )
        22           O   tau(  22) = (   0.4083171   0.0933733   0.2524219  )
        23           O   tau(  23) = (   0.0242380   0.0163420   0.1950624  )
        24           O   tau(  24) = (   0.5242441   0.0933714   0.1950759  )
        25           O   tau(  25) = (   0.0604444   0.0591157   0.2972178  )
        26           O   tau(  26) = (   0.5604363   0.1360624   0.2972152  )
        27           O   tau(  27) = (   0.8721182   0.0591149   0.1502817  )
        28           O   tau(  28) = (   0.3721255   0.1360625   0.1502824  )
        29           O   tau(  29) = (   0.8945968   0.0948610   0.0011150  )
        30           O   tau(  30) = (   0.3946048   0.0179144   0.0011176  )
        31           O   tau(  31) = (   0.0829230   0.0948619   0.1480511  )
        32           O   tau(  32) = (   0.5829157   0.0179142   0.1480504  )
        33           C   tau(  33) = (   0.1172181   0.1112665   0.0481250  )
        34           C   tau(  34) = (   0.6172180   0.0342276   0.0481297  )
        35           C   tau(  35) = (   0.8603046   0.1112656   0.1010406  )
        36           C   tau(  36) = (   0.3603037   0.0342274   0.1010359  )
        37           C   tau(  37) = (   0.8378231   0.0427103   0.2502078  )
        38           C   tau(  38) = (   0.3378232   0.1197492   0.2502031  )
        39           C   tau(  39) = (   0.0947365   0.0427111   0.1972921  )
        40           C   tau(  40) = (   0.5947374   0.1197494   0.1972968  )
        41           C   tau(  41) = (   0.1374523   0.0772963   0.0246130  )
        42           C   tau(  42) = (   0.6374471   0.0002519   0.0246170  )
        43           C   tau(  43) = (   0.8400695   0.0772979   0.1245527  )
        44           C   tau(  44) = (   0.3400703   0.0002523   0.1245510  )
        45           C   tau(  45) = (   0.8175889   0.0766805   0.2737197  )
        46           C   tau(  46) = (   0.3175941   0.1537249   0.2737157  )
        47           C   tau(  47) = (   0.1149716   0.0766789   0.1737800  )
        48           C   tau(  48) = (   0.6149709   0.1537245   0.1737817  )
        49           O   tau(  49) = (   0.1730065   0.0630706   0.0230140  )
        50           O   tau(  50) = (   0.6729957   0.1399992   0.0230206  )
        51           O   tau(  51) = (   0.8045139   0.0630707   0.1261524  )
        52           O   tau(  52) = (   0.3045270   0.1399992   0.1261459  )
        53           O   tau(  53) = (   0.7820347   0.0909062   0.2753187  )
        54           O   tau(  54) = (   0.2820455   0.0139775   0.2753121  )
        55           O   tau(  55) = (   0.1505273   0.0909061   0.1721804  )
        56           O   tau(  56) = (   0.6505142   0.0139775   0.1721868  )
        57           C   tau(  57) = (   0.1349588   0.1430735   0.0774252  )
        58           C   tau(  58) = (   0.6349604   0.0660424   0.0774219  )
        59           C   tau(  59) = (   0.8425601   0.1430703   0.0717426  )
        60           C   tau(  60) = (   0.3425595   0.0660413   0.0717444  )
        61           C   tau(  61) = (   0.8200824   0.0109033   0.2209076  )
        62           C   tau(  62) = (   0.3200808   0.0879344   0.2209108  )
        63           C   tau(  63) = (   0.1124811   0.0109065   0.2265901  )
        64           C   tau(  64) = (   0.6124817   0.0879355   0.2265883  )
        65           O   tau(  65) = (   0.1142778   0.0185860   0.0922447  )
        66           O   tau(  66) = (   0.6142772   0.0955284   0.0922442  )
        67           O   tau(  67) = (   0.8632448   0.0185907   0.0569205  )
        68           O   tau(  68) = (   0.3632434   0.0955289   0.0569216  )
        69           O   tau(  69) = (   0.8407633   0.1353907   0.2060880  )
        70           O   tau(  70) = (   0.3407639   0.0584484   0.2060886  )
        71           O   tau(  71) = (   0.0917964   0.1353861   0.2414122  )
        72           O   tau(  72) = (   0.5917978   0.0584479   0.2414112  )
        73           O   tau(  73) = (   0.1765031   0.1360609   0.0848723  )
        74           O   tau(  74) = (   0.6765036   0.0590292   0.0848679  )
        75           O   tau(  75) = (   0.8010179   0.1360619   0.0642938  )
        76           O   tau(  76) = (   0.3010164   0.0590297   0.0642989  )
        77           O   tau(  77) = (   0.7785381   0.0179159   0.2134605  )
        78           O   tau(  78) = (   0.2785376   0.0949475   0.2134649  )
        79           O   tau(  79) = (   0.1540233   0.0179148   0.2340389  )
        80           O   tau(  80) = (   0.6540247   0.0949471   0.2340338  )
        81           C   tau(  81) = (   0.1965972   0.0150163   0.1101428  )
        82           C   tau(  82) = (   0.6965881   0.0919733   0.1101247  )
        83           C   tau(  83) = (   0.7809232   0.0150163   0.0390230  )
        84           C   tau(  84) = (   0.2809325   0.0919733   0.0390408  )
        85           C   tau(  85) = (   0.7584440   0.1389604   0.1881900  )
        86           C   tau(  86) = (   0.2584531   0.0620035   0.1882080  )
        87           C   tau(  87) = (   0.1741180   0.1389605   0.2593098  )
        88           C   tau(  88) = (   0.6741087   0.0620035   0.2592919  )
        89           H   tau(  89) = (   0.2307485   0.0087776   0.1078022  )
        90           H   tau(  90) = (   0.7307418   0.0857502   0.1077924  )
        91           H   tau(  91) = (   0.7467717   0.0087776   0.0413643  )
        92           H   tau(  92) = (   0.2467785   0.0857509   0.0413739  )
        93           H   tau(  93) = (   0.7242927   0.1451992   0.1905305  )
        94           H   tau(  94) = (   0.2242994   0.0682266   0.1905404  )
        95           H   tau(  95) = (   0.2082695   0.1451992   0.2569685  )
        96           H   tau(  96) = (   0.7082627   0.0682259   0.2569589  )
        97           H   tau(  97) = (   0.1856361   0.0123688   0.1431772  )
        98           H   tau(  98) = (   0.6856208   0.0893359   0.1431562  )
        99           H   tau(  99) = (   0.7918849   0.0123684   0.0059884  )
       100           H   tau( 100) = (   0.2919001   0.0893358   0.0060089  )
       101           H   tau( 101) = (   0.7694051   0.1416080   0.1551556  )
       102           H   tau( 102) = (   0.2694203   0.0646408   0.1551765  )
       103           H   tau( 103) = (   0.1631563   0.1416084   0.2923443  )
       104           H   tau( 104) = (   0.6631411   0.0646410   0.2923238  )
       105           H   tau( 105) = (   0.1882334   0.0466544   0.0972940  )
       106           H   tau( 106) = (   0.6882138   0.1236053   0.0972659  )
       107           H   tau( 107) = (   0.7892870   0.0466541   0.0518726  )
       108           H   tau( 108) = (   0.2893068   0.1236050   0.0519007  )
       109           H   tau( 109) = (   0.7668077   0.1073224   0.2010388  )
       110           H   tau( 110) = (   0.2668274   0.0303714   0.2010669  )
       111           H   tau( 111) = (   0.1657542   0.1073227   0.2464601  )
       112           H   tau( 112) = (   0.6657344   0.0303718   0.2464321  )
       113           C   tau( 113) = (   0.0000127   0.0926316   0.2670554  )
       114           C   tau( 114) = (   0.5000207   0.0156351   0.2670607  )
       115           C   tau( 115) = (   0.9325496   0.0926314   0.1804447  )
       116           C   tau( 116) = (   0.4325414   0.0156347   0.1804388  )
       117           C   tau( 117) = (   0.9550285   0.0613452   0.0312773  )
       118           C   tau( 118) = (   0.4550205   0.1383416   0.0312721  )
       119           C   tau( 119) = (   0.0224916   0.0613454   0.1178881  )
       120           C   tau( 120) = (   0.5224997   0.1383421   0.1178939  )
       121           H   tau( 121) = (  -0.0287273   0.1097737   0.2765863  )
       122           H   tau( 122) = (   0.4712812   0.0327770   0.2765965  )
       123           H   tau( 123) = (   0.9612895   0.1097739   0.1709118  )
       124           H   tau( 124) = (   0.4612803   0.0327766   0.1709025  )
       125           H   tau( 125) = (   0.9837685   0.0442031   0.0217465  )
       126           H   tau( 126) = (   0.4837600   0.1211998   0.0217363  )
       127           H   tau( 127) = (  -0.0062484   0.0442029   0.1274209  )
       128           H   tau( 128) = (   0.4937608   0.1212002   0.1274302  )
       129           H   tau( 129) = (   0.0213377   0.1131103   0.2484554  )
       130           H   tau( 130) = (   0.5213528   0.0361254   0.2484789  )
       131           H   tau( 131) = (   0.9112231   0.1131104   0.1990433  )
       132           H   tau( 132) = (   0.4112084   0.0361253   0.1990202  )
       133           H   tau( 133) = (   0.9337035   0.0408665   0.0498773  )
       134           H   tau( 134) = (   0.4336884   0.1178514   0.0498539  )
       135           H   tau( 135) = (   0.0438180   0.0408664   0.0992895  )
       136           H   tau( 136) = (   0.5438328   0.1178515   0.0993126  )
       137           H   tau( 137) = (  -0.0085618   0.0638387   0.2497161  )
       138           H   tau( 138) = (   0.4914456   0.1408332   0.2497009  )
       139           H   tau( 139) = (   0.9411233   0.0638384   0.1977828  )
       140           H   tau( 140) = (   0.4411166   0.1408327   0.1977991  )
       141           H   tau( 141) = (   0.9636030   0.0901381   0.0486166  )
       142           H   tau( 142) = (   0.4635956   0.0131436   0.0486319  )
       143           H   tau( 143) = (   0.0139179   0.0901384   0.1005499  )
       144           H   tau( 144) = (   0.5139246   0.0131441   0.1005336  )

     number of k points=     6
                       cart. coord. in units 2pi/alat
        k(    1) = (   0.0000000   0.0000000   0.0000000), wk =   0.2500000
        k(    2) = (   0.0000000   0.0000000  -1.6759809), wk =   0.2500000
        k(    3) = (   0.0000000   1.6236214   0.0000000), wk =   0.5000000
        k(    4) = (   0.0000000   1.6236214  -1.6759809), wk =   0.5000000
        k(    5) = (   0.0000000  -3.2472428   0.0000000), wk =   0.2500000
        k(    6) = (   0.0000000  -3.2472428  -1.6759809), wk =   0.2500000

     Dense  grid:  1301931 G-vectors     FFT dimensions: ( 384,  60, 120)

     Estimated max dynamical RAM per process >    1889.00MB

     Estimated total allocated dynamical RAM >   15111.96MB

     Check: negative/imaginary core charge=   -0.000003    0.000000

     Initial potential from superposition of free atoms

     starting charge  527.99770, renormalised to  528.00000
     Starting wfc are  432 randomized atomic wfcs
     Checking if some PAW data can be deallocated... 

     total cpu time spent up to now is       92.6 secs

     per-process dynamical memory:  1155.0 Mb

     Self-consistent Calculation

     iteration #  1     ecut=   100.00 Ry     beta=0.50
     Davidson diagonalization with overlap
     ethr =  1.00E-02,  avg # of iterations =  3.3

     total cpu time spent up to now is      369.0 secs

     total energy              =   -2907.08026836 Ry
     Harris-Foulkes estimate   =   -2914.94598512 Ry
     estimated scf accuracy    <      14.49344640 Ry

     iteration #  2     ecut=   100.00 Ry     beta=0.50
     Davidson diagonalization with overlap
     ethr =  2.74E-03,  avg # of iterations =  4.8

     total cpu time spent up to now is      557.9 secs

     total energy              =   -2908.13076907 Ry
     Harris-Foulkes estimate   =   -2911.49974315 Ry
     estimated scf accuracy    <       7.33774451 Ry

     iteration #  3     ecut=   100.00 Ry     beta=0.50
     Davidson diagonalization with overlap
     ethr =  1.39E-03,  avg # of iterations =  7.3

     total cpu time spent up to now is      757.4 secs

     total energy              =   -2909.66587570 Ry
     Harris-Foulkes estimate   =   -2911.07324863 Ry
     estimated scf accuracy    <       3.97002058 Ry

     iteration #  4     ecut=   100.00 Ry     beta=0.50
     Davidson diagonalization with overlap
     ethr =  7.52E-04,  avg # of iterations =  7.5

     total cpu time spent up to now is      937.9 secs

     total energy              =   -2910.20593413 Ry
     Harris-Foulkes estimate   =   -2910.48282439 Ry
     estimated scf accuracy    <       0.74319150 Ry

     iteration #  5     ecut=   100.00 Ry     beta=0.50
     Davidson diagonalization with overlap
     ethr =  1.41E-04,  avg # of iterations =  8.0

     total cpu time spent up to now is     1133.3 secs

     total energy              =   -2910.34812379 Ry
     Harris-Foulkes estimate   =   -2910.39635426 Ry
     estimated scf accuracy    <       0.12814621 Ry

     iteration #  6     ecut=   100.00 Ry     beta=0.50
     Davidson diagonalization with overlap
     ethr =  2.43E-05,  avg # of iterations =  8.7

     total cpu time spent up to now is     1387.3 secs

     total energy              =   -2910.38351583 Ry
     Harris-Foulkes estimate   =   -2910.39407569 Ry
     estimated scf accuracy    <       0.03027010 Ry

     iteration #  7     ecut=   100.00 Ry     beta=0.50
     Davidson diagonalization with overlap
     ethr =  5.73E-06,  avg # of iterations =  2.2

     total cpu time spent up to now is     1537.2 secs

     total energy              =   -2910.38785585 Ry
     Harris-Foulkes estimate   =   -2910.38902944 Ry
     estimated scf accuracy    <       0.00313154 Ry

     iteration #  8     ecut=   100.00 Ry     beta=0.50
     Davidson diagonalization with overlap
     ethr =  5.93E-07,  avg # of iterations =  6.2

     total cpu time spent up to now is     1828.9 secs

     total energy              =   -2910.38922852 Ry
     Harris-Foulkes estimate   =   -2910.38959543 Ry
     estimated scf accuracy    <       0.00106746 Ry

     iteration #  9     ecut=   100.00 Ry     beta=0.50
     Davidson diagonalization with overlap
     ethr =  2.02E-07,  avg # of iterations =  2.0

     total cpu time spent up to now is     1973.7 secs

     total energy              =   -2910.38930792 Ry
     Harris-Foulkes estimate   =   -2910.38936497 Ry
     estimated scf accuracy    <       0.00015543 Ry

     iteration # 10     ecut=   100.00 Ry     beta=0.50
     Davidson diagonalization with overlap
     ethr =  2.94E-08,  avg # of iterations =  4.0

     total cpu time spent up to now is     2239.5 secs

     total energy              =   -2910.38938395 Ry
     Harris-Foulkes estimate   =   -2910.38940812 Ry
     estimated scf accuracy    <       0.00006882 Ry

     iteration # 11     ecut=   100.00 Ry     beta=0.50
     Davidson diagonalization with overlap
     ethr =  1.30E-08,  avg # of iterations =  1.3

     total cpu time spent up to now is     2378.1 secs

     total energy              =   -2910.38938331 Ry
     Harris-Foulkes estimate   =   -2910.38938920 Ry
     estimated scf accuracy    <       0.00001355 Ry

     iteration # 12     ecut=   100.00 Ry     beta=0.50
     Davidson diagonalization with overlap
     ethr =  2.57E-09,  avg # of iterations =  4.0

     total cpu time spent up to now is     2631.0 secs

     total energy              =   -2910.38939148 Ry
     Harris-Foulkes estimate   =   -2910.38939367 Ry
     estimated scf accuracy    <       0.00000679 Ry

     iteration # 13     ecut=   100.00 Ry     beta=0.50
     Davidson diagonalization with overlap
     ethr =  1.29E-09,  avg # of iterations =  1.7

     total cpu time spent up to now is     2770.7 secs

     total energy              =   -2910.38939142 Ry
     Harris-Foulkes estimate   =   -2910.38939218 Ry
     estimated scf accuracy    <       0.00000283 Ry

     iteration # 14     ecut=   100.00 Ry     beta=0.50
     Davidson diagonalization with overlap
     ethr =  5.36E-10,  avg # of iterations =  3.0

     total cpu time spent up to now is     2938.9 secs

     total energy              =   -2910.38939185 Ry
     Harris-Foulkes estimate   =   -2910.38939201 Ry
     estimated scf accuracy    <       0.00000039 Ry

     iteration # 15     ecut=   100.00 Ry     beta=0.50
     Davidson diagonalization with overlap
     ethr =  7.31E-11,  avg # of iterations =  3.8

     total cpu time spent up to now is     3152.9 secs

     total energy              =   -2910.38939197 Ry
     Harris-Foulkes estimate   =   -2910.38939199 Ry
     estimated scf accuracy    <       0.00000006 Ry

     iteration # 16     ecut=   100.00 Ry     beta=0.50
     Davidson diagonalization with overlap
     ethr =  1.05E-11,  avg # of iterations =  3.0

     total cpu time spent up to now is     3315.5 secs

     total energy              =   -2910.38939198 Ry
     Harris-Foulkes estimate   =   -2910.38939198 Ry
     estimated scf accuracy    <       0.00000002 Ry

     iteration # 17     ecut=   100.00 Ry     beta=0.50
     Davidson diagonalization with overlap
     ethr =  3.57E-12,  avg # of iterations =  3.0

     total cpu time spent up to now is     3477.4 secs

     End of self-consistent calculation

          k = 0.0000 0.0000 0.0000 (162755 PWs)   bands (ev):

   -23.7208 -23.7203 -23.7184 -23.7178 -23.7032 -23.7027 -23.7014 -23.7009
   -21.9324 -21.9322 -21.9316 -21.9314 -21.9159 -21.9158 -21.9157 -21.9157
   -20.9104 -20.9104 -20.9073 -20.9072 -20.9010 -20.9009 -20.8987 -20.8987
   -19.6729 -19.6727 -19.6692 -19.6690 -19.6618 -19.6615 -19.6584 -19.6581
   -18.6633 -18.6632 -18.6612 -18.6612 -18.6599 -18.6598 -18.6581 -18.6581
   -16.4483 -16.4482 -16.4475 -16.4474 -16.4307 -16.4299 -16.4273 -16.4265
   -15.3532 -15.3518 -15.3390 -15.3378 -15.3083 -15.3068 -15.3062 -15.3052
   -11.9687 -11.9387 -11.9359 -11.9328 -11.9303 -11.9270 -11.8989 -11.8645
   -10.8601 -10.8274 -10.7960 -10.7893 -10.7815 -10.7588 -10.7404 -10.6911
   -10.0753 -10.0439 -10.0289 -10.0125 -10.0064 -10.0008  -9.9993  -9.9875
    -9.2277  -9.1935  -9.1568  -9.1264  -9.0944  -9.0915  -9.0526  -9.0495
    -7.9881  -7.9744  -7.9121  -7.9045  -7.8984  -7.8797  -7.7989  -7.7882
    -6.8991  -6.8937  -6.7398  -6.7388  -6.6634  -6.6625  -6.6522  -6.6504
    -6.4714  -6.4070  -6.3919  -6.3759  -6.3431  -6.3393  -6.3200  -6.3049
    -6.1587  -6.1568  -6.1560  -6.1516  -6.1074  -6.1000  -6.0789  -6.0746
    -5.7741  -5.7328  -5.6321  -5.6203  -5.6082  -5.5926  -5.5751  -5.5637
    -5.1425  -5.1358  -5.1132  -5.1131  -5.1123  -5.0903  -5.0759  -5.0635
    -4.8213  -4.8191  -4.7394  -4.7329  -4.7084  -4.7028  -4.6527  -4.6521
    -4.5448  -4.5269  -4.4926  -4.4890  -4.4219  -4.4157  -4.3762  -4.3699
    -4.3283  -4.3116  -4.3051  -4.2873  -4.2144  -4.2060  -4.2055  -4.2049
    -4.1515  -4.1353  -4.1336  -4.1105  -4.0813  -4.0457  -4.0311  -4.0119
    -3.9353  -3.9239  -3.8956  -3.8863  -3.8448  -3.7893  -3.6810  -3.6381
    -3.4227  -3.4194  -3.3920  -3.3886  -3.3687  -3.3547  -3.3062  -3.3004
    -3.2872  -3.2641  -3.1916  -3.1834  -3.0585  -3.0556  -3.0339  -3.0168
    -2.6672  -2.6571  -2.6383  -2.6383  -2.6208  -2.6011  -2.5852  -2.5697
    -2.2148  -2.2074  -2.1986  -2.1971  -2.0986  -2.0929  -2.0912  -2.0793
    -1.9405  -1.9401  -1.7860  -1.7827  -1.5954  -1.5942  -1.5905  -1.5846
    -0.8894  -0.8800  -0.8510  -0.8476  -0.8419  -0.8334  -0.8309  -0.8173
    -0.6626  -0.6589  -0.6230  -0.6203  -0.3886  -0.3885  -0.3238  -0.3234
    -0.2717  -0.2546  -0.2279  -0.2124  -0.1772  -0.1720  -0.1569  -0.1505
    -0.0706  -0.0627  -0.0578  -0.0504   0.0005   0.0069   0.0133   0.0203
     0.1744   0.1768   0.1779   0.1785   0.1815   0.1868   0.1870   0.1918
     0.4204   0.4220   0.4245   0.4290   0.4824   0.4863   0.4995   0.5000
     3.3987   3.4041   3.4553   3.4610   3.5595   3.5607   3.5756   3.5768
     5.4948   5.4986   5.5026   5.5063   5.7235   5.7308   5.7445   5.7520
     6.8445   6.8518   6.8904   6.9357   6.9662   6.9789   6.9935   7.0686
     7.1514   7.2042   7.5106   7.5803   7.6717   7.6882   7.7068   7.7268
     7.7302   7.8385   7.8386   7.8564   7.9673   8.0189   8.1456   8.1571
     8.1927   8.2030   8.2119   8.2233   8.2531   8.2887   8.3481   8.3524
     8.4054   8.4093   8.4432   8.4764

          k = 0.0000 0.0000-1.6760 (162820 PWs)   bands (ev):

   -23.7130 -23.7121 -23.7112 -23.7111 -23.7108 -23.7099 -23.7091 -23.7089
   -21.9250 -21.9247 -21.9244 -21.9241 -21.9233 -21.9230 -21.9230 -21.9227
   -20.9058 -20.9058 -20.9057 -20.9057 -20.9031 -20.9031 -20.9030 -20.9029
   -19.6684 -19.6682 -19.6662 -19.6660 -19.6640 -19.6638 -19.6635 -19.6633
   -18.6624 -18.6623 -18.6620 -18.6620 -18.6598 -18.6598 -18.6583 -18.6583
   -16.4396 -16.4396 -16.4390 -16.4387 -16.4380 -16.4379 -16.4373 -16.4370
   -15.3468 -15.3453 -15.3451 -15.3449 -15.3074 -15.3059 -15.3057 -15.3055
   -11.9610 -11.9606 -11.9391 -11.9388 -11.9120 -11.9116 -11.8879 -11.8875
   -10.8411 -10.8407 -10.8158 -10.8156 -10.7459 -10.7458 -10.7206 -10.7202
   -10.0446 -10.0445 -10.0272 -10.0271 -10.0089 -10.0087  -9.9958  -9.9957
    -9.1640  -9.1637  -9.1407  -9.1407  -9.1076  -9.1076  -9.0863  -9.0860
    -7.9476  -7.9473  -7.9471  -7.9469  -7.8434  -7.8433  -7.8431  -7.8429
    -6.8338  -6.8336  -6.8289  -6.8286  -6.6459  -6.6456  -6.6425  -6.6423
    -6.4043  -6.4041  -6.3940  -6.3939  -6.3334  -6.3333  -6.3239  -6.3238
    -6.1318  -6.1310  -6.1285  -6.1278  -6.1213  -6.1205  -6.1199  -6.1192
    -5.7073  -5.7072  -5.6756  -5.6754  -5.6019  -5.6018  -5.5610  -5.5609
    -5.0698  -5.0696  -5.0631  -5.0628  -5.0268  -5.0266  -5.0217  -5.0216
    -4.8965  -4.8964  -4.8756  -4.8756  -4.8186  -4.8185  -4.7969  -4.7968
    -4.4850  -4.4849  -4.4752  -4.4752  -4.3967  -4.3967  -4.3788  -4.3787
    -4.2785  -4.2783  -4.2495  -4.2494  -4.2036  -4.2034  -4.1985  -4.1982
    -4.1677  -4.1677  -4.1532  -4.1530  -4.0672  -4.0672  -4.0089  -4.0089
    -3.8734  -3.8733  -3.8347  -3.8347  -3.7612  -3.7611  -3.7588  -3.7587
    -3.3946  -3.3944  -3.3902  -3.3900  -3.3436  -3.3435  -3.3202  -3.3201
    -3.2547  -3.2547  -3.2299  -3.2299  -3.0214  -3.0214  -3.0118  -3.0118
    -2.6608  -2.6607  -2.6401  -2.6398  -2.6173  -2.6170  -2.6008  -2.6007
    -2.1681  -2.1680  -2.1418  -2.1417  -2.1401  -2.1399  -2.1128  -2.1128
    -1.8643  -1.8643  -1.8618  -1.8617  -1.5990  -1.5990  -1.5969  -1.5969
    -0.8827  -0.8824  -0.8605  -0.8599  -0.8439  -0.8434  -0.8216  -0.8214
    -0.5298  -0.5298  -0.5280  -0.5279  -0.4855  -0.4854  -0.4853  -0.4853
    -0.2263  -0.2262  -0.2096  -0.2095  -0.1844  -0.1843  -0.1681  -0.1681
    -0.0669  -0.0668  -0.0646  -0.0644  -0.0351  -0.0350  -0.0349  -0.0347
     0.1872   0.1879   0.1890   0.1894   0.1983   0.1987   0.1994   0.2000
     0.4321   0.4323   0.4366   0.4368   0.5009   0.5011   0.5045   0.5048
     3.4800   3.4806   3.4822   3.4823   3.5016   3.5020   3.5039   3.5041
     5.6232   5.6235   5.6255   5.6259   5.6359   5.6363   5.6383   5.6386
     6.9323   6.9323   6.9594   6.9594   7.0797   7.0798   7.1230   7.1231
     7.1989   7.1991   7.2012   7.2012   7.6843   7.6843   7.7188   7.7189
     7.8236   7.8236   7.8751   7.8752   7.9763   7.9765   8.0272   8.0274
     8.1347   8.1351   8.1549   8.1549   8.2619   8.2620   8.3178   8.3179
     8.5465   8.5467   8.6201   8.6203

          k = 0.0000 1.6236 0.0000 (162813 PWs)   bands (ev):

   -23.7077 -23.7072 -23.7057 -23.7052 -23.6926 -23.6921 -23.6913 -23.6908
   -21.9468 -21.9466 -21.9459 -21.9457 -21.9314 -21.9313 -21.9312 -21.9312
   -20.9002 -20.9002 -20.8979 -20.8979 -20.8927 -20.8926 -20.8909 -20.8909
   -19.6782 -19.6779 -19.6744 -19.6741 -19.6725 -19.6721 -19.6692 -19.6688
   -18.6616 -18.6616 -18.6596 -18.6596 -18.6579 -18.6579 -18.6559 -18.6559
   -16.4520 -16.4515 -16.4512 -16.4507 -16.4389 -16.4381 -16.4357 -16.4349
   -15.3497 -15.3486 -15.3374 -15.3363 -15.3098 -15.3084 -15.3068 -15.3058
   -11.9687 -11.9652 -11.9414 -11.9394 -11.9315 -11.9202 -11.9015 -11.8911
   -10.8689 -10.8281 -10.8124 -10.8121 -10.7872 -10.7633 -10.7260 -10.6935
   -10.0498 -10.0381 -10.0210 -10.0037 -10.0026 -10.0013  -9.9917  -9.9834
    -9.1856  -9.1766  -9.1297  -9.1146  -9.0757  -9.0704  -9.0621  -9.0608
    -7.9653  -7.9556  -7.9470  -7.9382  -7.8419  -7.8379  -7.8306  -7.8282
    -6.9868  -6.9821  -6.8473  -6.8450  -6.7863  -6.7850  -6.7618  -6.7609
    -6.4597  -6.4409  -6.4209  -6.4171  -6.3773  -6.3581  -6.3508  -6.3176
    -6.1959  -6.1952  -6.1452  -6.1440  -6.1391  -6.1321  -6.1099  -6.1044
    -5.7606  -5.7407  -5.6737  -5.6594  -5.6425  -5.6284  -5.5823  -5.5559
    -5.1176  -5.0978  -5.0966  -5.0869  -5.0077  -4.9873  -4.9862  -4.9498
    -4.8924  -4.8831  -4.8830  -4.8703  -4.7896  -4.7844  -4.7788  -4.7670
    -4.4892  -4.4460  -4.4451  -4.4338  -4.3799  -4.3528  -4.3215  -4.3085
    -4.2995  -4.2956  -4.2842  -4.2800  -4.2371  -4.2364  -4.2313  -4.2106
    -4.1845  -4.1658  -4.1285  -4.1159  -4.0629  -4.0527  -3.9993  -3.9975
    -3.9137  -3.8993  -3.7855  -3.7625  -3.7620  -3.7528  -3.5872  -3.5625
    -3.4361  -3.4350  -3.4258  -3.4116  -3.3965  -3.3828  -3.3094  -3.3068
    -3.2498  -3.2214  -3.1973  -3.1755  -3.0971  -3.0836  -3.0595  -3.0548
    -2.6542  -2.6494  -2.6484  -2.6475  -2.6161  -2.6090  -2.6053  -2.6007
    -2.1434  -2.1281  -2.1260  -2.1148  -2.0203  -2.0170  -2.0014  -1.9923
    -1.7789  -1.7767  -1.6099  -1.6075  -1.5330  -1.5263  -1.4774  -1.4758
    -0.9185  -0.8944  -0.8939  -0.8805  -0.8731  -0.8531  -0.8491  -0.8225
    -0.5806  -0.5806  -0.5493  -0.5490  -0.3019  -0.3012  -0.2895  -0.2823
    -0.2723  -0.2450  -0.2416  -0.2263  -0.1371  -0.1314  -0.1000  -0.0983
    -0.0336  -0.0316  -0.0213  -0.0207   0.0426   0.0507   0.0513   0.0620
     0.1958   0.2001   0.2040   0.2041   0.2212   0.2247   0.2265   0.2285
     0.4075   0.4081   0.4084   0.4087   0.4825   0.4832   0.5129   0.5150
     3.4122   3.4147   3.4631   3.4657   3.5453   3.5471   3.5705   3.5723
     5.3607   5.3639   5.3668   5.3701   5.4962   5.5021   5.5064   5.5126
     6.8470   6.8537   6.9209   6.9560   7.0689   7.0720   7.0745   7.0789
     7.2385   7.2912   7.6541   7.7153   7.7330   7.7621   7.7784   7.8326
     7.8366   7.8368   7.8384   7.9737   7.9923   8.0210   8.0554   8.0574
     8.1382   8.1409   8.1726   8.1912   8.2942   8.3377   8.4377   8.4495
     8.4748   8.4944   8.5162   8.6292

          k = 0.0000 1.6236-1.6760 (162752 PWs)   bands (ev):

   -23.7011 -23.7002 -23.6995 -23.6992 -23.6992 -23.6985 -23.6976 -23.6975
   -21.9401 -21.9395 -21.9394 -21.9389 -21.9384 -21.9381 -21.9378 -21.9375
   -20.8965 -20.8965 -20.8964 -20.8964 -20.8945 -20.8945 -20.8943 -20.8943
   -19.6764 -19.6761 -19.6742 -19.6739 -19.6720 -19.6717 -19.6715 -19.6712
   -18.6602 -18.6602 -18.6599 -18.6599 -18.6583 -18.6583 -18.6567 -18.6567
   -16.4469 -16.4469 -16.4463 -16.4460 -16.4423 -16.4422 -16.4416 -16.4413
   -15.3445 -15.3430 -15.3428 -15.3426 -15.3086 -15.3071 -15.3069 -15.3067
   -11.9580 -11.9575 -11.9561 -11.9559 -11.9097 -11.9090 -11.9078 -11.9077
   -10.8335 -10.8332 -10.8319 -10.8318 -10.7405 -10.7403 -10.7394 -10.7392
   -10.0279 -10.0278 -10.0239 -10.0238  -9.9988  -9.9986  -9.9956  -9.9956
    -9.1394  -9.1391  -9.1367  -9.1365  -9.0845  -9.0842  -9.0821  -9.0819
    -7.9423  -7.9420  -7.9408  -7.9405  -7.8447  -7.8444  -7.8440  -7.8437
    -6.9249  -6.9247  -6.9237  -6.9234  -6.7597  -6.7595  -6.7584  -6.7581
    -6.4399  -6.4398  -6.4290  -6.4289  -6.3606  -6.3605  -6.3504  -6.3502
    -6.1712  -6.1707  -6.1705  -6.1702  -6.1192  -6.1185  -6.1172  -6.1166
    -5.7260  -5.7259  -5.7015  -5.7014  -5.6147  -5.6146  -5.5859  -5.5858
    -5.0852  -5.0851  -5.0711  -5.0710  -5.0559  -5.0558  -5.0436  -5.0434
    -4.8435  -4.8434  -4.8329  -4.8328  -4.7830  -4.7828  -4.7663  -4.7662
    -4.4426  -4.4423  -4.4361  -4.4358  -4.4060  -4.4056  -4.3591  -4.3588
    -4.3055  -4.3053  -4.2815  -4.2813  -4.2594  -4.2593  -4.2569  -4.2567
    -4.1043  -4.1042  -4.0898  -4.0898  -4.0283  -4.0283  -4.0279  -4.0278
    -3.8310  -3.8309  -3.8287  -3.8286  -3.6740  -3.6739  -3.6725  -3.6724
    -3.4107  -3.4106  -3.3995  -3.3993  -3.3808  -3.3808  -3.3593  -3.3593
    -3.2244  -3.2243  -3.2226  -3.2226  -3.0672  -3.0672  -3.0658  -3.0657
    -2.6458  -2.6457  -2.6305  -2.6300  -2.6168  -2.6163  -2.6032  -2.6031
    -2.0936  -2.0934  -2.0883  -2.0882  -2.0600  -2.0598  -2.0557  -2.0556
    -1.6936  -1.6936  -1.6931  -1.6930  -1.4954  -1.4953  -1.4938  -1.4938
    -0.8926  -0.8922  -0.8898  -0.8892  -0.8559  -0.8554  -0.8531  -0.8527
    -0.4510  -0.4509  -0.4479  -0.4477  -0.4129  -0.4128  -0.4096  -0.4095
    -0.2081  -0.2080  -0.2062  -0.2061  -0.1631  -0.1630  -0.1608  -0.1607
    -0.0115  -0.0113  -0.0037  -0.0036   0.0162   0.0163   0.0244   0.0246
     0.2063   0.2069   0.2095   0.2099   0.2160   0.2164   0.2183   0.2190
     0.4251   0.4252   0.4252   0.4255   0.4952   0.4954   0.4967   0.4969
     3.4868   3.4872   3.4883   3.4883   3.5041   3.5046   3.5056   3.5057
     5.4327   5.4333   5.4338   5.4342   5.4415   5.4420   5.4425   5.4428
     6.9362   6.9362   6.9445   6.9446   7.0583   7.0584   7.0638   7.0639
     7.4769   7.4771   7.5063   7.5065   7.7154   7.7155   7.7196   7.7197
     7.8638   7.8639   7.9030   7.9033   7.9807   7.9809   8.0763   8.0764
     8.1657   8.1660   8.2070   8.2072   8.2810   8.2811   8.3123   8.3124
     8.5460   8.5461   8.5816   8.5818

          k = 0.0000-3.2472 0.0000 (162710 PWs)   bands (ev):

   -23.6939 -23.6934 -23.6926 -23.6921 -23.6821 -23.6816 -23.6814 -23.6809
   -21.9610 -21.9608 -21.9599 -21.9597 -21.9477 -21.9476 -21.9474 -21.9472
   -20.8883 -20.8883 -20.8874 -20.8874 -20.8853 -20.8853 -20.8843 -20.8843
   -19.6847 -19.6842 -19.6823 -19.6818 -19.6804 -19.6799 -19.6795 -19.6791
   -18.6595 -18.6595 -18.6586 -18.6586 -18.6556 -18.6556 -18.6541 -18.6540
   -16.4534 -16.4534 -16.4527 -16.4524 -16.4491 -16.4483 -16.4451 -16.4444
   -15.3464 -15.3454 -15.3358 -15.3348 -15.3116 -15.3104 -15.3076 -15.3067
   -11.9778 -11.9765 -11.9350 -11.9337 -11.9320 -11.9318 -11.9162 -11.9161
   -10.8620 -10.8612 -10.8077 -10.8068 -10.7982 -10.7974 -10.7018 -10.7007
   -10.0257 -10.0250  -9.9996  -9.9995  -9.9956  -9.9956  -9.9949  -9.9940
    -9.1355  -9.1353  -9.0999  -9.0994  -9.0951  -9.0945  -9.0553  -9.0546
    -7.9421  -7.9420  -7.9377  -7.9377  -7.8536  -7.8535  -7.8459  -7.8459
    -7.0737  -7.0730  -6.9350  -6.9344  -6.8985  -6.8979  -6.8506  -6.8499
    -6.4790  -6.4783  -6.4224  -6.4223  -6.4083  -6.4081  -6.3410  -6.3407
    -6.2402  -6.2401  -6.1308  -6.1305  -6.1258  -6.1253  -6.1192  -6.1187
    -5.7521  -5.7518  -5.7318  -5.7311  -5.6770  -5.6763  -5.5745  -5.5740
    -5.1506  -5.1498  -5.1138  -5.1130  -4.9912  -4.9905  -4.9712  -4.9706
    -4.8868  -4.8866  -4.8541  -4.8538  -4.8190  -4.8188  -4.7993  -4.7989
    -4.4856  -4.4849  -4.4405  -4.4398  -4.3796  -4.3794  -4.3181  -4.3176
    -4.2741  -4.2737  -4.2496  -4.2493  -4.2031  -4.2030  -4.1891  -4.1883
    -4.1231  -4.1229  -4.0694  -4.0689  -4.0321  -4.0315  -4.0148  -4.0142
    -3.8490  -3.8486  -3.7466  -3.7456  -3.7135  -3.7129  -3.5061  -3.5060
    -3.4965  -3.4964  -3.4404  -3.4397  -3.3967  -3.3961  -3.3045  -3.3035
    -3.2019  -3.2016  -3.1679  -3.1675  -3.1504  -3.1502  -3.1387  -3.1387
    -2.6398  -2.6393  -2.6386  -2.6380  -2.5936  -2.5934  -2.5931  -2.5929
    -2.0762  -2.0757  -2.0540  -2.0536  -1.9176  -1.9175  -1.9133  -1.9131
    -1.5669  -1.5668  -1.5592  -1.5591  -1.4156  -1.4154  -1.4148  -1.4146
    -0.9141  -0.9137  -0.9011  -0.9006  -0.8857  -0.8852  -0.8535  -0.8530
    -0.4814  -0.4812  -0.4782  -0.4780  -0.2447  -0.2445  -0.2255  -0.2255
    -0.1528  -0.1528  -0.1278  -0.1277  -0.0856  -0.0850  -0.0733  -0.0727
    -0.0210  -0.0209  -0.0187  -0.0186   0.0713   0.0721   0.0804   0.0812
     0.2251   0.2251   0.2336   0.2336   0.2451   0.2453   0.2543   0.2544
     0.3859   0.3861   0.4003   0.4006   0.4359   0.4360   0.4977   0.4978
     3.4733   3.4743   3.5224   3.5234   3.5458   3.5470   3.5766   3.5778
     5.1718   5.1731   5.1735   5.1749   5.2564   5.2568   5.2591   5.2594
     6.9088   6.9091   6.9430   6.9435   7.0026   7.0028   7.0275   7.0278
     7.6578   7.6579   7.6982   7.6986   7.7605   7.7607   7.8501   7.8503
     7.9401   7.9411   7.9464   7.9466   8.0685   8.0686   8.0925   8.0926
     8.1908   8.1909   8.2203   8.2203   8.4665   8.4666   8.4907   8.4918
     8.5774   8.5780   8.6105   8.6110

          k = 0.0000-3.2472-1.6760 (162608 PWs)   bands (ev):

   -23.6889 -23.6881 -23.6879 -23.6871 -23.6871 -23.6869 -23.6861 -23.6860
   -21.9553 -21.9547 -21.9546 -21.9541 -21.9536 -21.9534 -21.9529 -21.9527
   -20.8869 -20.8869 -20.8867 -20.8866 -20.8860 -20.8860 -20.8857 -20.8857
   -19.6846 -19.6842 -19.6823 -19.6819 -19.6802 -19.6798 -19.6797 -19.6793
   -18.6579 -18.6579 -18.6575 -18.6575 -18.6572 -18.6572 -18.6551 -18.6551
   -16.4533 -16.4533 -16.4527 -16.4524 -16.4471 -16.4471 -16.4465 -16.4462
   -15.3423 -15.3407 -15.3406 -15.3404 -15.3099 -15.3084 -15.3082 -15.3080
   -11.9615 -11.9609 -11.9600 -11.9600 -11.9210 -11.9204 -11.9195 -11.9195
   -10.8354 -10.8351 -10.8343 -10.8342 -10.7485 -10.7482 -10.7474 -10.7473
   -10.0146 -10.0144 -10.0137 -10.0137  -9.9947  -9.9944  -9.9938  -9.9938
    -9.1223  -9.1222  -9.1216  -9.1216  -9.0753  -9.0753  -9.0747  -9.0747
    -7.9376  -7.9376  -7.9373  -7.9373  -7.8470  -7.8470  -7.8467  -7.8467
    -7.0095  -7.0093  -7.0088  -7.0085  -6.8569  -6.8567  -6.8562  -6.8559
    -6.4580  -6.4578  -6.4576  -6.4575  -6.3780  -6.3779  -6.3779  -6.3777
    -6.2105  -6.2100  -6.2099  -6.2096  -6.1130  -6.1126  -6.1123  -6.1121
    -5.7329  -5.7328  -5.7322  -5.7321  -5.6181  -5.6180  -5.6174  -5.6174
    -5.0639  -5.0638  -5.0633  -5.0632  -5.0179  -5.0178  -5.0172  -5.0170
    -4.9009  -4.9008  -4.9007  -4.9007  -4.8733  -4.8731  -4.8731  -4.8730
    -4.3899  -4.3899  -4.3897  -4.3897  -4.3022  -4.3021  -4.3016  -4.3015
    -4.2705  -4.2704  -4.2699  -4.2697  -4.2144  -4.2143  -4.2141  -4.2140
    -4.1004  -4.1004  -4.1001  -4.0999  -4.0725  -4.0724  -4.0722  -4.0719
    -3.7961  -3.7959  -3.7951  -3.7951  -3.6263  -3.6262  -3.6257  -3.6255
    -3.4260  -3.4259  -3.4251  -3.4251  -3.3968  -3.3967  -3.3963  -3.3962
    -3.1616  -3.1616  -3.1614  -3.1613  -3.1455  -3.1454  -3.1452  -3.1451
    -2.6236  -2.6236  -2.6230  -2.6230  -2.5963  -2.5963  -2.5958  -2.5958
    -2.0007  -2.0005  -2.0004  -2.0003  -1.9773  -1.9771  -1.9770  -1.9770
    -1.5421  -1.5421  -1.5420  -1.5420  -1.4297  -1.4297  -1.4296  -1.4296
    -0.9156  -0.9154  -0.9152  -0.9145  -0.8650  -0.8648  -0.8647  -0.8638
    -0.3785  -0.3784  -0.3784  -0.3783  -0.3530  -0.3530  -0.3529  -0.3529
    -0.1237  -0.1234  -0.1233  -0.1231  -0.0986  -0.0983  -0.0982  -0.0980
     0.0344   0.0346   0.0347   0.0349   0.0469   0.0471   0.0473   0.0474
     0.2309   0.2311   0.2315   0.2316   0.2437   0.2438   0.2443   0.2444
     0.3857   0.3858   0.3858   0.3860   0.4606   0.4608   0.4608   0.4610
     3.5238   3.5241   3.5249   3.5251   3.5399   3.5403   3.5411   3.5412
     5.2052   5.2061   5.2063   5.2063   5.2105   5.2113   5.2114   5.2116
     6.9417   6.9417   6.9418   6.9419   7.0418   7.0418   7.0419   7.0420
     7.6218   7.6218   7.6222   7.6222   7.8846   7.8848   7.8850   7.8850
     7.9503   7.9504   7.9507   7.9507   8.0821   8.0823   8.0825   8.0826
     8.2234   8.2236   8.2239   8.2242   8.4008   8.4009   8.4011   8.4012
     8.5717   8.5718   8.5720   8.5720

     highest occupied, lowest unoccupied level (ev):     0.5150    3.3987

!    total energy              =   -2910.38939198 Ry
     Harris-Foulkes estimate   =   -2910.38939198 Ry
     estimated scf accuracy    <          6.3E-09 Ry

     total all-electron energy =    -10875.609755 Ry

     The total energy is the sum of the following terms:

     one-electron contribution =   -1776.90055082 Ry
     hartree contribution      =    1099.99722291 Ry
     xc contribution           =    -581.20857960 Ry
     ewald contribution        =    -872.29476197 Ry
     Dispersion Correction     =      -0.64275961 Ry
     one-center paw contrib.   =    -779.33996288 Ry

     convergence has been achieved in  17 iterations

     Forces acting on atoms (cartesian axes, Ry/au):

     atom    1 type  2   force =     0.00741944    0.00090771    0.00657267
     atom    2 type  2   force =     0.00733033    0.00086465    0.00653629
     atom    3 type  2   force =    -0.00669312    0.00125316   -0.00667153
     atom    4 type  2   force =    -0.00709472    0.00103240   -0.00652604
     atom    5 type  2   force =    -0.00741944   -0.00090771   -0.00657267
     atom    6 type  2   force =    -0.00733033   -0.00086465   -0.00653629
     atom    7 type  2   force =     0.00669312   -0.00125316    0.00667153
     atom    8 type  2   force =     0.00709472   -0.00103240    0.00652604
     atom    9 type  2   force =    -0.00256841    0.00325932    0.00023261
     atom   10 type  2   force =    -0.00252264    0.00328822    0.00018387
     atom   11 type  2   force =     0.00248078    0.00327345   -0.00032019
     atom   12 type  2   force =     0.00247165    0.00327120   -0.00023081
     atom   13 type  2   force =     0.00256841   -0.00325932   -0.00023261
     atom   14 type  2   force =     0.00252264   -0.00328822   -0.00018387
     atom   15 type  2   force =    -0.00248078   -0.00327345    0.00032019
     atom   16 type  2   force =    -0.00247165   -0.00327120    0.00023081
     atom   17 type  4   force =     0.00344626   -0.00404509   -0.00223649
     atom   18 type  4   force =     0.00345958   -0.00403039   -0.00224047
     atom   19 type  4   force =    -0.00381750   -0.00433678    0.00237262
     atom   20 type  4   force =    -0.00358659   -0.00415301    0.00226800
     atom   21 type  4   force =    -0.00344626    0.00404509    0.00223649
     atom   22 type  4   force =    -0.00345958    0.00403039    0.00224047
     atom   23 type  4   force =     0.00381750    0.00433678   -0.00237262
     atom   24 type  4   force =     0.00358659    0.00415301   -0.00226800
     atom   25 type  4   force =     0.00120334   -0.00013413    0.00360193
     atom   26 type  4   force =     0.00117804   -0.00013807    0.00362373
     atom   27 type  4   force =    -0.00124080   -0.00012298   -0.00360413
     atom   28 type  4   force =    -0.00117051   -0.00018041   -0.00355832
     atom   29 type  4   force =    -0.00120334    0.00013413   -0.00360193
     atom   30 type  4   force =    -0.00117804    0.00013807   -0.00362373
     atom   31 type  4   force =     0.00124080    0.00012298    0.00360413
     atom   32 type  4   force =     0.00117051    0.00018041    0.00355832
     atom   33 type  1   force =    -0.01356704    0.00406649   -0.00796077
     atom   34 type  1   force =    -0.01351679    0.00412459   -0.00791399
     atom   35 type  1   force =     0.01334671    0.00405112    0.00793867
     atom   36 type  1   force =     0.01337746    0.00407428    0.00792600
     atom   37 type  1   force =     0.01356704   -0.00406649    0.00796077
     atom   38 type  1   force =     0.01351679   -0.00412459    0.00791399
     atom   39 type  1   force =    -0.01334671   -0.00405112   -0.00793867
     atom   40 type  1   force =    -0.01337746   -0.00407428   -0.00792600
     atom   41 type  1   force =    -0.00237524    0.00155053   -0.00710794
     atom   42 type  1   force =    -0.00275616    0.00180897   -0.00709473
     atom   43 type  1   force =     0.00216788    0.00135120    0.00718471
     atom   44 type  1   force =     0.00321148    0.00197910    0.00700137
     atom   45 type  1   force =     0.00237524   -0.00155053    0.00710794
     atom   46 type  1   force =     0.00275616   -0.00180897    0.00709473
     atom   47 type  1   force =    -0.00216788   -0.00135120   -0.00718471
     atom   48 type  1   force =    -0.00321148   -0.00197910   -0.00700137
     atom   49 type  4   force =     0.00219379    0.00157512    0.00254077
     atom   50 type  4   force =     0.00253513    0.00144606    0.00248983
     atom   51 type  4   force =    -0.00202112    0.00166508   -0.00256118
     atom   52 type  4   force =    -0.00292388    0.00131217   -0.00246179
     atom   53 type  4   force =    -0.00219379   -0.00157512   -0.00254077
     atom   54 type  4   force =    -0.00253513   -0.00144606   -0.00248983
     atom   55 type  4   force =     0.00202112   -0.00166508    0.00256118
     atom   56 type  4   force =     0.00292388   -0.00131217    0.00246179
     atom   57 type  1   force =     0.00598051    0.00019675    0.00712684
     atom   58 type  1   force =     0.00586724    0.00004908    0.00715394
     atom   59 type  1   force =    -0.00559103    0.00082222   -0.00745406
     atom   60 type  1   force =    -0.00576813    0.00018265   -0.00721561
     atom   61 type  1   force =    -0.00598051   -0.00019675   -0.00712684
     atom   62 type  1   force =    -0.00586724   -0.00004908   -0.00715394
     atom   63 type  1   force =     0.00559103   -0.00082222    0.00745406
     atom   64 type  1   force =     0.00576813   -0.00018265    0.00721561
     atom   65 type  4   force =     0.00437070   -0.00568389    0.00028239
     atom   66 type  4   force =     0.00441860   -0.00564922    0.00023758
     atom   67 type  4   force =    -0.00474074   -0.00624011    0.00000413
     atom   68 type  4   force =    -0.00449515   -0.00575499   -0.00018798
     atom   69 type  4   force =    -0.00437070    0.00568389   -0.00028239
     atom   70 type  4   force =    -0.00441860    0.00564922   -0.00023758
     atom   71 type  4   force =     0.00474074    0.00624011   -0.00000413
     atom   72 type  4   force =     0.00449515    0.00575499    0.00018798
     atom   73 type  4   force =    -0.01487486    0.00263853   -0.01092378
     atom   74 type  4   force =    -0.01482600    0.00267189   -0.01096663
     atom   75 type  4   force =     0.01486228    0.00257020    0.01095311
     atom   76 type  4   force =     0.01482381    0.00265425    0.01096627
     atom   77 type  4   force =     0.01487486   -0.00263853    0.01092378
     atom   78 type  4   force =     0.01482600   -0.00267189    0.01096663
     atom   79 type  4   force =    -0.01486228   -0.00257020   -0.01095311
     atom   80 type  4   force =    -0.01482381   -0.00265425   -0.01096627
     atom   81 type  1   force =     0.00259205    0.00861316    0.00319015
     atom   82 type  1   force =     0.00260813    0.00875590    0.00323760
     atom   83 type  1   force =    -0.00258677    0.00863983   -0.00319677
     atom   84 type  1   force =    -0.00261595    0.00875685   -0.00323244
     atom   85 type  1   force =    -0.00259205   -0.00861316   -0.00319015
     atom   86 type  1   force =    -0.00260813   -0.00875590   -0.00323760
     atom   87 type  1   force =     0.00258677   -0.00863983    0.00319677
     atom   88 type  1   force =     0.00261595   -0.00875685    0.00323244
     atom   89 type  3   force =     0.00020917    0.00015428    0.00031225
     atom   90 type  3   force =     0.00023476    0.00011519    0.00030144
     atom   91 type  3   force =    -0.00019948    0.00014806   -0.00031474
     atom   92 type  3   force =    -0.00022372    0.00011336   -0.00030588
     atom   93 type  3   force =    -0.00020917   -0.00015428   -0.00031225
     atom   94 type  3   force =    -0.00023476   -0.00011519   -0.00030144
     atom   95 type  3   force =     0.00019948   -0.00014806    0.00031474
     atom   96 type  3   force =     0.00022372   -0.00011336    0.00030588
     atom   97 type  3   force =     0.00027319   -0.00036750   -0.00001436
     atom   98 type  3   force =     0.00028602   -0.00037675    0.00006530
     atom   99 type  3   force =    -0.00027676   -0.00036472    0.00002990
     atom  100 type  3   force =    -0.00028902   -0.00037625   -0.00004281
     atom  101 type  3   force =    -0.00027319    0.00036750    0.00001436
     atom  102 type  3   force =    -0.00028602    0.00037675   -0.00006530
     atom  103 type  3   force =     0.00027676    0.00036472   -0.00002990
     atom  104 type  3   force =     0.00028902    0.00037625    0.00004281
     atom  105 type  3   force =     0.00564642   -0.01055118    0.00531900
     atom  106 type  3   force =     0.00568322   -0.01057892    0.00532968
     atom  107 type  3   force =    -0.00564437   -0.01055499   -0.00532938
     atom  108 type  3   force =    -0.00568076   -0.01057505   -0.00534005
     atom  109 type  3   force =    -0.00564642    0.01055118   -0.00531900
     atom  110 type  3   force =    -0.00568322    0.01057892   -0.00532968
     atom  111 type  3   force =     0.00564437    0.01055499    0.00532938
     atom  112 type  3   force =     0.00568076    0.01057505    0.00534005
     atom  113 type  1   force =     0.00404176    0.00371377    0.00288589
     atom  114 type  1   force =     0.00401613    0.00377357    0.00289236
     atom  115 type  1   force =    -0.00404134    0.00377119   -0.00290061
     atom  116 type  1   force =    -0.00404868    0.00379031   -0.00288128
     atom  117 type  1   force =    -0.00404176   -0.00371377   -0.00288589
     atom  118 type  1   force =    -0.00401613   -0.00377357   -0.00289236
     atom  119 type  1   force =     0.00404134   -0.00377119    0.00290061
     atom  120 type  1   force =     0.00404868   -0.00379031    0.00288128
     atom  121 type  3   force =    -0.00221473   -0.00005809    0.00008673
     atom  122 type  3   force =    -0.00219468   -0.00008046    0.00006624
     atom  123 type  3   force =     0.00219268   -0.00007063   -0.00006714
     atom  124 type  3   force =     0.00220542   -0.00007344   -0.00006531
     atom  125 type  3   force =     0.00221473    0.00005809   -0.00008673
     atom  126 type  3   force =     0.00219468    0.00008046   -0.00006624
     atom  127 type  3   force =    -0.00219268    0.00007063    0.00006714
     atom  128 type  3   force =    -0.00220542    0.00007344    0.00006531
     atom  129 type  3   force =    -0.00091106    0.00005853   -0.00282275
     atom  130 type  3   force =    -0.00092207    0.00002355   -0.00279045
     atom  131 type  3   force =     0.00093132    0.00005175    0.00283038
     atom  132 type  3   force =     0.00094168    0.00001186    0.00278521
     atom  133 type  3   force =     0.00091106   -0.00005853    0.00282275
     atom  134 type  3   force =     0.00092207   -0.00002355    0.00279045
     atom  135 type  3   force =    -0.00093132   -0.00005175   -0.00283038
     atom  136 type  3   force =    -0.00094168   -0.00001186   -0.00278521
     atom  137 type  3   force =    -0.00139387   -0.00468977   -0.00130100
     atom  138 type  3   force =    -0.00140819   -0.00471473   -0.00132783
     atom  139 type  3   force =     0.00140706   -0.00470435    0.00131772
     atom  140 type  3   force =     0.00140405   -0.00470597    0.00131487
     atom  141 type  3   force =     0.00139387    0.00468977    0.00130100
     atom  142 type  3   force =     0.00140819    0.00471473    0.00132783
     atom  143 type  3   force =    -0.00140706    0.00470435   -0.00131772
     atom  144 type  3   force =    -0.00140405    0.00470597   -0.00131487

     Total force =     0.103101     Total SCF correction =     0.000191


     Computing stress (Cartesian axis) and pressure

          total   stress  (Ry/bohr**3)                   (kbar)     P=   -6.52
  -0.00006834  -0.00000018   0.00000214        -10.05     -0.03      0.31
  -0.00000018  -0.00005522   0.00000017         -0.03     -8.12      0.02
   0.00000214   0.00000017  -0.00000939          0.31      0.02     -1.38


     Writing output data file scf.save
 
     init_run     :     87.96s CPU     91.97s WALL (       1 calls)
     electrons    :   3223.63s CPU   3385.04s WALL (       1 calls)
     forces       :     47.57s CPU     48.01s WALL (       1 calls)
     stress       :    372.62s CPU    373.32s WALL (       1 calls)

     Called by init_run:
     wfcinit      :     69.70s CPU     73.45s WALL (       1 calls)
     potinit      :      6.19s CPU      6.26s WALL (       1 calls)

     Called by electrons:
     c_bands      :   2907.53s CPU   3040.70s WALL (      17 calls)
     sum_band     :    292.30s CPU    317.62s WALL (      17 calls)
     v_of_rho     :      3.37s CPU      3.75s WALL (      18 calls)
     newd         :      9.71s CPU     12.13s WALL (      18 calls)
     PAW_pot      :      9.79s CPU      9.80s WALL (      18 calls)
     mix_rho      :      0.88s CPU      0.99s WALL (      17 calls)

     Called by c_bands:
     init_us_2    :     14.84s CPU     14.92s WALL (     222 calls)
     cegterg      :   2832.87s CPU   2965.90s WALL (     102 calls)

     Called by sum_band:
     sum_band:bec :      0.17s CPU      0.17s WALL (     102 calls)
     addusdens    :      9.68s CPU     12.05s WALL (      17 calls)

     Called by *egterg:
     h_psi        :   1440.42s CPU   1548.04s WALL (     551 calls)
     s_psi        :    306.47s CPU    306.60s WALL (     551 calls)
     g_psi        :      7.28s CPU      7.29s WALL (     443 calls)
     cdiaghg      :    182.95s CPU    183.04s WALL (     545 calls)

     Called by h_psi:
     h_psi:pot    :   1430.03s CPU   1537.48s WALL (     551 calls)
     h_psi:calbec :    341.72s CPU    342.45s WALL (     551 calls)
     vloc_psi     :    781.48s CPU    888.03s WALL (     551 calls)
     add_vuspsi   :    306.83s CPU    307.00s WALL (     551 calls)

     General routines
     calbec       :    520.25s CPU    521.38s WALL (     683 calls)
     fft          :     10.09s CPU     10.81s WALL (     258 calls)
     fftw         :    842.91s CPU    971.69s WALL (  208164 calls)
 
     Parallel routines
     fft_scatter  :    245.23s CPU    373.47s WALL (  208422 calls)
 
     PWSCF        :     1h 2m CPU        1h 6m WALL

 
   This run was terminated on:   6: 1:21   4Nov2017            

=------------------------------------------------------------------------------=
   JOB DONE.
=------------------------------------------------------------------------------=
