
     Program PWSCF v.6.1 (svn rev. 13369) starts on  4Nov2017 at  2:26:28 

     This program is part of the open-source Quantum ESPRESSO suite
     for quantum simulation of materials; please cite
         "P. Giannozzi et al., J. Phys.:Condens. Matter 21 395502 (2009);
          URL http://www.quantum-espresso.org", 
     in publications or presentations arising from this work. More details at
     http://www.quantum-espresso.org/quote

     Parallel version (MPI), running on     8 processors
     R & G space division:  proc/nbgrp/npool/nimage =       8
     Waiting for input...
     Reading input from standard input

     Current dimensions of program PWSCF are:
     Max number of different atomic species (ntypx) = 10
     Max number of k-points (npk) =  40000
     Max angular momentum in pseudopotentials (lmaxx) =  3
               file C.pbe-n-kjpaw_psl.0.1.UPF: wavefunction(s)  2P renormalized
               file N.pbe-n-kjpaw_psl.0.1.UPF: wavefunction(s)  2P renormalized
               file H.pbe-kjpaw_psl.0.1.UPF: wavefunction(s)  1S renormalized
               file O.pbe-n-kjpaw_psl.0.1.UPF: wavefunction(s)  2P renormalized

     -------------------------------------
     Parameters for Dispersion Correction:
     -------------------------------------
       atom      VdW radius       C_6     

        C          2.744         60.710
        N          2.640         42.670
        H          1.892          4.857
        O          2.536         24.284

     Subspace diagonalization in iterative solution of the eigenvalue problem:
     a serial algorithm will be used

 
     Parallelization info
     --------------------
     sticks:   dense  smooth     PW     G-vecs:    dense   smooth      PW
     Min         868     868    225                96945    96945   12938
     Max         869     869    227                96949    96949   12941
     Sum        6947    6947   1807               775577   775577  103515
 


     bravais-lattice index     =            0
     lattice parameter (alat)  =      15.2779  a.u.
     unit-cell volume          =    5739.3808 (a.u.)^3
     number of atoms/cell      =           80
     number of atomic types    =            4
     number of electrons       =       352.00
     number of Kohn-Sham states=          211
     kinetic-energy cutoff     =     100.0000  Ry
     charge density cutoff     =     400.0000  Ry
     convergence threshold     =      1.0E-08
     mixing beta               =       0.5000
     number of iterations used =            8  plain     mixing
     Exchange-correlation      =  SLA  PW   PBX  PBC ( 1  4  3  4 0 0)

     celldm(1)=  15.277869  celldm(2)=   0.000000  celldm(3)=   0.000000
     celldm(4)=   0.000000  celldm(5)=   0.000000  celldm(6)=   0.000000

     crystal axes: (cart. coord. in units of alat)
               a(1) = (   1.000000   0.000000   0.000000 )  
               a(2) = (   0.000000   0.934568   0.000000 )  
               a(3) = (  -0.293163   0.000000   1.722130 )  

     reciprocal axes: (cart. coord. in units 2 pi/alat)
               b(1) = (  1.000000  0.000000  0.170233 )  
               b(2) = (  0.000000  1.070013  0.000000 )  
               b(3) = (  0.000000  0.000000  0.580676 )  


     PseudoPot. # 1 for  C read from file:
     /scratch/ahofstet/pseudo/C.pbe-n-kjpaw_psl.0.1.UPF
     MD5 check sum: 430fe95172b1e11ef3f8ed03bac87931
     Pseudo is Projector augmented-wave + core cor, Zval =  4.0
     Generated using "atomic" code by A. Dal Corso  v.5.0.99 svn rev. 10869
     Shape of augmentation charge: BESSEL
     Using radial grid of 1073 points,  4 beta functions with: 
                l(1) =   0
                l(2) =   0
                l(3) =   1
                l(4) =   1
     Q(r) pseudized with 0 coefficients 


     PseudoPot. # 2 for  N read from file:
     /scratch/ahofstet/pseudo/N.pbe-n-kjpaw_psl.0.1.UPF
     MD5 check sum: f73187c8b701007e77325f868c9291d7
     Pseudo is Projector augmented-wave + core cor, Zval =  5.0
     Generated using "atomic" code by A. Dal Corso  v.5.0.99 svn rev. 10869
     Shape of augmentation charge: PSQ
     Using radial grid of 1085 points,  4 beta functions with: 
                l(1) =   0
                l(2) =   0
                l(3) =   1
                l(4) =   1
     Q(r) pseudized with 0 coefficients 


     PseudoPot. # 3 for  H read from file:
     /scratch/ahofstet/pseudo/H.pbe-kjpaw_psl.0.1.UPF
     MD5 check sum: 94e484f906d9e9773b2f6e52662335b2
     Pseudo is Projector augmented-wave, Zval =  1.0
     Generated using "atomic" code by A. Dal Corso  v.5.0.99 svn rev. 10869
     Shape of augmentation charge: PSQ
     Using radial grid of  929 points,  2 beta functions with: 
                l(1) =   0
                l(2) =   0
     Q(r) pseudized with 0 coefficients 


     PseudoPot. # 4 for  O read from file:
     /scratch/ahofstet/pseudo/O.pbe-n-kjpaw_psl.0.1.UPF
     MD5 check sum: 3f94a2996a3169367d6eb21d9b593f20
     Pseudo is Projector augmented-wave + core cor, Zval =  6.0
     Generated using "atomic" code by A. Dal Corso  v.5.0.99 svn rev. 10869
     Shape of augmentation charge: BESSEL
     Using radial grid of 1095 points,  4 beta functions with: 
                l(1) =   0
                l(2) =   0
                l(3) =   1
                l(4) =   1
     Q(r) pseudized with 0 coefficients 


     atomic species   valence    mass     pseudopotential
        C              4.00    12.01070      C( 1.00)
        N              5.00    14.00670      N( 1.00)
        H              1.00     1.00794      H( 1.00)
        O              6.00    15.99940      O( 1.00)

      2 Sym. Ops., with inversion, found



   Cartesian axes

     site n.     atom                  positions (alat units)
         1           O   tau(   1) = (   0.2024182   0.2047097   0.8390256  )
         2           O   tau(   2) = (   0.6510214   0.6720209   0.0220913  )
         3           O   tau(   3) = (   0.5044191   0.7298581   0.8831043  )
         4           O   tau(   4) = (   0.0558159   0.2625469   1.7000386  )
         5           O   tau(   5) = (   0.1575270   0.7009955   1.0905141  )
         6           O   tau(   6) = (   0.4027494   0.2337157   1.4927833  )
         7           O   tau(   7) = (   0.5493103   0.2335723   0.6316158  )
         8           O   tau(   8) = (   0.3040879   0.7008520   0.2293467  )
         9           O   tau(   9) = (   0.2769553   0.0100194   1.0963112  )
        10           O   tau(  10) = (   0.2833371   0.4773113   1.4869326  )
        11           O   tau(  11) = (   0.4298819   0.9245484   0.6258187  )
        12           O   tau(  12) = (   0.4235001   0.4572565   0.2351973  )
        13           O   tau(  13) = (   0.1509684   0.3898354   0.4563757  )
        14           O   tau(  14) = (   0.7024690   0.8570636   0.4047311  )
        15           O   tau(  15) = (   0.5558689   0.5447324   1.2657543  )
        16           O   tau(  16) = (   0.0043682   0.0775042   1.3173988  )
        17           N   tau(  17) = (   0.0117488   0.4110264   0.5147269  )
        18           N   tau(  18) = (   0.8416798   0.8782796   0.3463750  )
        19           N   tau(  19) = (   0.6950884   0.5235414   1.2074030  )
        20           N   tau(  20) = (  -0.1348425   0.0562882   1.3757549  )
        21           O   tau(  21) = (   0.8854623   0.3349784   0.4790077  )
        22           O   tau(  22) = (  -0.0320180   0.8022441   0.3820797  )
        23           O   tau(  23) = (  -0.1786250   0.5995894   1.2431222  )
        24           O   tau(  24) = (   0.7388552   0.1323236   1.3400502  )
        25           N   tau(  25) = (   0.0408869   0.7354582   0.7924929  )
        26           N   tau(  26) = (   0.8125037   0.2681899   0.0686737  )
        27           N   tau(  27) = (   0.6659504   0.1991096   0.9296370  )
        28           N   tau(  28) = (  -0.1056665   0.6663779   1.6534562  )
        29           O   tau(  29) = (   0.0674879   0.0788338   0.6402514  )
        30           O   tau(  30) = (   0.7859231   0.5461552   0.2208934  )
        31           O   tau(  31) = (   0.6393493   0.8557340   1.0818785  )
        32           O   tau(  32) = (  -0.0790858   0.3884126   1.5012365  )
        33           N   tau(  33) = (   0.1321255   0.0809559   0.7799155  )
        34           N   tau(  34) = (   0.7212833   0.5482720   0.0812177  )
        35           N   tau(  35) = (   0.5747117   0.8536119   0.9422144  )
        36           N   tau(  36) = (  -0.0144460   0.3862957   1.6409122  )
        37           N   tau(  37) = (   0.8452380   0.5891692   0.6967965  )
        38           N   tau(  38) = (   0.0081623   0.1218736   0.1643038  )
        39           N   tau(  39) = (  -0.1384007   0.3453986   1.0253334  )
        40           N   tau(  40) = (   0.6986750   0.8126941   1.5578261  )
        41           N   tau(  41) = (   0.1869370   0.8380803   1.0252458  )
        42           N   tau(  42) = (   0.3733277   0.3708046   1.5580323  )
        43           N   tau(  43) = (   0.5199003   0.0964874   0.6968841  )
        44           N   tau(  44) = (   0.3335096   0.5637631   0.1640976  )
        45           N   tau(  45) = (  -0.1248515   0.7134808   0.7951927  )
        46           N   tau(  46) = (   0.9782414   0.2462059   0.0659374  )
        47           N   tau(  47) = (   0.8316887   0.2210870   0.9269372  )
        48           N   tau(  48) = (  -0.2714041   0.6883619   1.6561925  )
        49           N   tau(  49) = (   0.1198938   0.6286592   0.6941540  )
        50           N   tau(  50) = (   0.7335087   0.1613749   0.1670017  )
        51           N   tau(  51) = (   0.5869435   0.3059086   1.0279759  )
        52           N   tau(  52) = (  -0.0266714   0.7731929   1.5551283  )
        53           C   tau(  53) = (  -0.0060490   0.5411493   0.6375490  )
        54           C   tau(  54) = (   0.8594577   0.0738475   0.2235673  )
        55           C   tau(  55) = (   0.7128862   0.3934185   1.0845809  )
        56           C   tau(  56) = (  -0.1526204   0.8607203   1.4985626  )
        57           C   tau(  57) = (   0.1193586   0.8680719   0.8715852  )
        58           C   tau(  58) = (   0.4408577   0.4007968   1.7117203  )
        59           C   tau(  59) = (   0.5874786   0.0664959   0.8505447  )
        60           C   tau(  60) = (   0.2659796   0.5337709   0.0104097  )
        61           N   tau(  61) = (   0.4993154   0.5756369   0.5624617  )
        62           N   tau(  62) = (   0.3540938   0.1083479   0.2985814  )
        63           N   tau(  63) = (   0.2075219   0.3589309   1.1596682  )
        64           N   tau(  64) = (   0.3527434   0.8262199   1.4235485  )
        65           H   tau(  65) = (   0.4871299   0.5512991   0.4366540  )
        66           H   tau(  66) = (   0.3662826   0.0840111   0.4243898  )
        67           H   tau(  67) = (   0.2197074   0.3832687   1.2854759  )
        68           H   tau(  68) = (   0.3405546   0.8505566   1.2977401  )
        69           H   tau(  69) = (   0.4665191   0.6962544   0.5899276  )
        70           H   tau(  70) = (   0.3868880   0.2289642   0.2711111  )
        71           H   tau(  71) = (   0.2403182   0.2383134   1.1322023  )
        72           H   tau(  72) = (   0.3199493   0.7056036   1.4510188  )
        73           H   tau(  73) = (   0.6203612   0.5578354   0.6015630  )
        74           H   tau(  74) = (   0.2330475   0.0905413   0.2594841  )
        75           H   tau(  75) = (   0.0864761   0.3767323   1.1205670  )
        76           H   tau(  76) = (   0.4737898   0.8440265   1.4626458  )
        77           H   tau(  77) = (   0.4222990   0.4961357   0.6245606  )
        78           H   tau(  78) = (   0.4311109   0.0288461   0.2364834  )
        79           H   tau(  79) = (   0.2845383   0.4384320   1.0975693  )
        80           H   tau(  80) = (   0.2757264   0.9057217   1.4856465  )

     number of k points=    10
                       cart. coord. in units 2pi/alat
        k(    1) = (   0.0000000   0.0000000   0.0000000), wk =   0.1111111
        k(    2) = (   0.0000000   0.0000000  -0.2903381), wk =   0.1111111
        k(    3) = (   0.0000000   0.3566711   0.0000000), wk =   0.2222222
        k(    4) = (   0.0000000   0.3566711  -0.2903381), wk =   0.2222222
        k(    5) = (   0.3333333   0.0000000   0.0567442), wk =   0.2222222
        k(    6) = (   0.3333333   0.0000000  -0.2335939), wk =   0.2222222
        k(    7) = (   0.3333333   0.3566711   0.0567442), wk =   0.2222222
        k(    8) = (   0.3333333   0.3566711  -0.2335939), wk =   0.2222222
        k(    9) = (  -0.3333333   0.3566711  -0.0567442), wk =   0.2222222
        k(   10) = (  -0.3333333   0.3566711   0.2335939), wk =   0.2222222

     Dense  grid:   775577 G-vectors     FFT dimensions: ( 100,  96, 180)

     Estimated max dynamical RAM per process >     923.59MB

     Estimated total allocated dynamical RAM >    7388.71MB

     Check: negative/imaginary core charge=   -0.000003    0.000000

     Initial potential from superposition of free atoms

     starting charge  351.99924, renormalised to  352.00000
     Starting wfc are  272 randomized atomic wfcs
     Checking if some PAW data can be deallocated... 

     total cpu time spent up to now is       49.5 secs

     per-process dynamical memory:   661.5 Mb

     Self-consistent Calculation

     iteration #  1     ecut=   100.00 Ry     beta=0.50
     Davidson diagonalization with overlap
     ethr =  1.00E-02,  avg # of iterations =  3.0

     total cpu time spent up to now is      177.0 secs

     total energy              =   -2064.34088500 Ry
     Harris-Foulkes estimate   =   -2068.91033795 Ry
     estimated scf accuracy    <       8.05721837 Ry

     iteration #  2     ecut=   100.00 Ry     beta=0.50
     Davidson diagonalization with overlap
     ethr =  2.29E-03,  avg # of iterations =  3.0

     total cpu time spent up to now is      282.4 secs

     total energy              =   -2065.87324298 Ry
     Harris-Foulkes estimate   =   -2067.54740606 Ry
     estimated scf accuracy    <       3.77452067 Ry

     iteration #  3     ecut=   100.00 Ry     beta=0.50
     Davidson diagonalization with overlap
     ethr =  1.07E-03,  avg # of iterations =  4.3

     total cpu time spent up to now is      373.4 secs

     total energy              =   -2066.58859586 Ry
     Harris-Foulkes estimate   =   -2066.71879957 Ry
     estimated scf accuracy    <       0.34534822 Ry

     iteration #  4     ecut=   100.00 Ry     beta=0.50
     Davidson diagonalization with overlap
     ethr =  9.81E-05,  avg # of iterations =  9.1

     total cpu time spent up to now is      518.0 secs

     total energy              =   -2066.67851777 Ry
     Harris-Foulkes estimate   =   -2066.73520546 Ry
     estimated scf accuracy    <       0.15312977 Ry

     iteration #  5     ecut=   100.00 Ry     beta=0.50
     Davidson diagonalization with overlap
     ethr =  4.35E-05,  avg # of iterations =  3.7

     total cpu time spent up to now is      605.1 secs

     total energy              =   -2066.69994290 Ry
     Harris-Foulkes estimate   =   -2066.70899111 Ry
     estimated scf accuracy    <       0.02499362 Ry

     iteration #  6     ecut=   100.00 Ry     beta=0.50
     Davidson diagonalization with overlap
     ethr =  7.10E-06,  avg # of iterations =  7.9

     total cpu time spent up to now is      729.2 secs

     total energy              =   -2066.70521712 Ry
     Harris-Foulkes estimate   =   -2066.70813049 Ry
     estimated scf accuracy    <       0.00809032 Ry

     iteration #  7     ecut=   100.00 Ry     beta=0.50
     Davidson diagonalization with overlap
     c_bands:  1 eigenvalues not converged
     ethr =  2.30E-06,  avg # of iterations =  7.7

     total cpu time spent up to now is      825.8 secs

     total energy              =   -2066.70664512 Ry
     Harris-Foulkes estimate   =   -2066.70708328 Ry
     estimated scf accuracy    <       0.00123970 Ry

     iteration #  8     ecut=   100.00 Ry     beta=0.50
     Davidson diagonalization with overlap
     ethr =  3.52E-07,  avg # of iterations =  3.0

     total cpu time spent up to now is      921.6 secs

     total energy              =   -2066.70690647 Ry
     Harris-Foulkes estimate   =   -2066.70706812 Ry
     estimated scf accuracy    <       0.00048447 Ry

     iteration #  9     ecut=   100.00 Ry     beta=0.50
     Davidson diagonalization with overlap
     ethr =  1.38E-07,  avg # of iterations =  2.0

     total cpu time spent up to now is     1003.1 secs

     total energy              =   -2066.70698572 Ry
     Harris-Foulkes estimate   =   -2066.70699520 Ry
     estimated scf accuracy    <       0.00003528 Ry

     iteration # 10     ecut=   100.00 Ry     beta=0.50
     Davidson diagonalization with overlap
     ethr =  1.00E-08,  avg # of iterations =  3.0

     total cpu time spent up to now is     1122.2 secs

     total energy              =   -2066.70699815 Ry
     Harris-Foulkes estimate   =   -2066.70700011 Ry
     estimated scf accuracy    <       0.00000723 Ry

     iteration # 11     ecut=   100.00 Ry     beta=0.50
     Davidson diagonalization with overlap
     ethr =  2.05E-09,  avg # of iterations =  2.0

     total cpu time spent up to now is     1202.2 secs

     total energy              =   -2066.70699862 Ry
     Harris-Foulkes estimate   =   -2066.70699914 Ry
     estimated scf accuracy    <       0.00000159 Ry

     iteration # 12     ecut=   100.00 Ry     beta=0.50
     Davidson diagonalization with overlap
     ethr =  4.52E-10,  avg # of iterations =  3.0

     total cpu time spent up to now is     1303.6 secs

     total energy              =   -2066.70699898 Ry
     Harris-Foulkes estimate   =   -2066.70699919 Ry
     estimated scf accuracy    <       0.00000078 Ry

     iteration # 13     ecut=   100.00 Ry     beta=0.50
     Davidson diagonalization with overlap
     ethr =  2.21E-10,  avg # of iterations =  2.7

     total cpu time spent up to now is     1387.9 secs

     total energy              =   -2066.70699911 Ry
     Harris-Foulkes estimate   =   -2066.70699917 Ry
     estimated scf accuracy    <       0.00000019 Ry

     iteration # 14     ecut=   100.00 Ry     beta=0.50
     Davidson diagonalization with overlap
     ethr =  5.35E-11,  avg # of iterations =  2.0

     total cpu time spent up to now is     1469.1 secs

     total energy              =   -2066.70699914 Ry
     Harris-Foulkes estimate   =   -2066.70699915 Ry
     estimated scf accuracy    <       0.00000002 Ry

     iteration # 15     ecut=   100.00 Ry     beta=0.50
     Davidson diagonalization with overlap
     ethr =  5.38E-12,  avg # of iterations =  3.0

     total cpu time spent up to now is     1593.5 secs

     End of self-consistent calculation

          k = 0.0000 0.0000 0.0000 ( 96987 PWs)   bands (ev):

   -23.9710 -23.9676 -23.9438 -23.9435 -23.4765 -23.4719 -23.3802 -23.3790
   -23.0511 -23.0503 -22.9692 -22.9685 -22.3306 -22.3239 -22.3226 -22.3143
   -19.5542 -19.5533 -19.5483 -19.5481 -18.7577 -18.7575 -18.7564 -18.7561
   -18.5255 -18.5219 -18.5198 -18.5162 -17.5813 -17.5810 -17.5597 -17.5589
   -16.2007 -16.1767 -16.1714 -16.1693 -16.1231 -16.1196 -16.1153 -16.0965
   -14.0859 -14.0705 -14.0490 -14.0488 -12.0603 -12.0600 -12.0374 -12.0203
   -11.2269 -11.2256 -11.2156 -11.2115 -10.5075 -10.5065 -10.4780 -10.4729
    -8.7247  -8.7155  -8.6906  -8.6848  -7.8583  -7.8166  -7.8049  -7.7943
    -6.9243  -6.9093  -6.8530  -6.7876  -6.6924  -6.6106  -6.5932  -6.5911
    -6.5197  -6.5146  -6.4860  -6.4755  -6.3982  -6.3759  -6.3756  -6.2770
    -6.2521  -6.1724  -6.0288  -5.9649  -5.9118  -5.8866  -5.7728  -5.7492
    -5.7095  -5.7090  -5.6404  -5.5921  -5.5466  -5.5398  -5.5112  -5.4964
    -5.4284  -5.3906  -5.3790  -5.3773  -5.3381  -5.2524  -5.2114  -5.1631
    -5.0665  -5.0617  -4.8161  -4.8044  -4.7975  -4.7562  -4.7486  -4.7306
    -4.6189  -4.6189  -4.4296  -4.4075  -2.9996  -2.9918  -2.8933  -2.8827
    -1.8090  -1.8081  -1.5284  -1.5275  -1.0487  -1.0298  -1.0010  -1.0002
    -0.9891  -0.9556  -0.9518  -0.9020  -0.7994  -0.7910  -0.7615  -0.7219
    -0.6967  -0.6656  -0.6582  -0.6197  -0.5948  -0.5619  -0.4793  -0.4767
    -0.3092  -0.2750  -0.2521  -0.2106  -0.1299  -0.1125  -0.0979  -0.0830
     0.0336   0.0484   0.1061   0.1425   0.1717   0.1762   0.2358   0.2602
     0.3359   0.3381   0.3408   0.3578   0.3976   0.3987   0.4198   0.4317
     1.0901   1.0949   1.1175   1.1328   1.1872   1.1905   1.1923   1.2031
     3.5101   3.5256   3.6848   3.6974   4.0944   4.1020   4.2594   4.2729
     4.5638   4.6210   4.7143   4.7427   5.9676   5.9943   6.1226   6.1465
     6.9481   7.0086   7.0278   7.0944   7.6371   8.2309   8.3902   8.9000
     8.9162   8.9521   9.0738   9.4258   9.4320   9.4337   9.6693   9.7232
     9.7729   9.9461   9.9493

          k = 0.0000 0.0000-0.2903 ( 96974 PWs)   bands (ev):

   -23.9693 -23.9693 -23.9436 -23.9436 -23.4743 -23.4741 -23.3796 -23.3795
   -23.0508 -23.0506 -22.9689 -22.9688 -22.3288 -22.3286 -22.3170 -22.3169
   -19.5538 -19.5538 -19.5482 -19.5482 -18.7577 -18.7575 -18.7563 -18.7562
   -18.5241 -18.5238 -18.5178 -18.5176 -17.5812 -17.5811 -17.5594 -17.5592
   -16.1995 -16.1995 -16.1500 -16.1499 -16.1319 -16.1317 -16.1051 -16.1051
   -14.0712 -14.0712 -14.0560 -14.0560 -12.0587 -12.0587 -12.0301 -12.0301
   -11.2266 -11.2265 -11.2133 -11.2132 -10.5080 -10.5077 -10.4748 -10.4745
    -8.7207  -8.7206  -8.6870  -8.6868  -7.8612  -7.8612  -7.7737  -7.7736
    -6.9285  -6.9284  -6.8017  -6.8017  -6.6731  -6.6731  -6.5903  -6.5903
    -6.5214  -6.5213  -6.4814  -6.4813  -6.4369  -6.4369  -6.2365  -6.2364
    -6.1949  -6.1949  -6.0282  -6.0281  -5.9143  -5.9142  -5.7592  -5.7590
    -5.7236  -5.7236  -5.6110  -5.6109  -5.5522  -5.5520  -5.5203  -5.5201
    -5.4220  -5.4220  -5.3598  -5.3598  -5.2516  -5.2516  -5.1784  -5.1783
    -5.0704  -5.0703  -4.8289  -4.8289  -4.7895  -4.7895  -4.7288  -4.7288
    -4.6153  -4.6153  -4.4172  -4.4172  -2.9959  -2.9958  -2.8880  -2.8878
    -1.8086  -1.8085  -1.5279  -1.5276  -1.0368  -1.0367  -0.9960  -0.9960
    -0.9707  -0.9706  -0.9323  -0.9323  -0.7918  -0.7918  -0.7564  -0.7563
    -0.7067  -0.7067  -0.6403  -0.6402  -0.5378  -0.5377  -0.4804  -0.4804
    -0.2928  -0.2926  -0.2258  -0.2258  -0.1355  -0.1355  -0.0777  -0.0777
     0.0365   0.0366   0.1270   0.1271   0.1684   0.1684   0.2491   0.2491
     0.3113   0.3115   0.3703   0.3705   0.3932   0.3935   0.4351   0.4352
     1.0869   1.0871   1.1283   1.1284   1.1632   1.1634   1.2252   1.2253
     3.5177   3.5177   3.6908   3.6908   4.0980   4.0980   4.2666   4.2667
     4.5876   4.5876   4.7328   4.7329   5.9811   5.9811   6.1345   6.1346
     6.9678   6.9678   7.0716   7.0716   7.8270   7.8271   8.7658   8.7660
     8.9602   8.9603   9.1544   9.1545   9.4796   9.4798   9.6555   9.6555
     9.7934   9.7938  10.0320

          k = 0.0000 0.3567 0.0000 ( 96938 PWs)   bands (ev):

   -23.9624 -23.9603 -23.9488 -23.9481 -23.4781 -23.4757 -23.3818 -23.3813
   -23.0512 -23.0508 -22.9694 -22.9690 -22.3304 -22.3263 -22.3175 -22.3129
   -19.5529 -19.5522 -19.5500 -19.5496 -18.7584 -18.7580 -18.7573 -18.7567
   -18.5244 -18.5227 -18.5187 -18.5170 -17.5825 -17.5824 -17.5600 -17.5594
   -16.1951 -16.1814 -16.1637 -16.1533 -16.1335 -16.1261 -16.1047 -16.0974
   -14.0779 -14.0612 -14.0609 -14.0488 -12.0558 -12.0510 -12.0438 -12.0309
   -11.2288 -11.2284 -11.2199 -11.2169 -10.5145 -10.5143 -10.4804 -10.4781
    -8.7167  -8.7115  -8.6983  -8.6957  -7.8368  -7.8084  -7.7817  -7.7803
    -7.0451  -7.0237  -6.9159  -6.9021  -6.7687  -6.7211  -6.6760  -6.6557
    -6.5718  -6.5251  -6.4937  -6.4834  -6.3441  -6.3250  -6.2375  -6.2202
    -6.1884  -6.1824  -5.8965  -5.7826  -5.7765  -5.7622  -5.7573  -5.7278
    -5.6998  -5.6661  -5.6020  -5.5936  -5.5103  -5.4926  -5.4780  -5.4376
    -5.3739  -5.3404  -5.3262  -5.2961  -5.2931  -5.2193  -5.1908  -5.1613
    -5.0833  -5.0578  -4.8565  -4.8528  -4.8357  -4.8017  -4.7818  -4.7642
    -4.7408  -4.6954  -4.6041  -4.5834  -2.9845  -2.9765  -2.9136  -2.9044
    -1.7889  -1.7886  -1.5491  -1.5483  -1.0323  -1.0241  -1.0109  -0.9821
    -0.9686  -0.9563  -0.9483  -0.9407  -0.7906  -0.7877  -0.7605  -0.7260
    -0.7018  -0.6967  -0.6310  -0.6296  -0.5931  -0.5828  -0.5407  -0.4950
    -0.2348  -0.2165  -0.2074  -0.1756  -0.1248  -0.1245  -0.0906  -0.0598
     0.0528   0.0565   0.1213   0.1432   0.1846   0.2004   0.2074   0.2579
     0.2987   0.3139   0.3242   0.3472   0.3847   0.4105   0.4600   0.4616
     1.0653   1.0656   1.1075   1.1166   1.1538   1.1684   1.1859   1.1955
     3.5482   3.5595   3.6357   3.6470   4.0844   4.0883   4.2477   4.2544
     4.5748   4.6036   4.6935   4.7074   5.9460   5.9574   6.1040   6.1124
     6.9747   7.0162   7.0274   7.0717   7.9089   8.2897   8.6281   8.9231
     8.9719   9.0231   9.0767   9.1255   9.3325   9.4233   9.7034   9.7521
     9.7674   9.8656   9.9904

          k = 0.0000 0.3567-0.2903 ( 96920 PWs)   bands (ev):

   -23.9614 -23.9614 -23.9484 -23.9484 -23.4770 -23.4768 -23.3816 -23.3815
   -23.0511 -23.0509 -22.9693 -22.9692 -22.3288 -22.3286 -22.3149 -22.3147
   -19.5526 -19.5526 -19.5498 -19.5498 -18.7579 -18.7578 -18.7574 -18.7572
   -18.5238 -18.5235 -18.5179 -18.5177 -17.5825 -17.5824 -17.5598 -17.5596
   -16.1893 -16.1892 -16.1614 -16.1613 -16.1201 -16.1200 -16.1070 -16.1070
   -14.0688 -14.0687 -14.0557 -14.0556 -12.0528 -12.0527 -12.0379 -12.0379
   -11.2287 -11.2287 -11.2184 -11.2183 -10.5147 -10.5144 -10.4792 -10.4789
    -8.7142  -8.7141  -8.6968  -8.6967  -7.8296  -7.8295  -7.7767  -7.7766
    -7.0066  -7.0065  -6.9240  -6.9239  -6.7453  -6.7453  -6.6757  -6.6755
    -6.5604  -6.5603  -6.5079  -6.5078  -6.3195  -6.3194  -6.2249  -6.2249
    -6.1520  -6.1519  -5.8488  -5.8486  -5.8189  -5.8188  -5.7217  -5.7216
    -5.6966  -5.6965  -5.5881  -5.5881  -5.4969  -5.4968  -5.4448  -5.4447
    -5.3559  -5.3558  -5.3022  -5.3021  -5.2495  -5.2494  -5.1834  -5.1833
    -5.0655  -5.0655  -4.8846  -4.8846  -4.8193  -4.8192  -4.7790  -4.7790
    -4.6940  -4.6940  -4.5938  -4.5937  -2.9806  -2.9805  -2.9092  -2.9090
    -1.7886  -1.7885  -1.5488  -1.5486  -1.0189  -1.0188  -1.0051  -1.0051
    -0.9816  -0.9814  -0.9245  -0.9244  -0.7816  -0.7815  -0.7615  -0.7614
    -0.6838  -0.6838  -0.6444  -0.6443  -0.5603  -0.5603  -0.5345  -0.5344
    -0.2372  -0.2371  -0.1920  -0.1919  -0.1078  -0.1077  -0.0866  -0.0866
     0.0561   0.0563   0.1247   0.1248   0.1904   0.1904   0.2305   0.2306
     0.3027   0.3028   0.3551   0.3553   0.4045   0.4047   0.4500   0.4501
     1.0639   1.0640   1.1077   1.1079   1.1621   1.1623   1.1960   1.1962
     3.5536   3.5536   3.6412   3.6413   4.0861   4.0862   4.2511   4.2512
     4.5869   4.5869   4.7026   4.7027   5.9521   5.9521   6.1081   6.1083
     6.9872   6.9873   7.0580   7.0581   8.0611   8.0612   8.8047   8.8049
     8.9644   8.9647   9.0920   9.0922   9.4853   9.4856   9.7130   9.7132
     9.8359   9.8360   9.9349

          k = 0.3333 0.0000 0.0567 ( 96864 PWs)   bands (ev):

   -23.9703 -23.9678 -23.9438 -23.9437 -23.4702 -23.4697 -23.3868 -23.3819
   -23.0518 -23.0512 -22.9692 -22.9674 -22.3275 -22.3271 -22.3189 -22.3165
   -19.5546 -19.5536 -19.5483 -19.5481 -18.7631 -18.7626 -18.7517 -18.7512
   -18.5249 -18.5225 -18.5193 -18.5167 -17.5796 -17.5784 -17.5627 -17.5623
   -16.1972 -16.1855 -16.1606 -16.1534 -16.1222 -16.1191 -16.1186 -16.1090
   -14.0740 -14.0724 -14.0549 -14.0534 -12.0647 -12.0529 -12.0365 -12.0262
   -11.2300 -11.2237 -11.2137 -11.2118 -10.5035 -10.4946 -10.4802 -10.4798
    -8.7382  -8.7248  -8.6861  -8.6745  -7.9064  -7.8298  -7.7994  -7.7740
    -7.0017  -6.8778  -6.8375  -6.7752  -6.6587  -6.6093  -6.6043  -6.5882
    -6.5621  -6.5337  -6.5055  -6.4815  -6.3465  -6.3405  -6.3338  -6.2558
    -6.2055  -6.1662  -6.1502  -5.9832  -5.9190  -5.8616  -5.7710  -5.7464
    -5.6849  -5.6760  -5.6385  -5.5801  -5.5668  -5.5312  -5.5166  -5.5102
    -5.4843  -5.3887  -5.3639  -5.3517  -5.2928  -5.2814  -5.2018  -5.1487
    -5.1078  -5.0682  -4.8671  -4.8341  -4.7918  -4.7864  -4.7508  -4.6937
    -4.6247  -4.5959  -4.4262  -4.4183  -2.9295  -2.9138  -2.8450  -2.8447
    -1.7934  -1.7913  -1.5445  -1.5375  -1.0689  -1.0579  -1.0314  -1.0300
    -1.0133  -0.9725  -0.9599  -0.9355  -0.8239  -0.7809  -0.7236  -0.7201
    -0.7083  -0.6653  -0.6313  -0.6221  -0.5801  -0.5225  -0.5207  -0.4374
    -0.2992  -0.2798  -0.2304  -0.2151  -0.1637  -0.1236  -0.1011  -0.0780
     0.0301   0.0346   0.0923   0.1068   0.1697   0.1866   0.2281   0.2516
     0.3093   0.3137   0.3514   0.3524   0.3579   0.4065   0.4363   0.4633
     1.0567   1.0811   1.1350   1.1634   1.1766   1.1891   1.2099   1.2292
     3.5191   3.5287   3.6820   3.6926   4.0838   4.0892   4.2445   4.2612
     4.5713   4.6331   4.7212   4.7437   5.9922   6.0066   6.0730   6.0850
     6.9567   7.0160   7.0325   7.1017   7.8862   8.3870   8.5815   8.8152
     8.8402   8.9469   9.1247   9.1399   9.4372   9.4474   9.5389   9.7019
     9.7888   9.7936   9.8173

          k = 0.3333 0.0000-0.2336 ( 96900 PWs)   bands (ev):

   -23.9693 -23.9688 -23.9439 -23.9436 -23.4710 -23.4689 -23.3853 -23.3834
   -23.0518 -23.0511 -22.9686 -22.9680 -22.3287 -22.3252 -22.3196 -22.3163
   -19.5541 -19.5541 -19.5482 -19.5482 -18.7630 -18.7627 -18.7517 -18.7512
   -18.5242 -18.5238 -18.5178 -18.5175 -17.5793 -17.5787 -17.5628 -17.5622
   -16.1928 -16.1869 -16.1576 -16.1567 -16.1336 -16.1276 -16.1087 -16.1015
   -14.0813 -14.0725 -14.0506 -14.0503 -12.0632 -12.0559 -12.0329 -12.0286
   -11.2290 -11.2246 -11.2135 -11.2121 -10.5010 -10.4961 -10.4823 -10.4785
    -8.7330  -8.7308  -8.6806  -8.6792  -7.8773  -7.8522  -7.8059  -7.7826
    -6.9180  -6.8905  -6.8614  -6.8126  -6.6754  -6.6366  -6.6161  -6.5773
    -6.5399  -6.5372  -6.4993  -6.4853  -6.3502  -6.3358  -6.2619  -6.2511
    -6.2202  -6.2154  -6.1016  -6.0735  -5.8930  -5.8558  -5.7501  -5.7453
    -5.7037  -5.6582  -5.5982  -5.5980  -5.5624  -5.5283  -5.5154  -5.5133
    -5.4664  -5.4167  -5.3833  -5.3582  -5.2855  -5.2743  -5.1960  -5.1863
    -5.0877  -5.0860  -4.8578  -4.8418  -4.7955  -4.7546  -4.7279  -4.7130
    -4.6273  -4.6045  -4.4313  -4.4147  -2.9283  -2.9153  -2.8498  -2.8394
    -1.7929  -1.7920  -1.5444  -1.5377  -1.0628  -1.0617  -1.0253  -1.0224
    -1.0134  -0.9918  -0.9446  -0.9419  -0.8387  -0.8031  -0.7304  -0.7079
    -0.6783  -0.6491  -0.6392  -0.6237  -0.5716  -0.5308  -0.4958  -0.4763
    -0.3024  -0.2652  -0.2537  -0.2010  -0.1528  -0.1333  -0.1152  -0.0730
     0.0253   0.0383   0.1037   0.1043   0.1662   0.1738   0.2442   0.2445
     0.3118   0.3320   0.3409   0.3551   0.3839   0.3967   0.4319   0.4464
     1.0598   1.0785   1.1422   1.1666   1.1832   1.1832   1.2059   1.2216
     3.5220   3.5251   3.6868   3.6881   4.0800   4.0928   4.2456   4.2623
     4.5970   4.5978   4.7338   4.7393   5.9881   6.0104   6.0695   6.0888
     6.9750   6.9759   7.0760   7.0795   8.0440   8.0663   8.7836   8.8422
     8.8866   8.9874   9.0204   9.1987   9.3058   9.4226   9.5993   9.6087
     9.7183   9.7562   9.9277

          k = 0.3333 0.3567 0.0567 ( 96921 PWs)   bands (ev):

   -23.9621 -23.9603 -23.9488 -23.9482 -23.4726 -23.4722 -23.3877 -23.3853
   -23.0521 -23.0517 -22.9690 -22.9680 -22.3329 -22.3281 -22.3148 -22.3101
   -19.5532 -19.5524 -19.5501 -19.5496 -18.7632 -18.7630 -18.7527 -18.7522
   -18.5241 -18.5229 -18.5185 -18.5172 -17.5863 -17.5836 -17.5595 -17.5572
   -16.1887 -16.1744 -16.1680 -16.1496 -16.1293 -16.1242 -16.1096 -16.1044
   -14.0700 -14.0640 -14.0605 -14.0547 -12.0607 -12.0486 -12.0431 -12.0320
   -11.2326 -11.2288 -11.2171 -11.2153 -10.5082 -10.5032 -10.4854 -10.4833
    -8.7277  -8.7195  -8.6936  -8.6867  -7.8698  -7.8044  -7.7946  -7.7795
    -7.0541  -7.0076  -6.9300  -6.8863  -6.7545  -6.7398  -6.7020  -6.6621
    -6.6013  -6.5380  -6.4980  -6.4844  -6.3062  -6.2622  -6.2310  -6.2043
    -6.1724  -6.1606  -5.9666  -5.8356  -5.8105  -5.7370  -5.7189  -5.6941
    -5.6811  -5.6350  -5.6091  -5.5924  -5.5283  -5.5038  -5.4562  -5.4488
    -5.3783  -5.3485  -5.3409  -5.2881  -5.2710  -5.2447  -5.1917  -5.1500
    -5.1154  -5.0399  -4.8873  -4.8436  -4.8268  -4.8253  -4.8161  -4.7871
    -4.7150  -4.6671  -4.6124  -4.5842  -2.9170  -2.9016  -2.8684  -2.8579
    -1.7941  -1.7833  -1.5512  -1.5399  -1.0716  -1.0527  -1.0433  -1.0229
    -1.0007  -0.9797  -0.9521  -0.9505  -0.8125  -0.7653  -0.7320  -0.7090
    -0.6919  -0.6631  -0.6351  -0.6252  -0.5972  -0.5657  -0.5481  -0.4981
    -0.2484  -0.2264  -0.1995  -0.1867  -0.1594  -0.1292  -0.0949  -0.0858
     0.0533   0.0541   0.1124   0.1258   0.1882   0.1975   0.2133   0.2603
     0.3075   0.3250   0.3488   0.3686   0.3820   0.3902   0.4430   0.4602
     1.0425   1.0589   1.1145   1.1339   1.1661   1.1718   1.1846   1.1951
     3.5481   3.5642   3.6293   3.6441   4.0737   4.0791   4.2394   4.2512
     4.5723   4.6042   4.7090   4.7223   5.9580   5.9739   6.0417   6.0642
     6.9761   7.0139   7.0471   7.0888   8.1344   8.4421   8.7860   8.8843
     8.9459   9.0284   9.0899   9.1848   9.2770   9.4675   9.5417   9.6873
     9.7625   9.8119   9.8770

          k = 0.3333 0.3567-0.2336 ( 96878 PWs)   bands (ev):

   -23.9613 -23.9611 -23.9485 -23.9484 -23.4730 -23.4718 -23.3870 -23.3860
   -23.0521 -23.0517 -22.9687 -22.9683 -22.3318 -22.3296 -22.3131 -22.3113
   -19.5528 -19.5528 -19.5498 -19.5498 -18.7632 -18.7631 -18.7527 -18.7523
   -18.5237 -18.5234 -18.5179 -18.5176 -17.5862 -17.5836 -17.5595 -17.5572
   -16.1836 -16.1764 -16.1667 -16.1591 -16.1281 -16.1193 -16.1112 -16.1039
   -14.0731 -14.0651 -14.0580 -14.0529 -12.0576 -12.0522 -12.0393 -12.0355
   -11.2318 -11.2293 -11.2171 -11.2157 -10.5068 -10.5042 -10.4856 -10.4834
    -8.7266  -8.7201  -8.6933  -8.6876  -7.8427  -7.8238  -7.8010  -7.7839
    -7.0276  -6.9894  -6.9596  -6.9264  -6.7342  -6.7130  -6.6998  -6.6676
    -6.6016  -6.5846  -6.4899  -6.4512  -6.2857  -6.2722  -6.2360  -6.2134
    -6.1920  -6.1723  -5.8937  -5.8826  -5.7864  -5.7603  -5.7171  -5.6954
    -5.6803  -5.6529  -5.6045  -5.5537  -5.5324  -5.5298  -5.4744  -5.4210
    -5.3668  -5.3523  -5.3360  -5.3083  -5.2825  -5.2512  -5.1827  -5.1518
    -5.0895  -5.0765  -4.8711  -4.8601  -4.8390  -4.7993  -4.7934  -4.7682
    -4.7110  -4.7057  -4.6060  -4.5900  -2.9174  -2.9017  -2.8701  -2.8559
    -1.7940  -1.7833  -1.5510  -1.5398  -1.0701  -1.0611  -1.0312  -1.0179
    -1.0060  -0.9938  -0.9508  -0.9452  -0.8097  -0.7670  -0.7372  -0.7132
    -0.6832  -0.6637  -0.6506  -0.6210  -0.5765  -0.5683  -0.5373  -0.5129
    -0.2643  -0.2302  -0.2043  -0.1745  -0.1404  -0.1240  -0.1043  -0.0854
     0.0521   0.0565   0.1131   0.1234   0.1878   0.1999   0.2293   0.2348
     0.3170   0.3278   0.3412   0.3579   0.3871   0.3992   0.4462   0.4542
     1.0457   1.0564   1.1190   1.1323   1.1611   1.1760   1.1835   1.1922
     3.5483   3.5635   3.6307   3.6431   4.0730   4.0803   4.2418   4.2498
     4.5823   4.5901   4.7138   4.7206   5.9574   5.9749   6.0407   6.0649
     6.9856   6.9932   7.0679   7.0791   8.2219   8.3014   8.8360   8.9325
     8.9638   9.0060   9.0424   9.1390   9.3389   9.5250   9.5617   9.6050
     9.7598   9.7894   9.8672

          k =-0.3333 0.3567-0.0567 ( 96921 PWs)   bands (ev):

   -23.9621 -23.9603 -23.9488 -23.9482 -23.4725 -23.4723 -23.3877 -23.3853
   -23.0521 -23.0517 -22.9690 -22.9681 -22.3328 -22.3282 -22.3149 -22.3100
   -19.5532 -19.5524 -19.5501 -19.5496 -18.7634 -18.7629 -18.7526 -18.7523
   -18.5241 -18.5229 -18.5185 -18.5172 -17.5861 -17.5837 -17.5597 -17.5570
   -16.1887 -16.1743 -16.1681 -16.1497 -16.1294 -16.1241 -16.1096 -16.1045
   -14.0700 -14.0640 -14.0605 -14.0547 -12.0607 -12.0485 -12.0432 -12.0320
   -11.2326 -11.2288 -11.2171 -11.2154 -10.5082 -10.5032 -10.4851 -10.4836
    -8.7278  -8.7194  -8.6935  -8.6869  -7.8698  -7.8043  -7.7947  -7.7795
    -7.0541  -7.0076  -6.9300  -6.8863  -6.7545  -6.7398  -6.7020  -6.6621
    -6.6014  -6.5380  -6.4979  -6.4844  -6.3062  -6.2622  -6.2311  -6.2043
    -6.1724  -6.1606  -5.9665  -5.8356  -5.8105  -5.7371  -5.7190  -5.6941
    -5.6810  -5.6350  -5.6090  -5.5923  -5.5284  -5.5038  -5.4562  -5.4489
    -5.3782  -5.3485  -5.3408  -5.2880  -5.2709  -5.2447  -5.1917  -5.1501
    -5.1154  -5.0399  -4.8873  -4.8435  -4.8268  -4.8253  -4.8161  -4.7871
    -4.7150  -4.6671  -4.6124  -4.5842  -2.9169  -2.9017  -2.8685  -2.8578
    -1.7940  -1.7835  -1.5514  -1.5397  -1.0716  -1.0527  -1.0434  -1.0228
    -1.0008  -0.9797  -0.9520  -0.9506  -0.8125  -0.7653  -0.7320  -0.7090
    -0.6919  -0.6632  -0.6351  -0.6250  -0.5971  -0.5658  -0.5481  -0.4981
    -0.2483  -0.2265  -0.1994  -0.1868  -0.1595  -0.1292  -0.0950  -0.0858
     0.0532   0.0542   0.1124   0.1259   0.1882   0.1975   0.2133   0.2604
     0.3074   0.3251   0.3488   0.3687   0.3821   0.3900   0.4430   0.4603
     1.0425   1.0589   1.1145   1.1339   1.1660   1.1718   1.1846   1.1952
     3.5480   3.5642   3.6293   3.6441   4.0737   4.0792   4.2394   4.2513
     4.5724   4.6042   4.7089   4.7223   5.9582   5.9738   6.0417   6.0642
     6.9761   7.0138   7.0471   7.0888   8.1344   8.4421   8.7861   8.8844
     8.9459   9.0281   9.0901   9.1849   9.2770   9.4674   9.5419   9.6872
     9.7626   9.8117   9.8768

          k =-0.3333 0.3567 0.2336 ( 96878 PWs)   bands (ev):

   -23.9613 -23.9611 -23.9485 -23.9484 -23.4730 -23.4718 -23.3870 -23.3860
   -23.0521 -23.0517 -22.9687 -22.9684 -22.3316 -22.3298 -22.3133 -22.3111
   -19.5528 -19.5528 -19.5498 -19.5498 -18.7634 -18.7629 -18.7526 -18.7523
   -18.5237 -18.5234 -18.5179 -18.5176 -17.5861 -17.5837 -17.5597 -17.5570
   -16.1836 -16.1764 -16.1666 -16.1592 -16.1281 -16.1193 -16.1112 -16.1039
   -14.0730 -14.0652 -14.0580 -14.0529 -12.0575 -12.0523 -12.0393 -12.0354
   -11.2319 -11.2292 -11.2170 -11.2157 -10.5068 -10.5042 -10.4853 -10.4837
    -8.7268  -8.7199  -8.6931  -8.6878  -7.8427  -7.8238  -7.8010  -7.7840
    -7.0276  -6.9893  -6.9596  -6.9264  -6.7342  -6.7130  -6.6997  -6.6676
    -6.6015  -6.5848  -6.4899  -6.4512  -6.2856  -6.2722  -6.2361  -6.2134
    -6.1920  -6.1724  -5.8937  -5.8826  -5.7864  -5.7603  -5.7171  -5.6954
    -5.6803  -5.6529  -5.6045  -5.5536  -5.5325  -5.5298  -5.4744  -5.4211
    -5.3667  -5.3523  -5.3360  -5.3082  -5.2824  -5.2512  -5.1827  -5.1518
    -5.0895  -5.0765  -4.8711  -4.8601  -4.8389  -4.7993  -4.7934  -4.7682
    -4.7109  -4.7057  -4.6060  -4.5900  -2.9174  -2.9018  -2.8702  -2.8558
    -1.7939  -1.7834  -1.5512  -1.5396  -1.0700  -1.0612  -1.0313  -1.0178
    -1.0061  -0.9937  -0.9508  -0.9453  -0.8097  -0.7669  -0.7372  -0.7133
    -0.6832  -0.6637  -0.6506  -0.6209  -0.5766  -0.5683  -0.5372  -0.5130
    -0.2641  -0.2303  -0.2043  -0.1745  -0.1404  -0.1240  -0.1043  -0.0854
     0.0522   0.0564   0.1130   0.1234   0.1878   0.1999   0.2293   0.2349
     0.3169   0.3279   0.3410   0.3580   0.3872   0.3991   0.4462   0.4542
     1.0456   1.0565   1.1189   1.1324   1.1610   1.1759   1.1836   1.1923
     3.5483   3.5635   3.6308   3.6431   4.0730   4.0803   4.2417   4.2499
     4.5824   4.5901   4.7137   4.7207   5.9575   5.9747   6.0407   6.0649
     6.9856   6.9932   7.0679   7.0792   8.2218   8.3015   8.8359   8.9324
     8.9639   9.0060   9.0422   9.1391   9.3391   9.5250   9.5616   9.6049
     9.7598   9.7894   9.8670

     highest occupied, lowest unoccupied level (ev):     1.2292    3.5101

!    total energy              =   -2066.70699915 Ry
     Harris-Foulkes estimate   =   -2066.70699915 Ry
     estimated scf accuracy    <          8.9E-09 Ry

     total all-electron energy =     -7742.706795 Ry

     The total energy is the sum of the following terms:

     one-electron contribution =   -1077.91192711 Ry
     hartree contribution      =     686.33948419 Ry
     xc contribution           =    -394.10531761 Ry
     ewald contribution        =    -733.97013655 Ry
     Dispersion Correction     =      -0.36061069 Ry
     one-center paw contrib.   =    -546.69849138 Ry

     convergence has been achieved in  15 iterations

     Forces acting on atoms (cartesian axes, Ry/au):

     atom    1 type  4   force =    -0.00142841   -0.00031609   -0.00052185
     atom    2 type  4   force =     0.00135025   -0.00017019    0.00045442
     atom    3 type  4   force =     0.00142841    0.00031609    0.00052185
     atom    4 type  4   force =    -0.00135025    0.00017019   -0.00045442
     atom    5 type  4   force =     0.00321143   -0.00346025    0.00106331
     atom    6 type  4   force =    -0.00321087   -0.00348235   -0.00107955
     atom    7 type  4   force =    -0.00321143    0.00346025   -0.00106331
     atom    8 type  4   force =     0.00321087    0.00348235    0.00107955
     atom    9 type  4   force =    -0.00157149   -0.00102242    0.00134876
     atom   10 type  4   force =     0.00156147   -0.00101197   -0.00134734
     atom   11 type  4   force =     0.00157149    0.00102242   -0.00134876
     atom   12 type  4   force =    -0.00156147    0.00101197    0.00134734
     atom   13 type  4   force =    -0.00049763   -0.00014955    0.00058930
     atom   14 type  4   force =     0.00047869   -0.00014081   -0.00057857
     atom   15 type  4   force =     0.00049763    0.00014955   -0.00058930
     atom   16 type  4   force =    -0.00047869    0.00014081    0.00057857
     atom   17 type  2   force =    -0.00013154   -0.00014953   -0.00021511
     atom   18 type  2   force =     0.00020946   -0.00016952    0.00022671
     atom   19 type  2   force =     0.00013154    0.00014953    0.00021511
     atom   20 type  2   force =    -0.00020946    0.00016952   -0.00022671
     atom   21 type  4   force =     0.00082299    0.00046989    0.00066681
     atom   22 type  4   force =    -0.00085509    0.00048952   -0.00066791
     atom   23 type  4   force =    -0.00082299   -0.00046989   -0.00066681
     atom   24 type  4   force =     0.00085509   -0.00048952    0.00066791
     atom   25 type  2   force =    -0.00114450    0.00003948   -0.00157034
     atom   26 type  2   force =     0.00114757    0.00004784    0.00157853
     atom   27 type  2   force =     0.00114450   -0.00003948    0.00157034
     atom   28 type  2   force =    -0.00114757   -0.00004784   -0.00157853
     atom   29 type  4   force =     0.00025537   -0.00102971   -0.00034748
     atom   30 type  4   force =    -0.00031865   -0.00102121    0.00021820
     atom   31 type  4   force =    -0.00025537    0.00102971    0.00034748
     atom   32 type  4   force =     0.00031865    0.00102121   -0.00021820
     atom   33 type  2   force =     0.00010628   -0.00046641    0.00226826
     atom   34 type  2   force =     0.00004458   -0.00063290   -0.00206885
     atom   35 type  2   force =    -0.00010628    0.00046641   -0.00226826
     atom   36 type  2   force =    -0.00004458    0.00063290    0.00206885
     atom   37 type  2   force =    -0.00000978    0.00012710    0.00106913
     atom   38 type  2   force =     0.00001630    0.00012997   -0.00106759
     atom   39 type  2   force =     0.00000978   -0.00012710   -0.00106913
     atom   40 type  2   force =    -0.00001630   -0.00012997    0.00106759
     atom   41 type  2   force =    -0.00055518    0.00211603   -0.00120500
     atom   42 type  2   force =     0.00056412    0.00213655    0.00123666
     atom   43 type  2   force =     0.00055518   -0.00211603    0.00120500
     atom   44 type  2   force =    -0.00056412   -0.00213655   -0.00123666
     atom   45 type  2   force =     0.00077464    0.00133958   -0.00033503
     atom   46 type  2   force =    -0.00077323    0.00133948    0.00033681
     atom   47 type  2   force =    -0.00077464   -0.00133958    0.00033503
     atom   48 type  2   force =     0.00077323   -0.00133948   -0.00033681
     atom   49 type  2   force =    -0.00032304    0.00005014   -0.00023286
     atom   50 type  2   force =     0.00033236    0.00004258    0.00023688
     atom   51 type  2   force =     0.00032304   -0.00005014    0.00023286
     atom   52 type  2   force =    -0.00033236   -0.00004258   -0.00023688
     atom   53 type  1   force =     0.00213080   -0.00044113    0.00068998
     atom   54 type  1   force =    -0.00212599   -0.00043053   -0.00068640
     atom   55 type  1   force =    -0.00213080    0.00044113   -0.00068998
     atom   56 type  1   force =     0.00212599    0.00043053    0.00068640
     atom   57 type  1   force =     0.00105128    0.00268422    0.00019145
     atom   58 type  1   force =    -0.00106872    0.00270368   -0.00031019
     atom   59 type  1   force =    -0.00105128   -0.00268422   -0.00019145
     atom   60 type  1   force =     0.00106872   -0.00270368    0.00031019
     atom   61 type  2   force =    -0.00011131   -0.00117071    0.00008255
     atom   62 type  2   force =     0.00011341   -0.00118241   -0.00010173
     atom   63 type  2   force =     0.00011131    0.00117071   -0.00008255
     atom   64 type  2   force =    -0.00011341    0.00118241    0.00010173
     atom   65 type  3   force =    -0.00069249   -0.00021419   -0.00063617
     atom   66 type  3   force =     0.00069027   -0.00021282    0.00064046
     atom   67 type  3   force =     0.00069249    0.00021419    0.00063617
     atom   68 type  3   force =    -0.00069027    0.00021282   -0.00064046
     atom   69 type  3   force =    -0.00073555    0.00126350    0.00086392
     atom   70 type  3   force =     0.00073414    0.00126667   -0.00086131
     atom   71 type  3   force =     0.00073555   -0.00126350   -0.00086392
     atom   72 type  3   force =    -0.00073414   -0.00126667    0.00086131
     atom   73 type  3   force =     0.00042478   -0.00105663    0.00059213
     atom   74 type  3   force =    -0.00042878   -0.00105738   -0.00059465
     atom   75 type  3   force =    -0.00042478    0.00105663   -0.00059213
     atom   76 type  3   force =     0.00042878    0.00105738    0.00059465
     atom   77 type  3   force =     0.00066347    0.00181701    0.00015797
     atom   78 type  3   force =    -0.00067033    0.00182072   -0.00015777
     atom   79 type  3   force =    -0.00066347   -0.00181701   -0.00015797
     atom   80 type  3   force =     0.00067033   -0.00182072    0.00015777

     Total force =     0.017621     Total SCF correction =     0.000211


     Computing stress (Cartesian axis) and pressure

          total   stress  (Ry/bohr**3)                   (kbar)     P=    2.28
   0.00000260  -0.00000004  -0.00000911          0.38     -0.01     -1.34
  -0.00000004   0.00001359  -0.00000002         -0.01      2.00     -0.00
  -0.00000911  -0.00000002   0.00003021         -1.34     -0.00      4.44


     Writing output data file scf.save
 
     init_run     :     46.28s CPU     48.88s WALL (       1 calls)
     electrons    :   1454.62s CPU   1544.27s WALL (       1 calls)
     forces       :     23.25s CPU     23.46s WALL (       1 calls)
     stress       :    162.98s CPU    163.43s WALL (       1 calls)

     Called by init_run:
     wfcinit      :     34.99s CPU     37.29s WALL (       1 calls)
     potinit      :      4.06s CPU      4.11s WALL (       1 calls)

     Called by electrons:
     c_bands      :   1297.46s CPU   1372.52s WALL (      15 calls)
     sum_band     :    145.38s CPU    158.66s WALL (      15 calls)
     v_of_rho     :      1.78s CPU      1.99s WALL (      16 calls)
     newd         :      3.98s CPU      4.95s WALL (      16 calls)
     PAW_pot      :      5.54s CPU      5.55s WALL (      16 calls)
     mix_rho      :      0.42s CPU      0.46s WALL (      15 calls)

     Called by c_bands:
     init_us_2    :      8.58s CPU      8.62s WALL (     330 calls)
     cegterg      :   1257.57s CPU   1332.53s WALL (     150 calls)

     Called by sum_band:
     sum_band:bec :      0.09s CPU      0.09s WALL (     150 calls)
     addusdens    :      4.25s CPU      5.10s WALL (      15 calls)

     Called by *egterg:
     h_psi        :    709.21s CPU    769.88s WALL (     754 calls)
     s_psi        :    114.74s CPU    114.80s WALL (     754 calls)
     g_psi        :      4.04s CPU      4.05s WALL (     594 calls)
     cdiaghg      :     84.29s CPU     84.40s WALL (     744 calls)

     Called by h_psi:
     h_psi:pot    :    703.25s CPU    763.82s WALL (     754 calls)
     h_psi:calbec :    127.19s CPU    127.60s WALL (     754 calls)
     vloc_psi     :    460.97s CPU    521.05s WALL (     754 calls)
     add_vuspsi   :    115.10s CPU    115.17s WALL (     754 calls)

     General routines
     calbec       :    198.38s CPU    199.02s WALL (     954 calls)
     fft          :      4.50s CPU      4.96s WALL (     232 calls)
     fftw         :    495.65s CPU    567.77s WALL (  199616 calls)
 
     Parallel routines
     fft_scatter  :    131.68s CPU    197.48s WALL (  199848 calls)
 
     PWSCF        : 28m19.34s CPU    31m 1.12s WALL

 
   This run was terminated on:   2:57:29   4Nov2017            

=------------------------------------------------------------------------------=
   JOB DONE.
=------------------------------------------------------------------------------=
