
     Program PWSCF v.6.1 (svn rev. 13369) starts on 27Nov2017 at 10:47:35 

     This program is part of the open-source Quantum ESPRESSO suite
     for quantum simulation of materials; please cite
         "P. Giannozzi et al., J. Phys.:Condens. Matter 21 395502 (2009);
          URL http://www.quantum-espresso.org", 
     in publications or presentations arising from this work. More details at
     http://www.quantum-espresso.org/quote

     Parallel version (MPI), running on     8 processors
     R & G space division:  proc/nbgrp/npool/nimage =       8
     Waiting for input...
     Reading input from standard input

     Current dimensions of program PWSCF are:
     Max number of different atomic species (ntypx) = 10
     Max number of k-points (npk) =  40000
     Max angular momentum in pseudopotentials (lmaxx) =  3
               file C.pbe-n-kjpaw_psl.0.1.UPF: wavefunction(s)  2P renormalized
               file N.pbe-n-kjpaw_psl.0.1.UPF: wavefunction(s)  2P renormalized
               file H.pbe-kjpaw_psl.0.1.UPF: wavefunction(s)  1S renormalized
               file O.pbe-n-kjpaw_psl.0.1.UPF: wavefunction(s)  2P renormalized

     -------------------------------------
     Parameters for Dispersion Correction:
     -------------------------------------
       atom      VdW radius       C_6     

        C          2.744         60.710
        N          2.640         42.670
        H          1.892          4.857
        O          2.536         24.284

     Subspace diagonalization in iterative solution of the eigenvalue problem:
     a serial algorithm will be used

 
     Parallelization info
     --------------------
     sticks:   dense  smooth     PW     G-vecs:    dense   smooth      PW
     Min        1798    1798    473                98289    98289   13294
     Max        1799    1799    474                98291    98291   13297
     Sum       14389   14389   3791               786323   786323  106367
 


     bravais-lattice index     =            0
     lattice parameter (alat)  =      15.0424  a.u.
     unit-cell volume          =    5820.4315 (a.u.)^3
     number of atoms/cell      =           96
     number of atomic types    =            4
     number of electrons       =       368.00
     number of Kohn-Sham states=          220
     kinetic-energy cutoff     =     100.0000  Ry
     charge density cutoff     =     400.0000  Ry
     convergence threshold     =      1.0E-08
     mixing beta               =       0.5000
     number of iterations used =            8  plain     mixing
     Exchange-correlation      =  SLA  PW   PBX  PBC ( 1  4  3  4 0 0)

     celldm(1)=  15.042409  celldm(2)=   0.000000  celldm(3)=   0.000000
     celldm(4)=   0.000000  celldm(5)=   0.000000  celldm(6)=   0.000000

     crystal axes: (cart. coord. in units of alat)
               a(1) = (   1.000000   0.000000   0.000000 )  
               a(2) = (   0.000000   1.999598   0.000000 )  
               a(3) = (  -0.251662   0.000000   0.855185 )  

     reciprocal axes: (cart. coord. in units 2 pi/alat)
               b(1) = (  1.000000  0.000000  0.294278 )  
               b(2) = (  0.000000  0.500101  0.000000 )  
               b(3) = (  0.000000  0.000000  1.169337 )  


     PseudoPot. # 1 for  C read from file:
     /scratch/ahofstet/pseudo/C.pbe-n-kjpaw_psl.0.1.UPF
     MD5 check sum: 430fe95172b1e11ef3f8ed03bac87931
     Pseudo is Projector augmented-wave + core cor, Zval =  4.0
     Generated using "atomic" code by A. Dal Corso  v.5.0.99 svn rev. 10869
     Shape of augmentation charge: BESSEL
     Using radial grid of 1073 points,  4 beta functions with: 
                l(1) =   0
                l(2) =   0
                l(3) =   1
                l(4) =   1
     Q(r) pseudized with 0 coefficients 


     PseudoPot. # 2 for  N read from file:
     /scratch/ahofstet/pseudo/N.pbe-n-kjpaw_psl.0.1.UPF
     MD5 check sum: f73187c8b701007e77325f868c9291d7
     Pseudo is Projector augmented-wave + core cor, Zval =  5.0
     Generated using "atomic" code by A. Dal Corso  v.5.0.99 svn rev. 10869
     Shape of augmentation charge: PSQ
     Using radial grid of 1085 points,  4 beta functions with: 
                l(1) =   0
                l(2) =   0
                l(3) =   1
                l(4) =   1
     Q(r) pseudized with 0 coefficients 


     PseudoPot. # 3 for  H read from file:
     /scratch/ahofstet/pseudo/H.pbe-kjpaw_psl.0.1.UPF
     MD5 check sum: 94e484f906d9e9773b2f6e52662335b2
     Pseudo is Projector augmented-wave, Zval =  1.0
     Generated using "atomic" code by A. Dal Corso  v.5.0.99 svn rev. 10869
     Shape of augmentation charge: PSQ
     Using radial grid of  929 points,  2 beta functions with: 
                l(1) =   0
                l(2) =   0
     Q(r) pseudized with 0 coefficients 


     PseudoPot. # 4 for  O read from file:
     /scratch/ahofstet/pseudo/O.pbe-n-kjpaw_psl.0.1.UPF
     MD5 check sum: 3f94a2996a3169367d6eb21d9b593f20
     Pseudo is Projector augmented-wave + core cor, Zval =  6.0
     Generated using "atomic" code by A. Dal Corso  v.5.0.99 svn rev. 10869
     Shape of augmentation charge: BESSEL
     Using radial grid of 1095 points,  4 beta functions with: 
                l(1) =   0
                l(2) =   0
                l(3) =   1
                l(4) =   1
     Q(r) pseudized with 0 coefficients 


     atomic species   valence    mass     pseudopotential
        C              4.00    12.01070      C( 1.00)
        N              5.00    14.00670      N( 1.00)
        H              1.00     1.00794      H( 1.00)
        O              6.00    15.99940      O( 1.00)

      4 Sym. Ops., with inversion, found ( 2 have fractional translation)



   Cartesian axes

     site n.     atom                  positions (alat units)
         1           N   tau(   1) = (   0.2073942   0.0917129   0.0149592  )
         2           N   tau(   2) = (   0.6667746   1.0915118   0.4126335  )
         3           N   tau(   3) = (   0.5409435   1.9078851   0.8402263  )
         4           N   tau(   4) = (   0.0815630   0.9080861   0.4425519  )
         5           N   tau(   5) = (   0.2725022   0.1022763   0.1740480  )
         6           N   tau(   6) = (   0.6016666   1.1020753   0.2535447  )
         7           N   tau(   7) = (   0.4758354   1.8973217   0.6811375  )
         8           N   tau(   8) = (   0.1466711   0.8975227   0.6016407  )
         9           N   tau(   9) = (   0.1251150   0.3303534   0.1059903  )
        10           N   tau(  10) = (   0.7490538   1.3301524   0.3216025  )
        11           N   tau(  11) = (   0.6232226   1.6692446   0.7491952  )
        12           N   tau(  12) = (  -0.0007161   0.6694456   0.5335830  )
        13           N   tau(  13) = (   0.0421721   0.4822020   0.1322769  )
        14           N   tau(  14) = (   0.8319967   1.4820010   0.2953158  )
        15           N   tau(  15) = (   0.7061655   1.5173960   0.7229086  )
        16           N   tau(  16) = (  -0.0836590   0.5175970   0.5598696  )
        17           N   tau(  17) = (   0.2363176   0.3171567   0.3841701  )
        18           N   tau(  18) = (   0.6378512   1.3169557   0.0434226  )
        19           N   tau(  19) = (   0.5120200   1.6824413   0.4710154  )
        20           N   tau(  20) = (   0.1104865   0.6826423   0.8117629  )
        21           C   tau(  21) = (  -0.1307237   0.2261002   0.8271841  )
        22           C   tau(  22) = (   0.7532302   1.2258992   0.4555941  )
        23           C   tau(  23) = (   0.8790613   1.7734978   0.0280013  )
        24           C   tau(  24) = (  -0.0048925   0.7736988   0.3995914  )
        25           H   tau(  25) = (  -0.1953640   0.2477167   0.7085822  )
        26           H   tau(  26) = (   0.8178705   1.2475157   0.5741960  )
        27           H   tau(  27) = (   0.9437017   1.7518812   0.1466033  )
        28           H   tau(  28) = (  -0.0695329   0.7520822   0.2809894  )
        29           C   tau(  29) = (   0.2189153   0.2496529   0.2275322  )
        30           C   tau(  30) = (   0.6552535   1.2494519   0.2000605  )
        31           C   tau(  31) = (   0.5294224   1.7499451   0.6276532  )
        32           C   tau(  32) = (   0.0930841   0.7501461   0.6551250  )
        33           N   tau(  33) = (   0.3155206   0.2123095   0.5054579  )
        34           N   tau(  34) = (   0.3069859   1.2121085   0.7773203  )
        35           N   tau(  35) = (   0.4328170   1.7872885   0.3497276  )
        36           N   tau(  36) = (   0.4413518   0.7874895   0.0778652  )
        37           H   tau(  37) = (  -0.0086593  -0.0040435   0.7893240  )
        38           H   tau(  38) = (   0.6311658   0.9957555   0.4934542  )
        39           H   tau(  39) = (   0.7569970   2.0036415   0.0658614  )
        40           H   tau(  40) = (   0.1171719   1.0038425   0.3617313  )
        41           H   tau(  41) = (   0.0773267   0.5666937   0.0413240  )
        42           H   tau(  42) = (   0.7968421   1.5664927   0.3862687  )
        43           H   tau(  43) = (   0.6710110   1.4329043   0.8138614  )
        44           H   tau(  44) = (  -0.0485045   0.4331053   0.4689168  )
        45           H   tau(  45) = (   0.9150382   0.4605805   0.1243973  )
        46           H   tau(  46) = (  -0.0408693   1.4603795   0.3031954  )
        47           H   tau(  47) = (  -0.1667005   1.5390175   0.7307882  )
        48           H   tau(  48) = (   0.7892070   0.5392185   0.5519900  )
        49           H   tau(  49) = (   0.2771666   0.4423352   0.3892749  )
        50           H   tau(  50) = (   0.5970023   1.4421342   0.0383178  )
        51           H   tau(  51) = (   0.4711711   1.5572628   0.4659105  )
        52           H   tau(  52) = (   0.1513354   0.5574638   0.8168677  )
        53           H   tau(  53) = (   0.2551884   0.0951119   0.5090370  )
        54           H   tau(  54) = (   0.3673181   1.0949109   0.7737412  )
        55           H   tau(  55) = (   0.4931492   1.9044861   0.3461484  )
        56           H   tau(  56) = (   0.3810196   0.9046871   0.0814443  )
        57           H   tau(  57) = (   0.4478651   0.2009352   0.4911285  )
        58           H   tau(  58) = (   0.1746414   1.2007342   0.7916497  )
        59           H   tau(  59) = (   0.3004726   1.7986628   0.3640569  )
        60           H   tau(  60) = (   0.5736962   0.7988638   0.0635358  )
        61           H   tau(  61) = (   0.2905362   0.2682399   0.6243740  )
        62           H   tau(  62) = (   0.3319703   1.2680389   0.6584042  )
        63           H   tau(  63) = (   0.4578014   1.7313581   0.2308115  )
        64           H   tau(  64) = (   0.4163674   0.7315591   0.1967813  )
        65           N   tau(  65) = (   0.7352504   0.1504397   0.3711374  )
        66           N   tau(  66) = (   0.1389184   1.1502387   0.0564553  )
        67           N   tau(  67) = (   0.0130873   1.8491583   0.4840480  )
        68           N   tau(  68) = (   0.6094192   0.8493593   0.7987302  )
        69           O   tau(  69) = (   0.6611473   0.2178713   0.4952601  )
        70           O   tau(  70) = (  -0.0386408   1.2176703   0.7875181  )
        71           O   tau(  71) = (   0.0871904   1.7817267   0.3599253  )
        72           O   tau(  72) = (   0.7869784   0.7819277   0.0676674  )
        73           O   tau(  73) = (   0.6522903   0.0518380   0.2760587  )
        74           O   tau(  74) = (   0.2218786   1.0516370   0.1515340  )
        75           O   tau(  75) = (   0.0960474   1.9477600   0.5791268  )
        76           O   tau(  76) = (   0.5264591   0.9479610   0.7036515  )
        77           O   tau(  77) = (   0.8857611   0.1809555   0.3423346  )
        78           O   tau(  78) = (  -0.0115922   1.1807545   0.0852581  )
        79           O   tau(  79) = (  -0.1374234   1.8186425   0.5128509  )
        80           O   tau(  80) = (   0.7599299   0.8188435   0.7699273  )
        81           N   tau(  81) = (   0.6240265   0.3607147   0.0332640  )
        82           N   tau(  82) = (   0.2501423   1.3605137   0.3943287  )
        83           N   tau(  83) = (   0.1243111   1.6388833   0.8219215  )
        84           N   tau(  84) = (   0.4981954   0.6390843   0.4608567  )
        85           O   tau(  85) = (   0.2332462   0.3587724   0.8029805  )
        86           O   tau(  86) = (   0.3892603   1.3585714   0.4797977  )
        87           O   tau(  87) = (   0.5150915   1.6408256   0.0522050  )
        88           O   tau(  88) = (   0.3590774   0.6410266   0.3753878  )
        89           O   tau(  89) = (   0.4902413   0.2685887   0.8414845  )
        90           O   tau(  90) = (   0.1322652   1.2683877   0.4412937  )
        91           O   tau(  91) = (   0.2580964   1.7310093   0.0137010  )
        92           O   tau(  92) = (   0.6160724   0.7312103   0.4138917  )
        93           O   tau(  93) = (   0.6350403   0.4554969   0.1573527  )
        94           O   tau(  94) = (   0.2391285   1.4552959   0.2702401  )
        95           O   tau(  95) = (   0.1132973   1.5441011   0.6978328  )
        96           O   tau(  96) = (   0.5092091   0.5443021   0.5849454  )

     number of k points=    10
                       cart. coord. in units 2pi/alat
        k(    1) = (   0.0000000   0.0000000   0.0000000), wk =   0.1111111
        k(    2) = (   0.0000000   0.0000000   0.3897790), wk =   0.2222222
        k(    3) = (   0.0000000  -0.2500503   0.0000000), wk =   0.1111111
        k(    4) = (   0.0000000  -0.2500503   0.3897790), wk =   0.2222222
        k(    5) = (   0.3333333   0.0000000   0.0980927), wk =   0.2222222
        k(    6) = (   0.3333333   0.0000000   0.4878717), wk =   0.2222222
        k(    7) = (   0.3333333   0.0000000  -0.2916863), wk =   0.2222222
        k(    8) = (   0.3333333  -0.2500503   0.0980927), wk =   0.2222222
        k(    9) = (   0.3333333  -0.2500503   0.4878717), wk =   0.2222222
        k(   10) = (   0.3333333  -0.2500503  -0.2916863), wk =   0.2222222

     Dense  grid:   786323 G-vectors     FFT dimensions: (  96, 192,  90)

     Estimated max dynamical RAM per process >     976.23MB

     Estimated total allocated dynamical RAM >    7809.82MB

     Check: negative/imaginary core charge=   -0.000003    0.000000

     Initial potential from superposition of free atoms

     starting charge  367.99909, renormalised to  368.00000
     Starting wfc are  288 randomized atomic wfcs
     Checking if some PAW data can be deallocated... 

     total cpu time spent up to now is       62.8 secs

     per-process dynamical memory:   676.6 Mb

     Self-consistent Calculation

     iteration #  1     ecut=   100.00 Ry     beta=0.50
     Davidson diagonalization with overlap
     ethr =  1.00E-02,  avg # of iterations =  3.0

     total cpu time spent up to now is      241.7 secs

     total energy              =   -2083.94526280 Ry
     Harris-Foulkes estimate   =   -2089.12189203 Ry
     estimated scf accuracy    <       9.42644989 Ry

     iteration #  2     ecut=   100.00 Ry     beta=0.50
     Davidson diagonalization with overlap
     ethr =  2.56E-03,  avg # of iterations =  3.0

     total cpu time spent up to now is      392.8 secs

     total energy              =   -2085.86835460 Ry
     Harris-Foulkes estimate   =   -2087.14154531 Ry
     estimated scf accuracy    <       2.81378019 Ry

     iteration #  3     ecut=   100.00 Ry     beta=0.50
     Davidson diagonalization with overlap
     ethr =  7.65E-04,  avg # of iterations =  3.7

     total cpu time spent up to now is      522.9 secs

     total energy              =   -2086.41629661 Ry
     Harris-Foulkes estimate   =   -2086.49034308 Ry
     estimated scf accuracy    <       0.25199573 Ry

     iteration #  4     ecut=   100.00 Ry     beta=0.50
     Davidson diagonalization with overlap
     ethr =  6.85E-05,  avg # of iterations = 10.6

     total cpu time spent up to now is      704.6 secs

     total energy              =   -2086.44525807 Ry
     Harris-Foulkes estimate   =   -2086.46528310 Ry
     estimated scf accuracy    <       0.05563215 Ry

     iteration #  5     ecut=   100.00 Ry     beta=0.50
     Davidson diagonalization with overlap
     c_bands:  1 eigenvalues not converged
     ethr =  1.51E-05,  avg # of iterations =  8.4

     total cpu time spent up to now is      863.0 secs

     total energy              =   -2086.45472464 Ry
     Harris-Foulkes estimate   =   -2086.46158530 Ry
     estimated scf accuracy    <       0.01921347 Ry

     iteration #  6     ecut=   100.00 Ry     beta=0.50
     Davidson diagonalization with overlap
     ethr =  5.22E-06,  avg # of iterations =  4.2

     total cpu time spent up to now is      989.3 secs

     total energy              =   -2086.45837205 Ry
     Harris-Foulkes estimate   =   -2086.45869923 Ry
     estimated scf accuracy    <       0.00114564 Ry

     iteration #  7     ecut=   100.00 Ry     beta=0.50
     Davidson diagonalization with overlap
     ethr =  3.11E-07,  avg # of iterations =  4.2

     total cpu time spent up to now is     1146.3 secs

     total energy              =   -2086.45864952 Ry
     Harris-Foulkes estimate   =   -2086.45874847 Ry
     estimated scf accuracy    <       0.00026100 Ry

     iteration #  8     ecut=   100.00 Ry     beta=0.50
     Davidson diagonalization with overlap
     ethr =  7.09E-08,  avg # of iterations =  2.6

     total cpu time spent up to now is     1270.2 secs

     total energy              =   -2086.45870706 Ry
     Harris-Foulkes estimate   =   -2086.45872941 Ry
     estimated scf accuracy    <       0.00007604 Ry

     iteration #  9     ecut=   100.00 Ry     beta=0.50
     Davidson diagonalization with overlap
     ethr =  2.07E-08,  avg # of iterations =  2.0

     total cpu time spent up to now is     1385.6 secs

     total energy              =   -2086.45872176 Ry
     Harris-Foulkes estimate   =   -2086.45872253 Ry
     estimated scf accuracy    <       0.00000525 Ry

     iteration # 10     ecut=   100.00 Ry     beta=0.50
     Davidson diagonalization with overlap
     ethr =  1.43E-09,  avg # of iterations =  3.0

     total cpu time spent up to now is     1543.4 secs

     total energy              =   -2086.45872344 Ry
     Harris-Foulkes estimate   =   -2086.45872382 Ry
     estimated scf accuracy    <       0.00000145 Ry

     iteration # 11     ecut=   100.00 Ry     beta=0.50
     Davidson diagonalization with overlap
     ethr =  3.95E-10,  avg # of iterations =  2.1

     total cpu time spent up to now is     1655.8 secs

     total energy              =   -2086.45872372 Ry
     Harris-Foulkes estimate   =   -2086.45872375 Ry
     estimated scf accuracy    <       0.00000022 Ry

     iteration # 12     ecut=   100.00 Ry     beta=0.50
     Davidson diagonalization with overlap
     ethr =  5.93E-11,  avg # of iterations =  3.0

     total cpu time spent up to now is     1803.5 secs

     total energy              =   -2086.45872377 Ry
     Harris-Foulkes estimate   =   -2086.45872379 Ry
     estimated scf accuracy    <       0.00000005 Ry

     iteration # 13     ecut=   100.00 Ry     beta=0.50
     Davidson diagonalization with overlap
     ethr =  1.32E-11,  avg # of iterations =  3.0

     total cpu time spent up to now is     1921.3 secs

     End of self-consistent calculation

          k = 0.0000 0.0000 0.0000 ( 98227 PWs)   bands (ev):

   -23.6331 -23.6250 -23.6038 -23.5924 -23.5477 -23.5454 -23.5084 -23.5074
   -20.6775 -20.6693 -20.6650 -20.6554 -18.6225 -18.6063 -18.6060 -18.5983
   -18.3086 -18.3023 -18.2814 -18.2804 -18.1574 -18.1564 -18.1555 -18.1482
   -17.9653 -17.9380 -17.9291 -17.9254 -17.9040 -17.8872 -17.8842 -17.8614
   -17.7694 -17.7604 -17.7552 -17.7333 -14.6397 -14.6356 -14.6303 -14.6298
   -13.5816 -13.5790 -13.5605 -13.5583 -12.9754 -12.9301 -12.9046 -12.8723
    -9.5546  -9.5043  -9.4851  -9.4665  -8.7411  -8.6906  -8.6517  -8.6450
    -8.0841  -7.9458  -7.8888  -7.8276  -7.7255  -7.6348  -7.6075  -7.5915
    -7.5169  -7.2180  -7.2150  -7.1589  -6.8014  -6.7417  -6.6030  -6.4802
    -6.2212  -6.2080  -6.1816  -6.1465  -6.1187  -6.0842  -6.0726  -6.0646
    -6.0457  -6.0030  -5.9369  -5.9368  -5.9080  -5.6901  -5.6576  -5.6374
    -5.6132  -5.6124  -5.5628  -5.5057  -5.4802  -5.4247  -5.3058  -5.2658
    -5.2623  -5.2446  -5.2102  -5.1996  -5.1399  -5.0951  -5.0637  -5.0634
    -4.9912  -4.9511  -4.8872  -4.8770  -4.8537  -4.8381  -4.8079  -4.7749
    -4.2401  -4.1686  -4.1675  -4.1277  -4.0427  -4.0359  -4.0051  -3.9618
    -3.8874  -3.7932  -3.6814  -3.4999  -1.3471  -1.2550  -1.2340  -1.1554
    -0.8123  -0.7662  -0.6992  -0.6399  -0.6007  -0.5743  -0.3962  -0.3807
    -0.3776  -0.3649  -0.2819  -0.2674  -0.2463  -0.2164  -0.1661  -0.1330
    -0.1058  -0.0996  -0.0733  -0.0688  -0.0293   0.0326   0.0484   0.1223
     0.1290   0.2109   0.2127   0.2330   0.2366   0.2498   0.2577   0.2611
     0.3881   0.4455   0.4643   0.4727   0.5338   0.5419   0.5778   0.6628
     0.6646   0.6961   1.0286   1.0381   1.3583   1.3765   1.4203   1.4315
     1.7032   1.7161   1.7196   1.7261   1.8756   1.8810   1.9057   1.9158
     5.3956   5.3969   5.4039   5.4356   5.4789   5.5341   5.6847   5.7189
     5.9372   5.9471   6.1525   6.1860   6.9640   7.0342   7.0423   7.1144
     7.8084   8.1020   8.1827   8.5267   8.8521   8.8742   9.1432   9.2964
     9.3347   9.3502   9.4701   9.5456   9.8060   9.8170   9.9624   9.9983
    10.1075  10.1737  10.2888  10.3096

          k = 0.0000 0.0000 0.3898 ( 98279 PWs)   bands (ev):

   -23.6231 -23.6161 -23.6078 -23.5996 -23.5497 -23.5491 -23.5092 -23.5085
   -20.6725 -20.6666 -20.6662 -20.6596 -18.6274 -18.6171 -18.6160 -18.6152
   -18.3039 -18.2923 -18.2899 -18.2817 -18.1599 -18.1589 -18.1496 -18.1466
   -17.9427 -17.9407 -17.9303 -17.9211 -17.8801 -17.8684 -17.8605 -17.8586
   -17.7808 -17.7718 -17.7698 -17.7553 -14.6431 -14.6389 -14.6165 -14.6144
   -13.5791 -13.5689 -13.5668 -13.5611 -12.9660 -12.9451 -12.9151 -12.8969
    -9.5387  -9.5007  -9.4995  -9.4809  -8.6961  -8.6684  -8.6539  -8.6498
    -7.9865  -7.8802  -7.8072  -7.8013  -7.7586  -7.7145  -7.6241  -7.5246
    -7.4879  -7.4203  -7.2711  -7.2183  -6.8435  -6.7919  -6.5806  -6.5023
    -6.2806  -6.2346  -6.2086  -6.1731  -6.1731  -6.1048  -6.0643  -6.0079
    -6.0068  -5.9447  -5.8978  -5.8767  -5.8675  -5.8082  -5.7438  -5.7048
    -5.5743  -5.5699  -5.5338  -5.4990  -5.4719  -5.4712  -5.3913  -5.3308
    -5.2011  -5.1924  -5.1546  -5.1417  -5.1104  -5.1002  -5.0299  -4.9644
    -4.9554  -4.9395  -4.9158  -4.8488  -4.7809  -4.7451  -4.7115  -4.7100
    -4.2364  -4.1941  -4.1715  -4.1588  -4.0567  -4.0449  -4.0152  -3.9958
    -3.9082  -3.8256  -3.7843  -3.6460  -1.3557  -1.3204  -1.2279  -1.2035
    -0.7817  -0.7185  -0.6588  -0.6580  -0.4925  -0.4500  -0.4093  -0.3815
    -0.3512  -0.3394  -0.3169  -0.2641  -0.2570  -0.2430  -0.2145  -0.1824
    -0.0923  -0.0687  -0.0250   0.0088   0.0367   0.0401   0.0600   0.0746
     0.1172   0.1551   0.2009   0.2312   0.2341   0.2398   0.2464   0.2952
     0.3017   0.3275   0.4883   0.5104   0.5566   0.5788   0.6454   0.6749
     0.6797   0.7574   0.8850   0.9005   1.3359   1.3599   1.4126   1.4436
     1.6814   1.6853   1.7148   1.7257   1.8254   1.8309   1.9620   1.9871
     5.3978   5.3979   5.4256   5.4441   5.5480   5.5698   5.6242   5.6897
     5.9111   5.9190   6.1593   6.1685   7.0114   7.0522   7.0564   7.0902
     8.0514   8.3979   8.4546   8.5915   8.6828   8.7580   8.9925   9.1460
     9.1857   9.3715   9.5006   9.5238   9.6327   9.6443   9.7785   9.9747
    10.0315  10.0813  10.2203  10.2630

          k = 0.0000-0.2501 0.0000 ( 98356 PWs)   bands (ev):

   -23.6297 -23.6297 -23.5975 -23.5975 -23.5465 -23.5465 -23.5079 -23.5079
   -20.6748 -20.6748 -20.6588 -20.6588 -18.6167 -18.6167 -18.5999 -18.5999
   -18.3054 -18.3054 -18.2807 -18.2807 -18.1574 -18.1574 -18.1514 -18.1514
   -17.9527 -17.9527 -17.9309 -17.9309 -17.8921 -17.8921 -17.8718 -17.8718
   -17.7683 -17.7683 -17.7408 -17.7408 -14.6378 -14.6378 -14.6300 -14.6300
   -13.5803 -13.5803 -13.5594 -13.5594 -12.9582 -12.9582 -12.8830 -12.8830
    -9.5346  -9.5346  -9.4704  -9.4704  -8.7210  -8.7210  -8.6432  -8.6432
    -8.0296  -8.0296  -7.8671  -7.8671  -7.6957  -7.6957  -7.5444  -7.5444
    -7.4130  -7.4130  -7.1573  -7.1573  -6.7754  -6.7754  -6.5473  -6.5473
    -6.2144  -6.2144  -6.1792  -6.1792  -6.1041  -6.1041  -6.0762  -6.0762
    -5.9798  -5.9798  -5.9535  -5.9535  -5.7772  -5.7772  -5.6762  -5.6762
    -5.6085  -5.6085  -5.5432  -5.5432  -5.4240  -5.4240  -5.3201  -5.3201
    -5.2557  -5.2557  -5.1865  -5.1865  -5.1322  -5.1322  -5.0329  -5.0329
    -4.9395  -4.9395  -4.9073  -4.9073  -4.8612  -4.8612  -4.7930  -4.7930
    -4.2076  -4.2076  -4.1485  -4.1485  -4.0409  -4.0409  -3.9761  -3.9761
    -3.8550  -3.8550  -3.5756  -3.5756  -1.3158  -1.3158  -1.1797  -1.1797
    -0.7999  -0.7999  -0.6602  -0.6602  -0.5786  -0.5786  -0.4034  -0.4034
    -0.3585  -0.3585  -0.2656  -0.2656  -0.2457  -0.2457  -0.1560  -0.1560
    -0.1013  -0.1013  -0.0710  -0.0710  -0.0137  -0.0137   0.1019   0.1019
     0.1758   0.1758   0.2143   0.2143   0.2376   0.2376   0.2668   0.2668
     0.4235   0.4235   0.4825   0.4825   0.5079   0.5079   0.6381   0.6381
     0.6756   0.6756   1.0345   1.0345   1.3661   1.3661   1.4263   1.4263
     1.7105   1.7105   1.7236   1.7236   1.8740   1.8740   1.9140   1.9140
     5.4006   5.4006   5.4069   5.4069   5.5151   5.5151   5.7028   5.7028
     5.9387   5.9387   6.1718   6.1718   6.9856   6.9856   7.0917   7.0917
     7.8995   7.8995   8.4105   8.4105   8.8633   8.8633   9.2258   9.2258
     9.3545   9.3545   9.5060   9.5060   9.7685   9.7685   9.9216   9.9216
    10.1888  10.1889  10.2481  10.2485

          k = 0.0000-0.2501 0.3898 ( 98204 PWs)   bands (ev):

   -23.6204 -23.6204 -23.6029 -23.6029 -23.5494 -23.5494 -23.5089 -23.5089
   -20.6708 -20.6708 -20.6617 -20.6617 -18.6227 -18.6227 -18.6152 -18.6152
   -18.2994 -18.2994 -18.2843 -18.2843 -18.1595 -18.1595 -18.1479 -18.1479
   -17.9401 -17.9401 -17.9279 -17.9279 -17.8760 -17.8760 -17.8573 -17.8573
   -17.7793 -17.7793 -17.7595 -17.7595 -14.6411 -14.6411 -14.6153 -14.6153
   -13.5754 -13.5754 -13.5625 -13.5625 -12.9575 -12.9575 -12.9040 -12.9040
    -9.5253  -9.5253  -9.4845  -9.4845  -8.6848  -8.6848  -8.6494  -8.6494
    -7.9451  -7.9451  -7.7947  -7.7947  -7.7439  -7.7439  -7.5814  -7.5814
    -7.4224  -7.4224  -7.2605  -7.2605  -6.8140  -6.8140  -6.5556  -6.5556
    -6.2537  -6.2537  -6.1898  -6.1898  -6.1328  -6.1328  -6.0579  -6.0579
    -5.9564  -5.9564  -5.8688  -5.8688  -5.8462  -5.8462  -5.7292  -5.7292
    -5.5857  -5.5857  -5.5098  -5.5098  -5.4690  -5.4690  -5.3546  -5.3546
    -5.1817  -5.1817  -5.1659  -5.1659  -5.1156  -5.1156  -5.0080  -5.0080
    -4.9393  -4.9393  -4.8581  -4.8581  -4.7770  -4.7770  -4.7122  -4.7122
    -4.2211  -4.2211  -4.1545  -4.1545  -4.0569  -4.0569  -4.0067  -4.0067
    -3.8721  -3.8721  -3.7050  -3.7050  -1.3395  -1.3395  -1.2146  -1.2146
    -0.7543  -0.7543  -0.6533  -0.6533  -0.4680  -0.4680  -0.4002  -0.4002
    -0.3437  -0.3437  -0.2949  -0.2949  -0.2539  -0.2539  -0.1910  -0.1910
    -0.0745  -0.0745  -0.0188  -0.0188   0.0398   0.0398   0.0714   0.0714
     0.1323   0.1323   0.2080   0.2080   0.2398   0.2398   0.2776   0.2776
     0.3156   0.3156   0.4959   0.4959   0.5690   0.5690   0.6620   0.6620
     0.7176   0.7176   0.8952   0.8952   1.3450   1.3450   1.4305   1.4305
     1.6978   1.6978   1.7024   1.7024   1.8323   1.8323   1.9740   1.9740
     5.3950   5.3950   5.4344   5.4344   5.5608   5.5608   5.6588   5.6588
     5.9128   5.9128   6.1660   6.1660   7.0245   7.0245   7.0805   7.0805
     8.1540   8.1540   8.6005   8.6005   8.7060   8.7060   9.1674   9.1674
     9.2355   9.2355   9.4323   9.4323   9.6084   9.6084   9.8768   9.8768
    10.1087  10.1087  10.2488  10.2490

          k = 0.3333 0.0000 0.0981 ( 98317 PWs)   bands (ev):

   -23.6319 -23.6254 -23.6029 -23.5928 -23.5482 -23.5456 -23.5084 -23.5074
   -20.6776 -20.6722 -20.6638 -20.6579 -18.6276 -18.6152 -18.6094 -18.6041
   -18.3092 -18.2992 -18.2823 -18.2797 -18.1548 -18.1518 -18.1394 -18.1341
   -17.9544 -17.9382 -17.9318 -17.9291 -17.8936 -17.8808 -17.8710 -17.8483
   -17.7891 -17.7701 -17.7635 -17.7497 -14.6498 -14.6383 -14.6290 -14.6215
   -13.5871 -13.5738 -13.5625 -13.5567 -12.9655 -12.9240 -12.9145 -12.8847
    -9.5744  -9.5061  -9.4991  -9.4638  -8.7345  -8.6843  -8.6640  -8.6420
    -8.0697  -8.0396  -7.8271  -7.7583  -7.7154  -7.6854  -7.6471  -7.5543
    -7.4790  -7.3263  -7.2191  -7.2028  -6.7605  -6.6805  -6.5630  -6.4468
    -6.2491  -6.2280  -6.1680  -6.1383  -6.1210  -6.0834  -6.0658  -5.9899
    -5.9880  -5.9457  -5.9401  -5.9220  -5.8636  -5.7489  -5.7337  -5.6706
    -5.6247  -5.5952  -5.5740  -5.5110  -5.5040  -5.4790  -5.4030  -5.3328
    -5.2848  -5.1851  -5.1811  -5.1712  -5.1293  -5.0726  -5.0418  -5.0104
    -4.9718  -4.9223  -4.8547  -4.8346  -4.8072  -4.7963  -4.7917  -4.7811
    -4.2779  -4.2451  -4.1525  -4.0907  -4.0637  -4.0626  -4.0595  -3.9678
    -3.8873  -3.8015  -3.6816  -3.5789  -1.4365  -1.3659  -1.2767  -1.2040
    -0.7667  -0.7390  -0.6922  -0.6014  -0.5988  -0.5723  -0.4475  -0.4208
    -0.3998  -0.3300  -0.2890  -0.2519  -0.2269  -0.1890  -0.1520  -0.1238
    -0.1052  -0.0792  -0.0789  -0.0675   0.0060   0.0332   0.0600   0.1009
     0.1742   0.1962   0.2162   0.2176   0.2390   0.2716   0.2866   0.2968
     0.3881   0.4748   0.4852   0.5190   0.5416   0.5704   0.6164   0.6339
     0.6661   0.7270   0.9932   0.9961   1.3643   1.4244   1.4510   1.5008
     1.6979   1.7039   1.7251   1.7517   1.7830   1.8163   1.8343   1.8607
     5.3969   5.4181   5.4220   5.4404   5.4869   5.5398   5.6700   5.7316
     5.8902   5.9037   6.1212   6.1718   6.9600   7.0174   7.0480   7.0887
     8.1401   8.2991   8.4007   8.5872   8.8374   8.8635   8.9997   9.1880
     9.2036   9.2666   9.3972   9.4816   9.5117   9.6233   9.8211   9.8647
    10.0400  10.1690  10.2236  10.3549

          k = 0.3333 0.0000 0.4879 ( 98292 PWs)   bands (ev):

   -23.6224 -23.6162 -23.6077 -23.5996 -23.5496 -23.5486 -23.5096 -23.5088
   -20.6743 -20.6674 -20.6668 -20.6601 -18.6308 -18.6293 -18.6195 -18.6151
   -18.3032 -18.2912 -18.2897 -18.2833 -18.1523 -18.1522 -18.1387 -18.1356
   -17.9458 -17.9383 -17.9304 -17.9302 -17.8744 -17.8672 -17.8573 -17.8422
   -17.7802 -17.7796 -17.7790 -17.7630 -14.6434 -14.6363 -14.6220 -14.6167
   -13.5800 -13.5698 -13.5675 -13.5606 -12.9690 -12.9481 -12.9099 -12.8978
    -9.5419  -9.4997  -9.4932  -9.4760  -8.6838  -8.6821  -8.6529  -8.6393
    -8.0014  -7.9853  -7.8910  -7.8334  -7.7825  -7.6398  -7.5815  -7.5629
    -7.4899  -7.3528  -7.3527  -7.2705  -6.7981  -6.7725  -6.4693  -6.4198
    -6.2537  -6.2366  -6.2003  -6.1710  -6.1290  -6.1101  -6.0837  -5.9804
    -5.9571  -5.9303  -5.8638  -5.8418  -5.8247  -5.7723  -5.7353  -5.7106
    -5.6431  -5.5738  -5.5525  -5.5396  -5.4732  -5.4528  -5.3554  -5.3440
    -5.2612  -5.2279  -5.2072  -5.1455  -5.1246  -5.0636  -5.0234  -4.9789
    -4.9769  -4.8686  -4.8636  -4.8507  -4.8384  -4.7617  -4.7142  -4.6967
    -4.2363  -4.1931  -4.1662  -4.1473  -4.0602  -4.0545  -4.0475  -4.0329
    -3.8931  -3.7875  -3.7625  -3.7568  -1.4196  -1.4036  -1.2950  -1.2574
    -0.7447  -0.7198  -0.7084  -0.6753  -0.5111  -0.4878  -0.4456  -0.4125
    -0.3844  -0.3249  -0.3202  -0.2408  -0.2258  -0.1649  -0.1238  -0.1062
    -0.0851  -0.0677  -0.0384  -0.0232   0.0264   0.0477   0.0538   0.0759
     0.1453   0.2004   0.2119   0.2125   0.2242   0.2420   0.2650   0.2966
     0.3207   0.3436   0.5347   0.5471   0.5893   0.5988   0.6363   0.6583
     0.7131   0.7667   0.8591   0.8855   1.3964   1.4051   1.4748   1.5006
     1.6462   1.6728   1.7030   1.7485   1.7880   1.7908   1.8635   1.8901
     5.3878   5.4012   5.4309   5.4559   5.5570   5.5962   5.6182   5.6879
     5.8710   5.8823   6.1386   6.1643   6.9994   7.0357   7.0478   7.0822
     8.3942   8.4429   8.4853   8.6824   8.7759   8.7884   8.8979   9.1156
     9.2144   9.2877   9.3812   9.4068   9.6704   9.7413   9.8251   9.9114
     9.9519  10.0122  10.1556  10.1589

          k = 0.3333 0.0000-0.2917 ( 98278 PWs)   bands (ev):

   -23.6234 -23.6157 -23.6083 -23.5991 -23.5488 -23.5481 -23.5100 -23.5092
   -20.6753 -20.6690 -20.6654 -20.6584 -18.6355 -18.6259 -18.6151 -18.6137
   -18.3038 -18.2939 -18.2888 -18.2840 -18.1558 -18.1538 -18.1373 -18.1348
   -17.9512 -17.9415 -17.9299 -17.9297 -17.8824 -17.8719 -17.8680 -17.8498
   -17.7771 -17.7700 -17.7661 -17.7480 -14.6347 -14.6314 -14.6295 -14.6255
   -13.5754 -13.5745 -13.5654 -13.5635 -12.9761 -12.9536 -12.9037 -12.8872
    -9.5234  -9.4881  -9.4872  -9.4692  -8.6931  -8.6662  -8.6512  -8.6467
    -8.0243  -7.9997  -7.9383  -7.8053  -7.7644  -7.6782  -7.6235  -7.5858
    -7.5598  -7.3850  -7.3319  -7.2769  -6.7932  -6.7600  -6.4186  -6.3713
    -6.2033  -6.1616  -6.1569  -6.1273  -6.1118  -6.0438  -6.0387  -6.0255
    -5.9739  -5.9263  -5.9102  -5.8822  -5.8682  -5.7669  -5.7167  -5.6725
    -5.6218  -5.5813  -5.5482  -5.4978  -5.4580  -5.4203  -5.3431  -5.2969
    -5.2833  -5.2547  -5.2287  -5.1769  -5.1754  -5.1126  -5.0581  -5.0473
    -5.0448  -4.9308  -4.8957  -4.8065  -4.7727  -4.7721  -4.7244  -4.7079
    -4.1791  -4.1666  -4.1660  -4.1536  -4.0981  -4.0729  -4.0288  -4.0155
    -3.9142  -3.8135  -3.7843  -3.6453  -1.4298  -1.3878  -1.3237  -1.2770
    -0.7799  -0.7374  -0.7164  -0.6755  -0.5041  -0.4635  -0.4526  -0.4042
    -0.3574  -0.3298  -0.2903  -0.2440  -0.2277  -0.1589  -0.1537  -0.1262
    -0.0730  -0.0450  -0.0419  -0.0141   0.0039   0.0085   0.0275   0.0761
     0.1684   0.2052   0.2169   0.2273   0.2377   0.2478   0.2560   0.2676
     0.3279   0.3662   0.5222   0.5320   0.5660   0.6050   0.6413   0.6649
     0.7118   0.7291   0.9007   0.9215   1.3929   1.4470   1.5009   1.5532
     1.6707   1.6982   1.7043   1.7053   1.7478   1.7560   1.8571   1.8884
     5.3963   5.3995   5.4225   5.4401   5.5484   5.5714   5.6492   5.6681
     5.8714   5.8868   6.1581   6.1732   6.9917   7.0310   7.0498   7.0927
     8.2356   8.4192   8.5395   8.5902   8.7740   8.9100   8.9299   9.0605
     9.2131   9.4087   9.4844   9.5562   9.6249   9.7278   9.8302   9.8797
    10.0523  10.0621  10.2085  10.2347

          k = 0.3333-0.2501 0.0981 ( 98322 PWs)   bands (ev):

   -23.6291 -23.6291 -23.5975 -23.5975 -23.5468 -23.5468 -23.5079 -23.5079
   -20.6754 -20.6754 -20.6603 -20.6603 -18.6225 -18.6225 -18.6057 -18.6057
   -18.3045 -18.3045 -18.2807 -18.2807 -18.1533 -18.1533 -18.1367 -18.1367
   -17.9475 -17.9475 -17.9308 -17.9308 -17.8883 -17.8883 -17.8566 -17.8566
   -17.7821 -17.7821 -17.7545 -17.7545 -14.6452 -14.6452 -14.6241 -14.6241
   -13.5815 -13.5815 -13.5586 -13.5586 -12.9510 -12.9510 -12.8934 -12.8934
    -9.5503  -9.5503  -9.4717  -9.4717  -8.7155  -8.7155  -8.6469  -8.6469
    -8.0472  -8.0472  -7.8222  -7.8222  -7.6992  -7.6992  -7.5648  -7.5648
    -7.4391  -7.4391  -7.1882  -7.1882  -6.7307  -6.7307  -6.4959  -6.4959
    -6.2314  -6.2314  -6.1746  -6.1746  -6.0977  -6.0977  -6.0365  -6.0365
    -5.9693  -5.9693  -5.9118  -5.9118  -5.8043  -5.8043  -5.6856  -5.6856
    -5.6186  -5.6186  -5.5615  -5.5615  -5.5027  -5.5027  -5.3614  -5.3614
    -5.2201  -5.2201  -5.1787  -5.1787  -5.0744  -5.0744  -5.0507  -5.0507
    -4.9363  -4.9363  -4.8507  -4.8507  -4.8091  -4.8091  -4.7858  -4.7858
    -4.2660  -4.2660  -4.1226  -4.1226  -4.0638  -4.0638  -4.0071  -4.0071
    -3.8441  -3.8441  -3.6277  -3.6277  -1.4087  -1.4087  -1.2324  -1.2324
    -0.7605  -0.7605  -0.6447  -0.6447  -0.5837  -0.5837  -0.4286  -0.4286
    -0.3697  -0.3697  -0.2649  -0.2649  -0.2112  -0.2112  -0.1371  -0.1371
    -0.1030  -0.1030  -0.0578  -0.0578  -0.0018  -0.0018   0.0906   0.0906
     0.1991   0.1991   0.2197   0.2197   0.2464   0.2464   0.2852   0.2852
     0.4321   0.4321   0.4987   0.4987   0.5526   0.5526   0.6451   0.6451
     0.6876   0.6876   0.9945   0.9945   1.3850   1.3850   1.4858   1.4858
     1.6975   1.6975   1.7445   1.7445   1.7908   1.7908   1.8533   1.8533
     5.4044   5.4044   5.4300   5.4300   5.5150   5.5150   5.7032   5.7032
     5.8958   5.8958   6.1481   6.1481   6.9818   6.9818   7.0749   7.0749
     8.1869   8.1869   8.5182   8.5182   8.8532   8.8532   9.1683   9.1683
     9.1999   9.1999   9.4059   9.4059   9.5350   9.5350   9.8857   9.8857
    10.0777  10.0777  10.2722  10.2724

          k = 0.3333-0.2501 0.4879 ( 98324 PWs)   bands (ev):

   -23.6200 -23.6200 -23.6029 -23.6029 -23.5491 -23.5491 -23.5092 -23.5092
   -20.6722 -20.6722 -20.6621 -20.6621 -18.6293 -18.6293 -18.6181 -18.6181
   -18.2989 -18.2989 -18.2848 -18.2848 -18.1522 -18.1522 -18.1372 -18.1372
   -17.9424 -17.9424 -17.9310 -17.9310 -17.8700 -17.8700 -17.8494 -17.8494
   -17.7819 -17.7819 -17.7691 -17.7691 -14.6403 -14.6403 -14.6189 -14.6189
   -13.5763 -13.5763 -13.5627 -13.5627 -12.9597 -12.9597 -12.9027 -12.9027
    -9.5265  -9.5265  -9.4791  -9.4791  -8.6834  -8.6834  -8.6455  -8.6455
    -7.9764  -7.9764  -7.8903  -7.8903  -7.7133  -7.7133  -7.5665  -7.5665
    -7.4465  -7.4465  -7.2763  -7.2763  -6.7842  -6.7842  -6.4527  -6.4527
    -6.2444  -6.2444  -6.1862  -6.1862  -6.1166  -6.1166  -6.0443  -6.0443
    -5.9459  -5.9459  -5.8403  -5.8403  -5.7826  -5.7826  -5.7321  -5.7321
    -5.6061  -5.6061  -5.5411  -5.5411  -5.4805  -5.4805  -5.3541  -5.3541
    -5.2303  -5.2303  -5.1471  -5.1471  -5.1396  -5.1396  -5.0046  -5.0046
    -4.9043  -4.9043  -4.8702  -4.8702  -4.7884  -4.7884  -4.7086  -4.7086
    -4.2133  -4.2133  -4.1577  -4.1577  -4.0661  -4.0661  -4.0298  -4.0298
    -3.8389  -3.8389  -3.7600  -3.7600  -1.4134  -1.4134  -1.2746  -1.2746
    -0.7256  -0.7256  -0.7017  -0.7017  -0.4938  -0.4938  -0.4359  -0.4359
    -0.3602  -0.3602  -0.2666  -0.2666  -0.2095  -0.2095  -0.0953  -0.0953
    -0.0755  -0.0755  -0.0364  -0.0364   0.0180   0.0180   0.0782   0.0782
     0.1650   0.1650   0.2160   0.2160   0.2343   0.2343   0.2837   0.2837
     0.3327   0.3327   0.5414   0.5414   0.5882   0.5882   0.6533   0.6533
     0.7383   0.7383   0.8742   0.8742   1.3995   1.3995   1.4860   1.4860
     1.6745   1.6745   1.7030   1.7030   1.8010   1.8010   1.8756   1.8756
     5.3948   5.3948   5.4382   5.4382   5.5747   5.5747   5.6607   5.6607
     5.8752   5.8752   6.1524   6.1524   7.0116   7.0116   7.0706   7.0706
     8.3864   8.3864   8.5941   8.5941   8.8091   8.8091   8.9815   8.9815
     9.3039   9.3039   9.3774   9.3774   9.7301   9.7301   9.7841   9.7841
    10.0393  10.0393  10.1543  10.1543

          k = 0.3333-0.2501-0.2917 ( 98276 PWs)   bands (ev):

   -23.6206 -23.6206 -23.6027 -23.6027 -23.5485 -23.5485 -23.5096 -23.5096
   -20.6731 -20.6731 -20.6609 -20.6609 -18.6307 -18.6307 -18.6144 -18.6144
   -18.2996 -18.2996 -18.2857 -18.2857 -18.1547 -18.1547 -18.1360 -18.1360
   -17.9475 -17.9475 -17.9296 -17.9296 -17.8782 -17.8782 -17.8566 -17.8566
   -17.7760 -17.7760 -17.7550 -17.7550 -14.6336 -14.6336 -14.6270 -14.6270
   -13.5749 -13.5749 -13.5645 -13.5645 -12.9662 -12.9662 -12.8941 -12.8941
    -9.5114  -9.5114  -9.4725  -9.4725  -8.6837  -8.6837  -8.6449  -8.6449
    -8.0034  -8.0034  -7.9031  -7.9031  -7.7052  -7.7052  -7.6204  -7.6204
    -7.4577  -7.4577  -7.2957  -7.2957  -6.7765  -6.7765  -6.4003  -6.4003
    -6.1903  -6.1903  -6.1086  -6.1086  -6.0998  -6.0998  -6.0369  -6.0369
    -5.9615  -5.9615  -5.8960  -5.8960  -5.7975  -5.7975  -5.6980  -5.6980
    -5.6190  -5.6190  -5.5223  -5.5223  -5.4170  -5.4170  -5.3164  -5.3164
    -5.2597  -5.2597  -5.2259  -5.2259  -5.1260  -5.1260  -5.0865  -5.0865
    -4.9799  -4.9799  -4.8426  -4.8426  -4.7603  -4.7603  -4.7263  -4.7263
    -4.1852  -4.1852  -4.1440  -4.1440  -4.0766  -4.0766  -4.0357  -4.0357
    -3.8776  -3.8776  -3.6975  -3.6975  -1.4132  -1.4132  -1.2967  -1.2967
    -0.7615  -0.7615  -0.6956  -0.6956  -0.4854  -0.4854  -0.4256  -0.4256
    -0.3361  -0.3361  -0.2738  -0.2738  -0.1957  -0.1957  -0.1342  -0.1342
    -0.0599  -0.0599  -0.0230  -0.0230  -0.0088  -0.0088   0.0565   0.0565
     0.1877   0.1877   0.2135   0.2135   0.2476   0.2476   0.2742   0.2742
     0.3383   0.3383   0.5227   0.5227   0.5900   0.5900   0.6691   0.6691
     0.7069   0.7069   0.9122   0.9122   1.4122   1.4122   1.5363   1.5363
     1.6718   1.6718   1.7157   1.7157   1.7507   1.7507   1.8739   1.8739
     5.4021   5.4021   5.4228   5.4228   5.5631   5.5631   5.6601   5.6601
     5.8794   5.8794   6.1652   6.1652   7.0053   7.0053   7.0771   7.0771
     8.3241   8.3241   8.5536   8.5536   8.8000   8.8000   9.0196   9.0196
     9.3582   9.3582   9.5865   9.5865   9.6427   9.6427   9.8565   9.8565
    10.0012  10.0013  10.1867  10.1868

     highest occupied, lowest unoccupied level (ev):     1.9871    5.3878

!    total energy              =   -2086.45872378 Ry
     Harris-Foulkes estimate   =   -2086.45872378 Ry
     estimated scf accuracy    <          7.0E-09 Ry

     total all-electron energy =     -7762.458450 Ry

     The total energy is the sum of the following terms:

     one-electron contribution =    -938.48508232 Ry
     hartree contribution      =     629.50440262 Ry
     xc contribution           =    -406.99521734 Ry
     ewald contribution        =    -823.45881357 Ry
     Dispersion Correction     =      -0.47157827 Ry
     one-center paw contrib.   =    -546.55243491 Ry

     convergence has been achieved in  13 iterations

     Forces acting on atoms (cartesian axes, Ry/au):

     atom    1 type  2   force =     0.00091094    0.00034139    0.00116735
     atom    2 type  2   force =    -0.00091094    0.00034139   -0.00116735
     atom    3 type  2   force =    -0.00091094   -0.00034139   -0.00116735
     atom    4 type  2   force =     0.00091094   -0.00034139    0.00116735
     atom    5 type  2   force =    -0.00093254    0.00002519   -0.00182130
     atom    6 type  2   force =     0.00093254    0.00002519    0.00182130
     atom    7 type  2   force =     0.00093254   -0.00002519    0.00182130
     atom    8 type  2   force =    -0.00093254   -0.00002519   -0.00182130
     atom    9 type  2   force =    -0.00021603   -0.00138746   -0.00025681
     atom   10 type  2   force =     0.00021603   -0.00138746    0.00025681
     atom   11 type  2   force =     0.00021603    0.00138746    0.00025681
     atom   12 type  2   force =    -0.00021603    0.00138746   -0.00025681
     atom   13 type  2   force =    -0.00054310    0.00048732    0.00075475
     atom   14 type  2   force =     0.00054310    0.00048732   -0.00075475
     atom   15 type  2   force =     0.00054310   -0.00048732   -0.00075475
     atom   16 type  2   force =    -0.00054310   -0.00048732    0.00075475
     atom   17 type  2   force =    -0.00029501   -0.00032493   -0.00115751
     atom   18 type  2   force =     0.00029501   -0.00032493    0.00115751
     atom   19 type  2   force =     0.00029501    0.00032493    0.00115751
     atom   20 type  2   force =    -0.00029501    0.00032493   -0.00115751
     atom   21 type  1   force =    -0.00049257    0.00099416   -0.00046254
     atom   22 type  1   force =     0.00049257    0.00099416    0.00046254
     atom   23 type  1   force =     0.00049257   -0.00099416    0.00046254
     atom   24 type  1   force =    -0.00049257   -0.00099416   -0.00046254
     atom   25 type  3   force =     0.00008528    0.00006941   -0.00068056
     atom   26 type  3   force =    -0.00008528    0.00006941    0.00068056
     atom   27 type  3   force =    -0.00008528   -0.00006941    0.00068056
     atom   28 type  3   force =     0.00008528   -0.00006941   -0.00068056
     atom   29 type  1   force =    -0.00012887    0.00101830    0.00237237
     atom   30 type  1   force =     0.00012887    0.00101830   -0.00237237
     atom   31 type  1   force =     0.00012887   -0.00101830   -0.00237237
     atom   32 type  1   force =    -0.00012887   -0.00101830    0.00237237
     atom   33 type  2   force =     0.00017366   -0.00173830    0.00079618
     atom   34 type  2   force =    -0.00017366   -0.00173830   -0.00079618
     atom   35 type  2   force =    -0.00017366    0.00173830   -0.00079618
     atom   36 type  2   force =     0.00017366    0.00173830    0.00079618
     atom   37 type  3   force =    -0.00043099    0.00014407    0.00035585
     atom   38 type  3   force =     0.00043099    0.00014407   -0.00035585
     atom   39 type  3   force =     0.00043099   -0.00014407   -0.00035585
     atom   40 type  3   force =    -0.00043099   -0.00014407    0.00035585
     atom   41 type  3   force =     0.00043532    0.00084391   -0.00128401
     atom   42 type  3   force =    -0.00043532    0.00084391    0.00128401
     atom   43 type  3   force =    -0.00043532   -0.00084391    0.00128401
     atom   44 type  3   force =     0.00043532   -0.00084391   -0.00128401
     atom   45 type  3   force =    -0.00033793   -0.00044877   -0.00013967
     atom   46 type  3   force =     0.00033793   -0.00044877    0.00013967
     atom   47 type  3   force =     0.00033793    0.00044877    0.00013967
     atom   48 type  3   force =    -0.00033793    0.00044877   -0.00013967
     atom   49 type  3   force =    -0.00010896   -0.00098123    0.00072803
     atom   50 type  3   force =     0.00010896   -0.00098123   -0.00072803
     atom   51 type  3   force =     0.00010896    0.00098123   -0.00072803
     atom   52 type  3   force =    -0.00010896    0.00098123    0.00072803
     atom   53 type  3   force =    -0.00009469    0.00075262   -0.00051536
     atom   54 type  3   force =     0.00009469    0.00075262    0.00051536
     atom   55 type  3   force =     0.00009469   -0.00075262    0.00051536
     atom   56 type  3   force =    -0.00009469   -0.00075262   -0.00051536
     atom   57 type  3   force =    -0.00096614    0.00033718   -0.00021971
     atom   58 type  3   force =     0.00096614    0.00033718    0.00021971
     atom   59 type  3   force =     0.00096614   -0.00033718    0.00021971
     atom   60 type  3   force =    -0.00096614   -0.00033718   -0.00021971
     atom   61 type  3   force =     0.00085474   -0.00049601    0.00031674
     atom   62 type  3   force =    -0.00085474   -0.00049601   -0.00031674
     atom   63 type  3   force =    -0.00085474    0.00049601   -0.00031674
     atom   64 type  3   force =     0.00085474    0.00049601    0.00031674
     atom   65 type  2   force =     0.00093522   -0.00016611   -0.00054097
     atom   66 type  2   force =    -0.00093522   -0.00016611    0.00054097
     atom   67 type  2   force =    -0.00093522    0.00016611    0.00054097
     atom   68 type  2   force =     0.00093522    0.00016611   -0.00054097
     atom   69 type  4   force =     0.00064679   -0.00022766    0.00048624
     atom   70 type  4   force =    -0.00064679   -0.00022766   -0.00048624
     atom   71 type  4   force =    -0.00064679    0.00022766   -0.00048624
     atom   72 type  4   force =     0.00064679    0.00022766    0.00048624
     atom   73 type  4   force =     0.00021223    0.00097806   -0.00062101
     atom   74 type  4   force =    -0.00021223    0.00097806    0.00062101
     atom   75 type  4   force =    -0.00021223   -0.00097806    0.00062101
     atom   76 type  4   force =     0.00021223   -0.00097806   -0.00062101
     atom   77 type  4   force =    -0.00155693   -0.00193723    0.00049080
     atom   78 type  4   force =     0.00155693   -0.00193723   -0.00049080
     atom   79 type  4   force =     0.00155693    0.00193723   -0.00049080
     atom   80 type  4   force =    -0.00155693    0.00193723    0.00049080
     atom   81 type  2   force =     0.00055159   -0.00006404    0.00094930
     atom   82 type  2   force =    -0.00055159   -0.00006404   -0.00094930
     atom   83 type  2   force =    -0.00055159    0.00006404   -0.00094930
     atom   84 type  2   force =     0.00055159    0.00006404    0.00094930
     atom   85 type  4   force =    -0.00010627    0.00018297    0.00004188
     atom   86 type  4   force =     0.00010627    0.00018297   -0.00004188
     atom   87 type  4   force =     0.00010627   -0.00018297   -0.00004188
     atom   88 type  4   force =    -0.00010627   -0.00018297    0.00004188
     atom   89 type  4   force =     0.00037760    0.00042932   -0.00091708
     atom   90 type  4   force =    -0.00037760    0.00042932    0.00091708
     atom   91 type  4   force =    -0.00037760   -0.00042932    0.00091708
     atom   92 type  4   force =     0.00037760   -0.00042932   -0.00091708
     atom   93 type  4   force =    -0.00021472   -0.00062922   -0.00008579
     atom   94 type  4   force =     0.00021472   -0.00062922    0.00008579
     atom   95 type  4   force =     0.00021472    0.00062922    0.00008579
     atom   96 type  4   force =    -0.00021472    0.00062922   -0.00008579

     Total force =     0.013232     Total SCF correction =     0.000164


     Computing stress (Cartesian axis) and pressure

          total   stress  (Ry/bohr**3)                   (kbar)     P=    1.29
   0.00000884   0.00000000  -0.00000099          1.30      0.00     -0.15
   0.00000000   0.00000317   0.00000000          0.00      0.47      0.00
  -0.00000099   0.00000000   0.00001434         -0.15      0.00      2.11


     Writing output data file scf.save
 
     init_run     :     59.86s CPU     62.10s WALL (       1 calls)
     electrons    :   1789.20s CPU   1858.71s WALL (       1 calls)
     forces       :     31.18s CPU     31.39s WALL (       1 calls)
     stress       :    143.51s CPU    143.90s WALL (       1 calls)

     Called by init_run:
     wfcinit      :     50.38s CPU     52.46s WALL (       1 calls)
     potinit      :      3.44s CPU      3.46s WALL (       1 calls)

     Called by electrons:
     c_bands      :   1613.87s CPU   1673.70s WALL (      13 calls)
     sum_band     :    164.12s CPU    172.70s WALL (      13 calls)
     v_of_rho     :      1.63s CPU      1.76s WALL (      14 calls)
     newd         :      3.91s CPU      4.79s WALL (      14 calls)
     PAW_pot      :      5.27s CPU      5.28s WALL (      14 calls)
     mix_rho      :      0.33s CPU      0.38s WALL (      13 calls)

     Called by c_bands:
     init_us_2    :      7.01s CPU      7.04s WALL (     290 calls)
     cegterg      :   1579.13s CPU   1638.90s WALL (     130 calls)

     Called by sum_band:
     sum_band:bec :      0.10s CPU      0.10s WALL (     130 calls)
     addusdens    :      3.85s CPU      4.68s WALL (      13 calls)

     Called by *egterg:
     h_psi        :    815.40s CPU    862.28s WALL (     668 calls)
     s_psi        :    189.69s CPU    189.69s WALL (     668 calls)
     g_psi        :      3.54s CPU      3.54s WALL (     528 calls)
     cdiaghg      :    109.95s CPU    109.94s WALL (     658 calls)

     Called by h_psi:
     h_psi:pot    :    810.54s CPU    857.31s WALL (     668 calls)
     h_psi:calbec :    193.77s CPU    194.14s WALL (     668 calls)
     vloc_psi     :    427.25s CPU    473.66s WALL (     668 calls)
     add_vuspsi   :    189.52s CPU    189.51s WALL (     668 calls)

     General routines
     calbec       :    302.09s CPU    302.71s WALL (     848 calls)
     fft          :      3.18s CPU      3.44s WALL (     206 calls)
     fftw         :    466.38s CPU    519.61s WALL (  182398 calls)
 
     Parallel routines
     fft_scatter  :    121.77s CPU    170.30s WALL (  182604 calls)
 
     PWSCF        : 33m58.36s CPU    36m14.54s WALL

 
   This run was terminated on:  11:23:50  27Nov2017            

=------------------------------------------------------------------------------=
   JOB DONE.
=------------------------------------------------------------------------------=
