
     Program PWSCF v.6.1 (svn rev. 13369) starts on  4Nov2017 at  4:45: 0 

     This program is part of the open-source Quantum ESPRESSO suite
     for quantum simulation of materials; please cite
         "P. Giannozzi et al., J. Phys.:Condens. Matter 21 395502 (2009);
          URL http://www.quantum-espresso.org", 
     in publications or presentations arising from this work. More details at
     http://www.quantum-espresso.org/quote

     Parallel version (MPI), running on     8 processors
     R & G space division:  proc/nbgrp/npool/nimage =       8
     Waiting for input...
     Reading input from standard input

     Current dimensions of program PWSCF are:
     Max number of different atomic species (ntypx) = 10
     Max number of k-points (npk) =  40000
     Max angular momentum in pseudopotentials (lmaxx) =  3
               file C.pbe-n-kjpaw_psl.0.1.UPF: wavefunction(s)  2P renormalized
               file N.pbe-n-kjpaw_psl.0.1.UPF: wavefunction(s)  2P renormalized
               file H.pbe-kjpaw_psl.0.1.UPF: wavefunction(s)  1S renormalized
               file O.pbe-n-kjpaw_psl.0.1.UPF: wavefunction(s)  2P renormalized

     -------------------------------------
     Parameters for Dispersion Correction:
     -------------------------------------
       atom      VdW radius       C_6     

        C          2.744         60.710
        N          2.640         42.670
        H          1.892          4.857
        O          2.536         24.284

     Subspace diagonalization in iterative solution of the eigenvalue problem:
     a serial algorithm will be used

 
     Parallelization info
     --------------------
     sticks:   dense  smooth     PW     G-vecs:    dense   smooth      PW
     Min        1841    1841    486               187855   187855   25536
     Max        1842    1842    487               187857   187857   25538
     Sum       14733   14733   3889              1502845  1502845  204295
 


     bravais-lattice index     =            0
     lattice parameter (alat)  =      20.1997  a.u.
     unit-cell volume          =   11124.8356 (a.u.)^3
     number of atoms/cell      =          192
     number of atomic types    =            4
     number of electrons       =       544.00
     number of Kohn-Sham states=          326
     kinetic-energy cutoff     =     100.0000  Ry
     charge density cutoff     =     400.0000  Ry
     convergence threshold     =      1.0E-08
     mixing beta               =       0.5000
     number of iterations used =            8  plain     mixing
     Exchange-correlation      =  SLA  PW   PBX  PBC ( 1  4  3  4 0 0)

     celldm(1)=  20.199661  celldm(2)=   0.000000  celldm(3)=   0.000000
     celldm(4)=   0.000000  celldm(5)=   0.000000  celldm(6)=   0.000000

     crystal axes: (cart. coord. in units of alat)
               a(1) = (   1.000000   0.000000   0.000000 )  
               a(2) = (   0.000000   1.134098   0.000000 )  
               a(3) = (  -0.495910   0.000000   1.190175 )  

     reciprocal axes: (cart. coord. in units 2 pi/alat)
               b(1) = (  1.000000  0.000000  0.416669 )  
               b(2) = (  0.000000  0.881758  0.000000 )  
               b(3) = (  0.000000  0.000000  0.840213 )  


     PseudoPot. # 1 for  C read from file:
     /scratch/ahofstet/pseudo/C.pbe-n-kjpaw_psl.0.1.UPF
     MD5 check sum: 430fe95172b1e11ef3f8ed03bac87931
     Pseudo is Projector augmented-wave + core cor, Zval =  4.0
     Generated using "atomic" code by A. Dal Corso  v.5.0.99 svn rev. 10869
     Shape of augmentation charge: BESSEL
     Using radial grid of 1073 points,  4 beta functions with: 
                l(1) =   0
                l(2) =   0
                l(3) =   1
                l(4) =   1
     Q(r) pseudized with 0 coefficients 


     PseudoPot. # 2 for  N read from file:
     /scratch/ahofstet/pseudo/N.pbe-n-kjpaw_psl.0.1.UPF
     MD5 check sum: f73187c8b701007e77325f868c9291d7
     Pseudo is Projector augmented-wave + core cor, Zval =  5.0
     Generated using "atomic" code by A. Dal Corso  v.5.0.99 svn rev. 10869
     Shape of augmentation charge: PSQ
     Using radial grid of 1085 points,  4 beta functions with: 
                l(1) =   0
                l(2) =   0
                l(3) =   1
                l(4) =   1
     Q(r) pseudized with 0 coefficients 


     PseudoPot. # 3 for  H read from file:
     /scratch/ahofstet/pseudo/H.pbe-kjpaw_psl.0.1.UPF
     MD5 check sum: 94e484f906d9e9773b2f6e52662335b2
     Pseudo is Projector augmented-wave, Zval =  1.0
     Generated using "atomic" code by A. Dal Corso  v.5.0.99 svn rev. 10869
     Shape of augmentation charge: PSQ
     Using radial grid of  929 points,  2 beta functions with: 
                l(1) =   0
                l(2) =   0
     Q(r) pseudized with 0 coefficients 


     PseudoPot. # 4 for  O read from file:
     /scratch/ahofstet/pseudo/O.pbe-n-kjpaw_psl.0.1.UPF
     MD5 check sum: 3f94a2996a3169367d6eb21d9b593f20
     Pseudo is Projector augmented-wave + core cor, Zval =  6.0
     Generated using "atomic" code by A. Dal Corso  v.5.0.99 svn rev. 10869
     Shape of augmentation charge: BESSEL
     Using radial grid of 1095 points,  4 beta functions with: 
                l(1) =   0
                l(2) =   0
                l(3) =   1
                l(4) =   1
     Q(r) pseudized with 0 coefficients 


     atomic species   valence    mass     pseudopotential
        C              4.00    12.01070      C( 1.00)
        N              5.00    14.00670      N( 1.00)
        H              1.00     1.00794      H( 1.00)
        O              6.00    15.99940      O( 1.00)

      2 Sym. Ops., with inversion, found



   Cartesian axes

     site n.     atom                  positions (alat units)
         1           O   tau(   1) = (   0.1506806   0.3243457   0.4571101  )
         2           O   tau(   2) = (   0.6013797   0.8914092   0.1379966  )
         3           O   tau(   3) = (   0.3534098   0.8097523   0.7330649  )
         4           O   tau(   4) = (  -0.0972893   0.2426888   1.0521784  )
         5           O   tau(   5) = (   0.1036569   0.7543432   0.1150052  )
         6           O   tau(   6) = (   0.6483821   0.1873074   0.4800684  )
         7           O   tau(   7) = (   0.4004336   0.3797548   1.0751697  )
         8           O   tau(   8) = (  -0.1442916   0.9467906   0.7101066  )
         9           N   tau(   9) = (   0.1347311   0.3570152   0.2421366  )
        10           N   tau(  10) = (   0.6173280   0.9240629   0.3529663  )
        11           N   tau(  11) = (   0.3693594   0.7770828   0.9480384  )
        12           N   tau(  12) = (  -0.1132376   0.2100351   0.8372086  )
        13           N   tau(  13) = (   0.1176116   0.5375102   0.1027675  )
        14           N   tau(  14) = (   0.6344411   1.1045680   0.4923252  )
        15           N   tau(  15) = (   0.3864788   0.5965877   1.0874074  )
        16           N   tau(  16) = (  -0.1303506   0.0295300   0.6978497  )
        17           N   tau(  17) = (  -0.0311125   0.6208242   0.2232837  )
        18           N   tau(  18) = (   0.7831651   0.0537799   0.3718066  )
        19           N   tau(  19) = (   0.5352030   0.5132738   0.9668913  )
        20           N   tau(  20) = (  -0.2790746   1.0803180   0.8183684  )
        21           N   tau(  21) = (  -0.0082284   0.4439217   0.3675508  )
        22           N   tau(  22) = (   0.7602932   1.0109682   0.2275598  )
        23           N   tau(  23) = (   0.5123188   0.6901763   0.8226242  )
        24           N   tau(  24) = (  -0.2562027   0.1231297   0.9626151  )
        25           N   tau(  25) = (  -0.0681461   0.5793890   0.5478527  )
        26           N   tau(  26) = (   0.8201885   0.0123299   0.0472394  )
        27           N   tau(  27) = (   0.5722366   0.5547090   0.6423223  )
        28           N   tau(  28) = (  -0.3160980   1.1217680   1.1429356  )
        29           N   tau(  29) = (  -0.0916545   0.7594449   0.4023715  )
        30           N   tau(  30) = (   0.8437024   0.1923957   0.1926987  )
        31           N   tau(  31) = (   0.5957450   0.3746530   0.7878034  )
        32           N   tau(  32) = (  -0.3396119   0.9417022   0.9974763  )
        33           C   tau(  33) = (   0.3577781   0.4122167   0.2062174  )
        34           C   tau(  34) = (   0.3942784   0.9792671   0.3888393  )
        35           C   tau(  35) = (   0.1463124   0.7218812   0.9839576  )
        36           C   tau(  36) = (   0.1098120   0.1548308   0.8013357  )
        37           C   tau(  37) = (   0.4597025   0.4022586   0.2873187  )
        38           C   tau(  38) = (   0.2923527   0.9693006   0.3077422  )
        39           C   tau(  39) = (   0.0443879   0.7318393   0.9028563  )
        40           C   tau(  40) = (   0.2117378   0.1647973   0.8824328  )
        41           H   tau(  41) = (   0.4680783   0.3204797   0.3480703  )
        42           H   tau(  42) = (   0.2839700   0.8875116   0.2470065  )
        43           H   tau(  43) = (   0.0360122   0.8136183   0.8421047  )
        44           H   tau(  44) = (   0.2201205   0.2465863   0.9431685  )
        45           C   tau(  45) = (   0.5502818   0.4964769   0.2921089  )
        46           C   tau(  46) = (   0.2017783   1.0635239   0.3029345  )
        47           C   tau(  47) = (  -0.0461913   0.6376211   0.8980660  )
        48           C   tau(  48) = (   0.3023122   0.0705740   0.8872405  )
        49           H   tau(  49) = (   0.6275560   0.4887826   0.3584009  )
        50           H   tau(  50) = (   0.1244987   1.0558207   0.2366509  )
        51           H   tau(  51) = (  -0.1234655   0.6453154   0.8317741  )
        52           H   tau(  52) = (   0.3795918   0.0782773   0.9535241  )
        53           C   tau(  53) = (   0.5391981   0.6008167   0.2148414  )
        54           C   tau(  54) = (   0.2128625   0.0337721   0.3801927  )
        55           C   tau(  55) = (  -0.0351076   0.5332812   0.9753336  )
        56           C   tau(  56) = (   0.2912280   1.1003258   0.8099823  )
        57           H   tau(  57) = (   0.6068222   0.6769231   0.2176060  )
        58           H   tau(  58) = (   0.1452328   0.1098737   0.3774346  )
        59           H   tau(  59) = (  -0.1027318   0.4571749   0.9725690  )
        60           H   tau(  60) = (   0.3588577   1.0242243   0.8127404  )
        61           C   tau(  61) = (   0.4380202   0.6109925   0.1327471  )
        62           C   tau(  62) = (   0.3140380   0.0439522   0.4622902  )
        63           C   tau(  63) = (   0.0660703   0.5231054   1.0574279  )
        64           C   tau(  64) = (   0.1900525   1.0901458   0.7278848  )
        65           H   tau(  65) = (   0.4302333   0.6933156   0.0728735  )
        66           H   tau(  66) = (   0.3218195   0.1262725   0.5221677  )
        67           H   tau(  67) = (   0.0738572   0.4407824   1.1173014  )
        68           H   tau(  68) = (   0.1822710   1.0078255   0.6680073  )
        69           C   tau(  69) = (   0.3471776   0.5174034   0.1273617  )
        70           C   tau(  70) = (   0.4048789   1.0844603   0.4676848  )
        71           C   tau(  71) = (   0.1569128   0.6166946   1.0628133  )
        72           C   tau(  72) = (   0.0992115   0.0496377   0.7224902  )
        73           C   tau(  73) = (   0.2373888   0.5297632   0.0386851  )
        74           C   tau(  74) = (   0.5146532   1.0968189   0.5563795  )
        75           C   tau(  75) = (   0.2667017   0.6043348   1.1514899  )
        76           C   tau(  76) = (  -0.0105628   0.0372790   0.6337954  )
        77           H   tau(  77) = (  -0.2481500   0.6147947   1.1721718  )
        78           H   tau(  78) = (   0.5042695   0.0477487   0.6130718  )
        79           H   tau(  79) = (   0.7522404   0.5193033   0.0180032  )
        80           H   tau(  80) = (  -0.0001790   1.0863493   0.5771031  )
        81           H   tau(  81) = (  -0.2620687   0.4490289   1.1646745  )
        82           H   tau(  82) = (   0.5181878   1.0160827   0.6205640  )
        83           H   tau(  83) = (   0.7661592   0.6850691   0.0255005  )
        84           H   tau(  84) = (  -0.0140974   0.1180152   0.5696110  )
        85           C   tau(  85) = (   0.0681111   0.6485700   0.1451562  )
        86           C   tau(  86) = (   0.6839397   0.0815213   0.4499242  )
        87           C   tau(  87) = (   0.4359794   0.4855280   1.0450188  )
        88           C   tau(  88) = (  -0.1798492   1.0525766   0.7402508  )
        89           C   tau(  89) = (  -0.1121690   0.7178908   0.2758930  )
        90           C   tau(  90) = (   0.8642204   0.1508421   0.3191754  )
        91           C   tau(  91) = (   0.6162594   0.4162072   0.9142820  )
        92           C   tau(  92) = (  -0.3601299   0.9832559   0.8709995  )
        93           H   tau(  93) = (   0.8998024   0.7984108   0.2129615  )
        94           H   tau(  94) = (  -0.1477465   0.2313657   0.3821048  )
        95           H   tau(  95) = (  -0.3957119   0.3356872   0.9772135  )
        96           H   tau(  96) = (   0.6518370   0.9027323   0.8080702  )
        97           H   tau(  97) = (   0.7906929   0.6845767   0.2694063  )
        98           H   tau(  98) = (  -0.0386428   0.1175255   0.3256621  )
        99           H   tau(  99) = (  -0.2866024   0.4495213   0.9207687  )
       100           H   tau( 100) = (   0.5427332   1.0165725   0.8645128  )
       101           C   tau( 101) = (  -0.1430547   0.6849617   0.5045778  )
       102           C   tau( 102) = (   0.8950972   0.1179095   0.0904900  )
       103           C   tau( 103) = (   0.6471452   0.4491363   0.6855972  )
       104           C   tau( 104) = (  -0.3910067   1.0161885   1.0996850  )
       105           H   tau( 105) = (   0.7630665   0.6510571   0.4790873  )
       106           H   tau( 106) = (  -0.0110201   0.0840122   0.1159764  )
       107           H   tau( 107) = (  -0.2589760   0.4830409   0.7110877  )
       108           H   tau( 108) = (   0.5151106   1.0500857   1.0741985  )
       109           H   tau( 109) = (  -0.1517522   0.7495534   0.5846853  )
       110           H   tau( 110) = (   0.9037838   0.1824966   0.0103781  )
       111           H   tau( 111) = (   0.6558427   0.3845446   0.6054897  )
       112           H   tau( 112) = (  -0.3996934   0.9516014   1.1797969  )
       113           C   tau( 113) = (  -0.0806149   0.4625344   0.4820793  )
       114           C   tau( 114) = (   0.8326733   1.0295821   0.1130292  )
       115           C   tau( 115) = (   0.5847054   0.6715636   0.7080956  )
       116           C   tau( 116) = (  -0.3285828   0.1045159   1.0771458  )
       117           H   tau( 117) = (  -0.1803961   0.4483699   0.4602982  )
       118           H   tau( 118) = (   0.9324567   1.0154296   0.1348062  )
       119           H   tau( 119) = (   0.6844865   0.6857281   0.7298767  )
       120           H   tau( 120) = (  -0.4283663   0.1186684   1.0553688  )
       121           H   tau( 121) = (  -0.0494664   0.3866450   0.5442547  )
       122           H   tau( 122) = (   0.8015288   0.9536848   0.0508620  )
       123           H   tau( 123) = (   0.5535569   0.7474530   0.6459203  )
       124           H   tau( 124) = (  -0.2974384   0.1804132   1.1393130  )
       125           C   tau( 125) = (   0.0990569   0.3715822   0.3653726  )
       126           C   tau( 126) = (   0.6530012   0.9386324   0.2297252  )
       127           C   tau( 127) = (   0.4050336   0.7625158   0.8248024  )
       128           C   tau( 128) = (  -0.1489107   0.1954655   0.9604497  )
       129           C   tau( 129) = (   0.2581133   0.3116218   0.2057265  )
       130           C   tau( 130) = (   0.4939402   0.8786696   0.3893518  )
       131           C   tau( 131) = (   0.2459772   0.8224761   0.9844485  )
       132           C   tau( 132) = (   0.0101503   0.2554283   0.8008232  )
       133           H   tau( 133) = (   0.2494793   0.2704456   0.1116016  )
       134           H   tau( 134) = (   0.5025535   0.8374990   0.4834812  )
       135           H   tau( 135) = (   0.2546112   0.8636523   1.0785734  )
       136           H   tau( 136) = (   0.0015370   0.2965990   0.7066937  )
       137           H   tau( 137) = (   0.2839664   0.2362449   0.2702944  )
       138           H   tau( 138) = (   0.4680989   0.8032903   0.3247821  )
       139           H   tau( 139) = (   0.2201241   0.8978530   0.9198806  )
       140           H   tau( 140) = (   0.0359916   0.3308077   0.8653929  )
       141           C   tau( 141) = (   0.0568347   0.4287999   0.1572018  )
       142           C   tau( 142) = (   0.6952180   0.9958533   0.4379057  )
       143           C   tau( 143) = (   0.4472557   0.7052981   1.0329732  )
       144           C   tau( 144) = (  -0.1911275   0.1382447   0.7522693  )
       145           H   tau( 145) = (   0.0178010   0.3683349   0.0835759  )
       146           H   tau( 146) = (   0.7342442   0.9353895   0.5115365  )
       147           H   tau( 147) = (   0.4862895   0.7657631   1.1065991  )
       148           H   tau( 148) = (  -0.2301537   0.1987085   0.6786385  )
       149           C   tau( 149) = (  -0.0447520   0.4873966   0.2444566  )
       150           C   tau( 150) = (   0.7968096   1.0544473   0.3506556  )
       151           C   tau( 151) = (   0.5488424   0.6467013   0.9457184  )
       152           C   tau( 152) = (  -0.2927191   0.0796506   0.8395193  )
       153           H   tau( 153) = (   0.8594242   0.4563642   0.2224137  )
       154           H   tau( 154) = (  -0.1073678   1.0234168   0.3727041  )
       155           H   tau( 155) = (  -0.3553338   0.6777338   0.9677613  )
       156           H   tau( 156) = (   0.6114582   0.1106811   0.8174709  )
       157           C   tau( 157) = (   0.0352512   0.8025037   0.4325457  )
       158           C   tau( 158) = (   0.7167944   0.2354543   0.1625353  )
       159           C   tau( 159) = (   0.4688393   0.3315943   0.7576293  )
       160           C   tau( 160) = (  -0.2127039   0.8986437   1.0276397  )
       161           H   tau( 161) = (   0.0265485   0.8706671   0.5098107  )
       162           H   tau( 162) = (   0.7254875   0.3036141   0.0852667  )
       163           H   tau( 163) = (   0.4775420   0.2634309   0.6803643  )
       164           H   tau( 164) = (  -0.2213971   0.8304839   1.1049083  )
       165           H   tau( 165) = (   0.0738553   0.8510999   0.3507931  )
       166           H   tau( 166) = (   0.6782002   0.2840546   0.2442904  )
       167           H   tau( 167) = (   0.4302351   0.2829980   0.8393819  )
       168           H   tau( 168) = (  -0.1741097   0.8500434   0.9458846  )
       169           C   tau( 169) = (   0.1229858   0.6963215   0.4745557  )
       170           C   tau( 170) = (   0.6290579   0.1292673   0.1205454  )
       171           C   tau( 171) = (   0.3811047   0.4377765   0.7156193  )
       172           C   tau( 172) = (  -0.1249674   1.0048307   1.0696295  )
       173           H   tau( 173) = (   0.2100338   0.7369336   0.5116750  )
       174           H   tau( 174) = (   0.5420069   0.1698743   0.0834270  )
       175           H   tau( 175) = (   0.2940566   0.3971643   0.6785000  )
       176           H   tau( 176) = (  -0.0379164   0.9642237   1.1067480  )
       177           H   tau( 177) = (   0.1476415   0.6369633   0.3943848  )
       178           H   tau( 178) = (   0.6044072   0.0699169   0.2007233  )
       179           H   tau( 179) = (   0.3564490   0.4971347   0.7957902  )
       180           H   tau( 180) = (  -0.1003167   1.0641810   0.9894517  )
       181           C   tau( 181) = (   0.0605538   0.6180516   0.5780950  )
       182           C   tau( 182) = (   0.6914852   0.0509910   0.0170066  )
       183           C   tau( 183) = (   0.4435367   0.5160464   0.6120799  )
       184           C   tau( 184) = (  -0.1873947   1.0831070   1.1731684  )
       185           H   tau( 185) = (   0.1160227   0.5339017   0.5986065  )
       186           H   tau( 186) = (   0.6360146   1.1009401  -0.0035024  )
       187           H   tau( 187) = (   0.3880677   0.6001963   0.5915685  )
       188           H   tau( 188) = (  -0.1319241   0.0331579   1.1936774  )
       189           H   tau( 189) = (   0.0565374   0.6747031   0.6640301  )
       190           H   tau( 190) = (   0.1995899   0.1076428   1.1212463  )
       191           H   tau( 191) = (   0.4475531   0.4593948   0.5261449  )
       192           H   tau( 192) = (   0.3045005   1.0264552   0.0689286  )

     number of k points=     8
                       cart. coord. in units 2pi/alat
        k(    1) = (   0.0000000   0.0000000   0.0000000), wk =   0.2500000
        k(    2) = (   0.0000000   0.0000000  -0.4201063), wk =   0.2500000
        k(    3) = (   0.0000000  -0.4408790   0.0000000), wk =   0.2500000
        k(    4) = (   0.0000000  -0.4408790  -0.4201063), wk =   0.2500000
        k(    5) = (  -0.5000000   0.0000000  -0.2083347), wk =   0.2500000
        k(    6) = (  -0.5000000   0.0000000  -0.6284410), wk =   0.2500000
        k(    7) = (  -0.5000000  -0.4408790  -0.2083347), wk =   0.2500000
        k(    8) = (  -0.5000000  -0.4408790  -0.6284410), wk =   0.2500000

     Dense  grid:  1502845 G-vectors     FFT dimensions: ( 135, 150, 180)

     Estimated max dynamical RAM per process >    2519.74MB

     Estimated total allocated dynamical RAM >   20157.93MB

     Check: negative/imaginary core charge=   -0.000002    0.000000

     Initial potential from superposition of free atoms

     starting charge  543.99598, renormalised to  544.00000
     Starting wfc are  504 randomized atomic wfcs
     Checking if some PAW data can be deallocated... 

     total cpu time spent up to now is      180.2 secs

     per-process dynamical memory:  1639.3 Mb

     Self-consistent Calculation

     iteration #  1     ecut=   100.00 Ry     beta=0.50
     Davidson diagonalization with overlap
     ethr =  1.00E-02,  avg # of iterations =  4.0

     total cpu time spent up to now is      729.5 secs

     total energy              =   -2440.11092518 Ry
     Harris-Foulkes estimate   =   -2449.50564308 Ry
     estimated scf accuracy    <      18.54296871 Ry

     iteration #  2     ecut=   100.00 Ry     beta=0.50
     Davidson diagonalization with overlap
     ethr =  3.41E-03,  avg # of iterations =  2.9

     total cpu time spent up to now is     1010.0 secs

     total energy              =   -2441.06174502 Ry
     Harris-Foulkes estimate   =   -2442.14886169 Ry
     estimated scf accuracy    <       2.32757189 Ry

     iteration #  3     ecut=   100.00 Ry     beta=0.50
     Davidson diagonalization with overlap
     ethr =  4.28E-04,  avg # of iterations =  5.0

     total cpu time spent up to now is     1626.0 secs

     total energy              =   -2442.82737285 Ry
     Harris-Foulkes estimate   =   -2443.71092241 Ry
     estimated scf accuracy    <       2.38949653 Ry

     iteration #  4     ecut=   100.00 Ry     beta=0.50
     Davidson diagonalization with overlap
     ethr =  4.28E-04,  avg # of iterations =  2.0

     total cpu time spent up to now is     1888.4 secs

     total energy              =   -2442.51677423 Ry
     Harris-Foulkes estimate   =   -2442.97475456 Ry
     estimated scf accuracy    <       0.71898927 Ry

     iteration #  5     ecut=   100.00 Ry     beta=0.50
     Davidson diagonalization with overlap
     ethr =  1.32E-04,  avg # of iterations =  8.2

     total cpu time spent up to now is     2510.6 secs

     total energy              =   -2442.94076288 Ry
     Harris-Foulkes estimate   =   -2443.27954366 Ry
     estimated scf accuracy    <       0.84641461 Ry

     iteration #  6     ecut=   100.00 Ry     beta=0.50
     Davidson diagonalization with overlap
     ethr =  1.32E-04,  avg # of iterations =  1.0

     total cpu time spent up to now is     2765.9 secs

     total energy              =   -2442.82326997 Ry
     Harris-Foulkes estimate   =   -2442.97625681 Ry
     estimated scf accuracy    <       0.25245052 Ry

     iteration #  7     ecut=   100.00 Ry     beta=0.50
     Davidson diagonalization with overlap
     ethr =  4.64E-05,  avg # of iterations =  9.5

     total cpu time spent up to now is     3374.0 secs

     total energy              =   -2442.99858907 Ry
     Harris-Foulkes estimate   =   -2443.05012395 Ry
     estimated scf accuracy    <       0.14603842 Ry

     iteration #  8     ecut=   100.00 Ry     beta=0.50
     Davidson diagonalization with overlap
     ethr =  2.68E-05,  avg # of iterations =  1.0

     total cpu time spent up to now is     3629.3 secs

     total energy              =   -2442.97707309 Ry
     Harris-Foulkes estimate   =   -2443.00325086 Ry
     estimated scf accuracy    <       0.05458017 Ry

     iteration #  9     ecut=   100.00 Ry     beta=0.50
     Davidson diagonalization with overlap
     ethr =  1.00E-05,  avg # of iterations =  8.1

     total cpu time spent up to now is     4166.6 secs

     total energy              =   -2443.00540044 Ry
     Harris-Foulkes estimate   =   -2443.00665137 Ry
     estimated scf accuracy    <       0.00707067 Ry

     iteration # 10     ecut=   100.00 Ry     beta=0.50
     Davidson diagonalization with overlap
     ethr =  1.30E-06,  avg # of iterations =  1.9

     total cpu time spent up to now is     4428.3 secs

     total energy              =   -2443.00309125 Ry
     Harris-Foulkes estimate   =   -2443.00555258 Ry
     estimated scf accuracy    <       0.00471647 Ry

     iteration # 11     ecut=   100.00 Ry     beta=0.50
     Davidson diagonalization with overlap
     ethr =  8.67E-07,  avg # of iterations =  4.0

     total cpu time spent up to now is     4809.2 secs

     total energy              =   -2443.00453922 Ry
     Harris-Foulkes estimate   =   -2443.00457996 Ry
     estimated scf accuracy    <       0.00024362 Ry

     iteration # 12     ecut=   100.00 Ry     beta=0.50
     Davidson diagonalization with overlap
     ethr =  4.48E-08,  avg # of iterations =  3.2

     total cpu time spent up to now is     5120.8 secs

     total energy              =   -2443.00450203 Ry
     Harris-Foulkes estimate   =   -2443.00457508 Ry
     estimated scf accuracy    <       0.00016948 Ry

     iteration # 13     ecut=   100.00 Ry     beta=0.50
     Davidson diagonalization with overlap
     ethr =  3.12E-08,  avg # of iterations =  4.0

     total cpu time spent up to now is     5430.6 secs

     total energy              =   -2443.00452430 Ry
     Harris-Foulkes estimate   =   -2443.00453067 Ry
     estimated scf accuracy    <       0.00001005 Ry

     iteration # 14     ecut=   100.00 Ry     beta=0.50
     Davidson diagonalization with overlap
     ethr =  1.85E-09,  avg # of iterations =  4.0

     total cpu time spent up to now is     6013.3 secs

     total energy              =   -2443.00453713 Ry
     Harris-Foulkes estimate   =   -2443.00453937 Ry
     estimated scf accuracy    <       0.00000847 Ry

     iteration # 15     ecut=   100.00 Ry     beta=0.50
     Davidson diagonalization with overlap
     ethr =  1.56E-09,  avg # of iterations =  1.0

     total cpu time spent up to now is     6268.4 secs

     total energy              =   -2443.00453517 Ry
     Harris-Foulkes estimate   =   -2443.00453728 Ry
     estimated scf accuracy    <       0.00000436 Ry

     iteration # 16     ecut=   100.00 Ry     beta=0.50
     Davidson diagonalization with overlap
     ethr =  8.02E-10,  avg # of iterations =  4.0

     total cpu time spent up to now is     6663.2 secs

     total energy              =   -2443.00453677 Ry
     Harris-Foulkes estimate   =   -2443.00453694 Ry
     estimated scf accuracy    <       0.00000043 Ry

     iteration # 17     ecut=   100.00 Ry     beta=0.50
     Davidson diagonalization with overlap
     ethr =  7.83E-11,  avg # of iterations =  3.0

     total cpu time spent up to now is     6934.8 secs

     total energy              =   -2443.00453672 Ry
     Harris-Foulkes estimate   =   -2443.00453680 Ry
     estimated scf accuracy    <       0.00000012 Ry

     iteration # 18     ecut=   100.00 Ry     beta=0.50
     Davidson diagonalization with overlap
     ethr =  2.28E-11,  avg # of iterations =  4.0

     total cpu time spent up to now is     7434.1 secs

     total energy              =   -2443.00453682 Ry
     Harris-Foulkes estimate   =   -2443.00453685 Ry
     estimated scf accuracy    <       0.00000010 Ry

     iteration # 19     ecut=   100.00 Ry     beta=0.50
     Davidson diagonalization with overlap
     ethr =  1.88E-11,  avg # of iterations =  2.0

     total cpu time spent up to now is     7696.3 secs

     total energy              =   -2443.00453681 Ry
     Harris-Foulkes estimate   =   -2443.00453683 Ry
     estimated scf accuracy    <       0.00000004 Ry

     iteration # 20     ecut=   100.00 Ry     beta=0.50
     Davidson diagonalization with overlap
     ethr =  6.49E-12,  avg # of iterations =  4.0

     total cpu time spent up to now is     8145.1 secs

     End of self-consistent calculation

          k = 0.0000 0.0000 0.0000 (187903 PWs)   bands (ev):

   -19.9038 -19.8959 -19.8720 -19.8670 -19.4220 -19.4175 -19.4092 -19.4042
   -18.0469 -18.0394 -18.0308 -18.0296 -17.3000 -17.2966 -17.2892 -17.2875
   -16.8159 -16.8026 -16.7994 -16.7862 -16.3782 -16.3735 -16.3719 -16.3704
   -16.0025 -15.9977 -15.9957 -15.9952 -14.7743 -14.7737 -14.7662 -14.7555
   -14.5390 -14.5289 -14.4999 -14.4900 -12.8046 -12.8028 -12.7960 -12.7956
   -12.2026 -12.1987 -12.1891 -12.1734 -12.1109 -12.0730 -12.0457 -12.0204
   -11.7437 -11.7375 -11.7288 -11.7120 -11.1210 -11.1067 -11.0904 -11.0793
   -11.0179 -11.0119 -10.9741 -10.9558 -10.3957 -10.3868 -10.3600 -10.3299
   -10.0951 -10.0478 -10.0394  -9.9874  -9.2587  -9.2534  -9.2096  -9.2026
    -8.7797  -8.7519  -8.7402  -8.7222  -8.6943  -8.6692  -8.6268  -8.6126
    -7.9608  -7.9554  -7.9299  -7.9244  -7.7017  -7.6990  -7.6871  -7.6672
    -7.5991  -7.5613  -7.5323  -7.5105  -7.2146  -7.1975  -7.1736  -7.1465
    -7.1407  -7.1293  -6.9889  -6.8951  -6.5254  -6.5065  -6.4904  -6.4876
    -6.4054  -6.2655  -6.2649  -6.0525  -5.9030  -5.8353  -5.8223  -5.7599
    -5.7043  -5.6750  -5.5824  -5.5692  -5.2967  -5.2848  -5.2794  -5.2106
    -5.1953  -5.1925  -5.1772  -5.0787  -4.9883  -4.9781  -4.9590  -4.9338
    -4.8708  -4.8343  -4.8090  -4.7824  -4.6761  -4.5874  -4.5663  -4.4468
    -4.4288  -4.4097  -4.3740  -4.3237  -4.2838  -4.2730  -4.2352  -4.2308
    -4.2109  -4.1983  -4.1646  -4.1250  -4.0645  -4.0123  -4.0031  -3.9931
    -3.9539  -3.9125  -3.8966  -3.8545  -3.8034  -3.7728  -3.7157  -3.7017
    -3.6278  -3.5796  -3.5567  -3.5447  -3.4882  -3.4339  -3.4024  -3.3738
    -3.3645  -3.3375  -3.1917  -3.1846  -3.1165  -3.0900  -3.0627  -3.0617
    -3.0119  -3.0072  -2.9715  -2.9462  -2.9373  -2.8890  -2.8347  -2.7882
    -2.7854  -2.7733  -2.7184  -2.6936  -2.6238  -2.6141  -2.5947  -2.5764
    -2.4594  -2.3813  -2.3558  -2.3358  -2.3303  -2.3236  -2.3210  -2.3037
    -2.2427  -2.2140  -2.2108  -2.1954  -2.0344  -2.0201  -2.0184  -1.9435
    -1.8888  -1.8819  -1.8149  -1.7800  -1.5795  -1.5683  -1.5330  -1.5312
    -1.4894  -1.4848  -1.4630  -1.4581  -1.3511  -1.3471  -1.3437  -1.3249
    -1.2806  -1.2035  -1.1979  -1.1653  -1.0237  -1.0095  -0.9856  -0.9566
    -0.0815  -0.0547  -0.0370  -0.0268   0.0893   0.1028   0.2549   0.3444
     0.3539   0.3941   0.4511   0.4553   0.4866   0.5587   0.5678   0.6026
     0.6085   0.6197   0.7233   0.7323   0.7494   0.7815   0.8556   0.8761
     1.0170   1.0439   1.0448   1.1042   1.2666   1.2688   1.2829   1.3810
     1.5905   1.5965   1.6288   1.6707   2.1011   2.1138   2.1200   2.1250
     5.3718   5.3846   5.5192   5.5930   5.6350   5.6499   5.7035   5.7758
     6.3920   6.4431   6.5208   6.5994   6.9232   6.9708   6.9944   7.0278
     7.0548   7.1087   7.2134   7.2682   7.2955   7.3510   7.4702   7.4789
     7.5035   7.5124   7.5958   7.7212   7.7429   7.7627   7.7733   7.8718
     7.9105   7.9936   8.0982   8.1083   8.1644   8.2917   8.2961   8.3146
     8.4047   8.4824   8.5013   8.6056   8.6308   8.6816   8.7029   8.7576
     8.8088   8.8204   8.8788   8.8833   8.9539   8.9937

          k = 0.0000 0.0000-0.4201 (187886 PWs)   bands (ev):

   -19.9001 -19.9000 -19.8693 -19.8693 -19.4202 -19.4200 -19.4063 -19.4063
   -18.0438 -18.0437 -18.0296 -18.0296 -17.3012 -17.3011 -17.2854 -17.2853
   -16.8113 -16.8113 -16.7910 -16.7910 -16.3836 -16.3834 -16.3639 -16.3637
   -16.0003 -16.0003 -15.9947 -15.9947 -14.7797 -14.7796 -14.7558 -14.7557
   -14.5377 -14.5376 -14.4908 -14.4908 -12.8110 -12.8110 -12.7881 -12.7881
   -12.2067 -12.2065 -12.1745 -12.1743 -12.1069 -12.1067 -12.0194 -12.0194
   -11.7410 -11.7410 -11.7204 -11.7204 -11.1119 -11.1118 -11.0779 -11.0778
   -11.0038 -11.0038 -10.9871 -10.9870 -10.3943 -10.3943 -10.3417 -10.3417
   -10.0657 -10.0657 -10.0162 -10.0162  -9.2609  -9.2609  -9.2011  -9.2011
    -8.7727  -8.7726  -8.7349  -8.7349  -8.6852  -8.6851  -8.6070  -8.6069
    -7.9468  -7.9468  -7.9361  -7.9361  -7.7023  -7.7022  -7.6719  -7.6719
    -7.5863  -7.5863  -7.5134  -7.5133  -7.1955  -7.1954  -7.1820  -7.1819
    -7.1518  -7.1518  -6.9416  -6.9416  -6.5100  -6.5100  -6.4949  -6.4949
    -6.3275  -6.3275  -6.1383  -6.1382  -5.8709  -5.8709  -5.7502  -5.7501
    -5.7123  -5.7123  -5.5915  -5.5915  -5.2718  -5.2717  -5.2430  -5.2430
    -5.1939  -5.1939  -5.1642  -5.1642  -5.0139  -5.0139  -4.9343  -4.9343
    -4.8513  -4.8512  -4.7899  -4.7898  -4.6465  -4.6465  -4.4876  -4.4876
    -4.4372  -4.4370  -4.3339  -4.3339  -4.2707  -4.2706  -4.2535  -4.2535
    -4.1842  -4.1840  -4.1111  -4.1111  -4.0647  -4.0647  -3.9881  -3.9881
    -3.9597  -3.9596  -3.8561  -3.8561  -3.7953  -3.7952  -3.6827  -3.6824
    -3.6592  -3.6589  -3.5355  -3.5352  -3.4593  -3.4592  -3.4005  -3.4005
    -3.3475  -3.3475  -3.1928  -3.1927  -3.1067  -3.1067  -3.0464  -3.0464
    -2.9776  -2.9772  -2.9564  -2.9564  -2.8587  -2.8584  -2.8393  -2.8392
    -2.7931  -2.7931  -2.7267  -2.7267  -2.6048  -2.6047  -2.5964  -2.5964
    -2.4234  -2.4234  -2.3567  -2.3567  -2.3037  -2.3037  -2.2820  -2.2819
    -2.2520  -2.2520  -2.2320  -2.2320  -2.0148  -2.0147  -1.9761  -1.9761
    -1.8816  -1.8814  -1.8283  -1.8283  -1.5630  -1.5630  -1.5492  -1.5492
    -1.4924  -1.4923  -1.4414  -1.4414  -1.3570  -1.3570  -1.3354  -1.3354
    -1.2305  -1.2305  -1.1796  -1.1796  -1.0239  -1.0238  -0.9658  -0.9657
    -0.0641  -0.0641  -0.0319  -0.0319   0.0730   0.0731   0.3256   0.3257
     0.3542   0.3544   0.4640   0.4640   0.5252   0.5252   0.6010   0.6012
     0.6050   0.6051   0.7378   0.7379   0.7527   0.7527   0.8482   0.8484
     1.0220   1.0220   1.0921   1.0921   1.2593   1.2595   1.3481   1.3482
     1.5988   1.5989   1.6386   1.6386   2.1073   2.1073   2.1238   2.1238
     5.3884   5.3887   5.5684   5.5684   5.6097   5.6097   5.7467   5.7468
     6.4095   6.4097   6.6134   6.6134   6.8910   6.8911   6.9877   6.9877
     7.0580   7.0582   7.2258   7.2259   7.3228   7.3228   7.5217   7.5217
     7.5352   7.5352   7.6265   7.6265   7.7459   7.7459   7.8875   7.8876
     7.9909   7.9910   8.1742   8.1744   8.2731   8.2732   8.2961   8.2962
     8.3388   8.3388   8.5112   8.5114   8.5805   8.5805   8.7486   8.7487
     8.8582   8.8582   8.9022   8.9023   8.9532   8.9532

          k = 0.0000-0.4409 0.0000 (187780 PWs)   bands (ev):

   -19.8999 -19.8999 -19.8695 -19.8695 -19.4198 -19.4197 -19.4067 -19.4067
   -18.0432 -18.0432 -18.0302 -18.0302 -17.2983 -17.2982 -17.2883 -17.2882
   -16.8077 -16.8076 -16.7943 -16.7943 -16.3749 -16.3747 -16.3728 -16.3726
   -15.9996 -15.9996 -15.9956 -15.9956 -14.7707 -14.7706 -14.7648 -14.7647
   -14.5338 -14.5337 -14.4948 -14.4948 -12.8033 -12.8033 -12.7941 -12.7941
   -12.2040 -12.2039 -12.1800 -12.1798 -12.0915 -12.0913 -12.0356 -12.0355
   -11.7383 -11.7382 -11.7234 -11.7234 -11.1079 -11.1079 -11.0942 -11.0940
   -11.0094 -11.0092 -10.9633 -10.9633 -10.3813 -10.3813 -10.3552 -10.3552
   -10.0736 -10.0736 -10.0120 -10.0120  -9.2362  -9.2362  -9.2275  -9.2274
    -8.7588  -8.7587  -8.7351  -8.7351  -8.6648  -8.6647  -8.6436  -8.6435
    -7.9574  -7.9574  -7.9275  -7.9275  -7.7073  -7.7073  -7.6674  -7.6674
    -7.5629  -7.5628  -7.5310  -7.5310  -7.1783  -7.1783  -7.1591  -7.1591
    -7.1210  -7.1209  -7.0288  -7.0288  -6.5109  -6.5109  -6.4941  -6.4941
    -6.3294  -6.3293  -6.1113  -6.1113  -5.8678  -5.8677  -5.7658  -5.7657
    -5.6713  -5.6712  -5.6557  -5.6557  -5.3070  -5.3069  -5.2196  -5.2196
    -5.1668  -5.1668  -5.1246  -5.1246  -4.9998  -4.9997  -4.9393  -4.9393
    -4.8580  -4.8579  -4.8014  -4.8013  -4.6018  -4.6017  -4.4998  -4.4998
    -4.4238  -4.4237  -4.3629  -4.3628  -4.2789  -4.2788  -4.2381  -4.2381
    -4.1938  -4.1938  -4.1007  -4.1006  -4.0839  -4.0838  -4.0456  -4.0455
    -3.9646  -3.9646  -3.8620  -3.8619  -3.7735  -3.7732  -3.7054  -3.7053
    -3.6310  -3.6308  -3.5241  -3.5238  -3.4767  -3.4766  -3.3680  -3.3679
    -3.3116  -3.3115  -3.2404  -3.2403  -3.0952  -3.0951  -3.0521  -3.0521
    -2.9895  -2.9891  -2.9185  -2.9185  -2.8902  -2.8901  -2.8682  -2.8679
    -2.8355  -2.8355  -2.7070  -2.7069  -2.5923  -2.5923  -2.5505  -2.5504
    -2.4413  -2.4413  -2.3747  -2.3746  -2.3121  -2.3121  -2.2663  -2.2663
    -2.2372  -2.2371  -2.2182  -2.2182  -2.0647  -2.0647  -1.9613  -1.9613
    -1.8750  -1.8749  -1.7861  -1.7860  -1.5522  -1.5522  -1.5232  -1.5232
    -1.4898  -1.4898  -1.4687  -1.4686  -1.3618  -1.3617  -1.3304  -1.3304
    -1.2509  -1.2509  -1.2204  -1.2203  -1.0071  -1.0071  -0.9540  -0.9539
    -0.0629  -0.0628  -0.0349  -0.0349   0.0891   0.0891   0.3017   0.3018
     0.3765   0.3766   0.4482   0.4484   0.5315   0.5316   0.5986   0.5987
     0.6130   0.6130   0.7251   0.7251   0.7588   0.7589   0.8673   0.8675
     1.0180   1.0180   1.0842   1.0842   1.2600   1.2600   1.3490   1.3491
     1.5751   1.5755   1.6548   1.6552   2.1062   2.1063   2.1247   2.1247
     5.3766   5.3769   5.5803   5.5805   5.6167   5.6167   5.7457   5.7458
     6.4435   6.4438   6.5122   6.5122   6.9321   6.9322   7.0203   7.0204
     7.0630   7.0633   7.2262   7.2262   7.4176   7.4176   7.4440   7.4440
     7.6102   7.6102   7.6664   7.6665   7.7250   7.7250   7.8392   7.8393
     7.9074   7.9075   8.0470   8.0470   8.1910   8.1912   8.2639   8.2640
     8.4665   8.4666   8.5094   8.5094   8.6872   8.6873   8.7221   8.7221
     8.7909   8.7910   8.8848   8.8849   8.8938   8.8938

          k = 0.0000-0.4409-0.4201 (187812 PWs)   bands (ev):

   -19.8998 -19.8997 -19.8697 -19.8697 -19.4198 -19.4196 -19.4067 -19.4067
   -18.0435 -18.0434 -18.0300 -18.0300 -17.3008 -17.3007 -17.2857 -17.2856
   -16.8072 -16.8071 -16.7949 -16.7949 -16.3838 -16.3836 -16.3642 -16.3640
   -15.9999 -15.9998 -15.9949 -15.9949 -14.7779 -14.7778 -14.7582 -14.7581
   -14.5368 -14.5367 -14.4912 -14.4912 -12.8100 -12.8100 -12.7870 -12.7870
   -12.2078 -12.2077 -12.1752 -12.1750 -12.1035 -12.1034 -12.0249 -12.0249
   -11.7320 -11.7320 -11.7300 -11.7299 -11.1072 -11.1071 -11.0840 -11.0839
   -10.9960 -10.9960 -10.9898 -10.9897 -10.3838 -10.3838 -10.3527 -10.3526
   -10.0420 -10.0419 -10.0400 -10.0400  -9.2463  -9.2463  -9.2171  -9.2170
    -8.7772  -8.7771  -8.7193  -8.7193  -8.6846  -8.6846  -8.6229  -8.6228
    -7.9440  -7.9440  -7.9389  -7.9388  -7.6911  -7.6910  -7.6788  -7.6787
    -7.5739  -7.5738  -7.5186  -7.5185  -7.1783  -7.1783  -7.1746  -7.1746
    -7.0936  -7.0935  -7.0735  -7.0734  -6.5046  -6.5046  -6.4985  -6.4985
    -6.2307  -6.2307  -6.1823  -6.1823  -5.8438  -5.8437  -5.7642  -5.7642
    -5.6995  -5.6994  -5.6406  -5.6405  -5.2798  -5.2797  -5.2085  -5.2085
    -5.1916  -5.1916  -5.1694  -5.1694  -4.9767  -4.9767  -4.9664  -4.9664
    -4.8709  -4.8708  -4.8136  -4.8135  -4.5654  -4.5654  -4.5030  -4.5029
    -4.4361  -4.4360  -4.3492  -4.3492  -4.2704  -4.2703  -4.2635  -4.2634
    -4.1719  -4.1717  -4.1152  -4.1151  -4.0442  -4.0441  -4.0260  -4.0260
    -3.9797  -3.9797  -3.8887  -3.8886  -3.7647  -3.7645  -3.7538  -3.7536
    -3.5752  -3.5748  -3.5738  -3.5734  -3.4610  -3.4609  -3.3533  -3.3531
    -3.2887  -3.2886  -3.2803  -3.2801  -3.0921  -3.0920  -3.0481  -3.0480
    -2.9749  -2.9745  -2.9070  -2.9070  -2.8730  -2.8728  -2.8654  -2.8653
    -2.8225  -2.8224  -2.7359  -2.7358  -2.5998  -2.5997  -2.5843  -2.5842
    -2.3687  -2.3686  -2.3567  -2.3566  -2.3413  -2.3413  -2.2701  -2.2701
    -2.2548  -2.2547  -2.2057  -2.2056  -2.0738  -2.0737  -1.9799  -1.9799
    -1.8489  -1.8487  -1.8314  -1.8313  -1.5436  -1.5435  -1.5372  -1.5371
    -1.4891  -1.4890  -1.4536  -1.4535  -1.3572  -1.3571  -1.3383  -1.3382
    -1.2411  -1.2410  -1.2192  -1.2192  -0.9981  -0.9980  -0.9631  -0.9629
    -0.0529  -0.0529  -0.0455  -0.0454   0.0757   0.0757   0.3290   0.3291
     0.3594   0.3596   0.4639   0.4640   0.5424   0.5425   0.5712   0.5713
     0.6286   0.6288   0.7287   0.7288   0.7442   0.7443   0.8531   0.8533
     1.0263   1.0264   1.0834   1.0835   1.2679   1.2681   1.3477   1.3478
     1.5976   1.5980   1.6304   1.6307   2.1067   2.1067   2.1251   2.1251
     5.3882   5.3885   5.5746   5.5747   5.6213   5.6214   5.7329   5.7329
     6.4147   6.4149   6.5822   6.5823   6.8842   6.8843   7.0396   7.0396
     7.0571   7.0572   7.1269   7.1270   7.4124   7.4125   7.4675   7.4676
     7.6445   7.6446   7.6712   7.6713   7.7180   7.7180   7.9046   7.9046
     8.0412   8.0412   8.1405   8.1406   8.1646   8.1647   8.2465   8.2466
     8.3836   8.3837   8.4749   8.4751   8.6334   8.6335   8.6593   8.6594
     8.7274   8.7276   8.8369   8.8369   8.9288   8.9290

          k =-0.5000 0.0000-0.2083 (187884 PWs)   bands (ev):

   -19.9036 -19.8960 -19.8719 -19.8673 -19.4218 -19.4177 -19.4091 -19.4044
   -18.0469 -18.0390 -18.0312 -18.0296 -17.2997 -17.2969 -17.2898 -17.2876
   -16.8162 -16.8027 -16.7993 -16.7860 -16.3822 -16.3734 -16.3707 -16.3680
   -16.0026 -15.9977 -15.9960 -15.9950 -14.7776 -14.7733 -14.7665 -14.7522
   -14.5321 -14.5246 -14.4976 -14.4906 -12.8424 -12.8218 -12.8071 -12.7988
   -12.2025 -12.1776 -12.1685 -12.1551 -12.0902 -12.0626 -12.0510 -12.0340
   -11.7463 -11.7377 -11.7245 -11.7214 -11.1075 -11.1036 -11.0868 -11.0624
   -11.0404 -11.0222 -10.9916 -10.9818 -10.3887 -10.3780 -10.3453 -10.3172
   -10.0811 -10.0426  -9.9956  -9.9610  -9.2697  -9.2617  -9.2085  -9.1977
    -8.8208  -8.8053  -8.8026  -8.7799  -8.6736  -8.6447  -8.6293  -8.6292
    -7.9257  -7.9228  -7.9142  -7.8995  -7.7217  -7.7188  -7.7092  -7.6936
    -7.5533  -7.5444  -7.5430  -7.5161  -7.2306  -7.2195  -7.2066  -7.1792
    -7.1787  -7.0969  -7.0089  -6.8567  -6.5196  -6.4976  -6.4910  -6.4662
    -6.3504  -6.2722  -6.1323  -6.0285  -5.8255  -5.7703  -5.7681  -5.7321
    -5.7135  -5.6550  -5.6285  -5.6226  -5.3209  -5.3135  -5.3124  -5.2190
    -5.1959  -5.1734  -5.1547  -5.1535  -5.0223  -5.0090  -4.9422  -4.9388
    -4.9222  -4.8340  -4.8280  -4.7619  -4.5872  -4.5619  -4.5431  -4.4946
    -4.4290  -4.3854  -4.3687  -4.3552  -4.3437  -4.2869  -4.2763  -4.2628
    -4.2209  -4.2156  -4.1765  -4.1343  -4.1203  -4.1139  -3.9796  -3.9795
    -3.9503  -3.9267  -3.8906  -3.8812  -3.7796  -3.7724  -3.7251  -3.6418
    -3.6015  -3.5509  -3.5434  -3.5413  -3.4011  -3.3615  -3.3542  -3.3310
    -3.3091  -3.2851  -3.2779  -3.2592  -3.2219  -3.1928  -3.1547  -3.1018
    -3.0436  -2.9749  -2.9656  -2.9478  -2.8854  -2.8841  -2.7958  -2.7820
    -2.7818  -2.7720  -2.7241  -2.7131  -2.6181  -2.6177  -2.6162  -2.5579
    -2.4481  -2.3927  -2.3517  -2.3470  -2.3045  -2.3001  -2.2779  -2.2720
    -2.2679  -2.2431  -2.2027  -2.1204  -2.0507  -1.9970  -1.9715  -1.9510
    -1.9390  -1.8965  -1.8336  -1.7836  -1.5542  -1.5454  -1.4956  -1.4668
    -1.4652  -1.4512  -1.4343  -1.4130  -1.3763  -1.3725  -1.3666  -1.3505
    -1.2478  -1.2435  -1.2330  -1.1741  -1.0396  -1.0202  -0.9838  -0.9498
    -0.1256  -0.0578  -0.0553  -0.0523   0.0801   0.1419   0.3409   0.3439
     0.3884   0.4316   0.4459   0.4476   0.5205   0.5303   0.5352   0.5974
     0.6110   0.6155   0.6851   0.6917   0.7048   0.7492   0.8439   0.8576
     1.0325   1.0478   1.0969   1.1198   1.2368   1.2912   1.2948   1.3354
     1.5750   1.6028   1.6400   1.6645   2.0892   2.0976   2.1390   2.1446
     5.3693   5.3769   5.5159   5.5971   5.6355   5.6398   5.6969   5.7604
     6.4895   6.5385   6.6225   6.6413   6.8634   6.9082   6.9843   7.0070
     7.0275   7.0637   7.1485   7.2315   7.2688   7.3047   7.3306   7.4766
     7.4898   7.5940   7.6665   7.6763   7.7892   7.8125   7.8498   7.9026
     7.9383   8.0828   8.0858   8.0890   8.2135   8.2332   8.3310   8.3378
     8.3918   8.4352   8.5125   8.6074   8.6243   8.6530   8.6967   8.7513
     8.7805   8.8168   8.8676   8.9158   8.9448   8.9491

          k =-0.5000 0.0000-0.6284 (187868 PWs)   bands (ev):

   -19.9001 -19.9000 -19.8693 -19.8693 -19.4202 -19.4200 -19.4064 -19.4063
   -18.0440 -18.0439 -18.0294 -18.0294 -17.3014 -17.3013 -17.2854 -17.2853
   -16.8114 -16.8114 -16.7909 -16.7909 -16.3835 -16.3833 -16.3642 -16.3640
   -16.0007 -16.0006 -15.9945 -15.9945 -14.7796 -14.7796 -14.7560 -14.7560
   -14.5315 -14.5314 -14.4902 -14.4902 -12.8455 -12.8455 -12.7887 -12.7887
   -12.1904 -12.1903 -12.1604 -12.1604 -12.0903 -12.0902 -12.0309 -12.0309
   -11.7441 -11.7441 -11.7205 -11.7205 -11.1100 -11.1099 -11.0696 -11.0695
   -11.0299 -11.0298 -10.9898 -10.9897 -10.3846 -10.3845 -10.3314 -10.3314
   -10.0611 -10.0611  -9.9756  -9.9756  -9.2683  -9.2683  -9.1995  -9.1995
    -8.8439  -8.8438  -8.7674  -8.7674  -8.6660  -8.6659  -8.6178  -8.6177
    -7.9212  -7.9212  -7.9097  -7.9097  -7.7087  -7.7087  -7.7060  -7.7060
    -7.5614  -7.5613  -7.5184  -7.5184  -7.2383  -7.2383  -7.1853  -7.1853
    -7.1392  -7.1391  -6.9397  -6.9397  -6.5106  -6.5106  -6.4773  -6.4773
    -6.3062  -6.3061  -6.0749  -6.0749  -5.7832  -5.7832  -5.7480  -5.7480
    -5.7210  -5.7210  -5.6234  -5.6234  -5.3256  -5.3255  -5.2484  -5.2484
    -5.2031  -5.2031  -5.1388  -5.1388  -5.0235  -5.0235  -4.9220  -4.9220
    -4.8594  -4.8593  -4.8164  -4.8164  -4.5623  -4.5623  -4.4771  -4.4770
    -4.4355  -4.4354  -4.4168  -4.4168  -4.3181  -4.3180  -4.2709  -4.2708
    -4.2186  -4.2185  -4.1357  -4.1356  -4.0640  -4.0639  -4.0144  -4.0143
    -3.9465  -3.9465  -3.8462  -3.8461  -3.7956  -3.7954  -3.6696  -3.6694
    -3.6147  -3.6144  -3.5315  -3.5310  -3.3922  -3.3921  -3.3669  -3.3669
    -3.2883  -3.2883  -3.2533  -3.2532  -3.1485  -3.1484  -3.1170  -3.1170
    -3.0441  -3.0440  -2.9668  -2.9664  -2.9235  -2.9234  -2.8153  -2.8153
    -2.7537  -2.7537  -2.6949  -2.6948  -2.6436  -2.6435  -2.5515  -2.5515
    -2.4484  -2.4483  -2.3333  -2.3333  -2.3286  -2.3285  -2.2944  -2.2944
    -2.2220  -2.2220  -2.1470  -2.1470  -2.0507  -2.0506  -1.9797  -1.9796
    -1.8790  -1.8789  -1.8009  -1.8009  -1.5449  -1.5449  -1.4854  -1.4853
    -1.4628  -1.4628  -1.4182  -1.4182  -1.3741  -1.3741  -1.3613  -1.3613
    -1.2508  -1.2508  -1.1917  -1.1917  -1.0217  -1.0216  -0.9793  -0.9791
    -0.0908  -0.0907  -0.0566  -0.0566   0.1235   0.1236   0.3265   0.3267
     0.3681   0.3683   0.4674   0.4674   0.5470   0.5471   0.5779   0.5781
     0.6312   0.6313   0.6888   0.6890   0.7106   0.7107   0.8309   0.8311
     1.0475   1.0476   1.1129   1.1129   1.2708   1.2709   1.3105   1.3107
     1.6027   1.6029   1.6318   1.6320   2.0921   2.0921   2.1425   2.1425
     5.3833   5.3836   5.5654   5.5655   5.6157   5.6157   5.7372   5.7372
     6.4895   6.4897   6.6781   6.6781   6.8939   6.8940   6.9581   6.9581
     7.0403   7.0404   7.1605   7.1606   7.3368   7.3369   7.4537   7.4537
     7.5174   7.5175   7.6549   7.6549   7.7647   7.7648   7.7767   7.7767
     8.0640   8.0642   8.1283   8.1283   8.2417   8.2417   8.3873   8.3874
     8.4437   8.4437   8.5078   8.5078   8.5810   8.5810   8.7550   8.7551
     8.7612   8.7612   8.8388   8.8390   8.9055   8.9056

          k =-0.5000-0.4409-0.2083 (187876 PWs)   bands (ev):

   -19.8998 -19.8998 -19.8696 -19.8696 -19.4198 -19.4196 -19.4067 -19.4067
   -18.0431 -18.0430 -18.0304 -18.0304 -17.2983 -17.2982 -17.2886 -17.2885
   -16.8077 -16.8077 -16.7942 -16.7942 -16.3769 -16.3767 -16.3710 -16.3708
   -15.9997 -15.9997 -15.9957 -15.9957 -14.7726 -14.7725 -14.7635 -14.7634
   -14.5277 -14.5276 -14.4937 -14.4937 -12.8262 -12.8262 -12.8086 -12.8086
   -12.1869 -12.1868 -12.1677 -12.1676 -12.0748 -12.0747 -12.0414 -12.0413
   -11.7391 -11.7391 -11.7285 -11.7285 -11.1043 -11.1043 -11.0728 -11.0728
   -11.0298 -11.0298 -10.9890 -10.9890 -10.3704 -10.3704 -10.3436 -10.3436
   -10.0419 -10.0419  -9.9999  -9.9999  -9.2409  -9.2408  -9.2283  -9.2283
    -8.8114  -8.8113  -8.7940  -8.7939  -8.6570  -8.6569  -8.6297  -8.6297
    -7.9241  -7.9240  -7.9058  -7.9058  -7.7251  -7.7250  -7.6995  -7.6995
    -7.5488  -7.5488  -7.5232  -7.5232  -7.2286  -7.2286  -7.1808  -7.1808
    -7.1337  -7.1336  -6.9845  -6.9845  -6.5010  -6.5010  -6.4819  -6.4819
    -6.2531  -6.2531  -6.1185  -6.1185  -5.7755  -5.7755  -5.7617  -5.7617
    -5.6634  -5.6634  -5.6283  -5.6283  -5.3131  -5.3130  -5.2437  -5.2436
    -5.2100  -5.2100  -5.1549  -5.1549  -4.9970  -4.9970  -4.9805  -4.9805
    -4.8886  -4.8885  -4.7865  -4.7865  -4.5764  -4.5764  -4.4694  -4.4693
    -4.4288  -4.4287  -4.3859  -4.3858  -4.3095  -4.3094  -4.2759  -4.2759
    -4.1998  -4.1998  -4.1365  -4.1364  -4.0774  -4.0773  -4.0559  -4.0559
    -4.0259  -4.0258  -3.8306  -3.8305  -3.7366  -3.7366  -3.6470  -3.6469
    -3.6312  -3.6309  -3.5629  -3.5626  -3.3992  -3.3991  -3.3547  -3.3546
    -3.2878  -3.2877  -3.2494  -3.2494  -3.1958  -3.1957  -3.0947  -3.0947
    -3.0283  -3.0283  -2.9389  -2.9387  -2.8704  -2.8702  -2.8114  -2.8113
    -2.7812  -2.7811  -2.7495  -2.7494  -2.5889  -2.5889  -2.5511  -2.5510
    -2.4284  -2.4284  -2.3630  -2.3630  -2.3088  -2.3087  -2.2938  -2.2938
    -2.2255  -2.2255  -2.1459  -2.1458  -2.0951  -2.0950  -1.9373  -1.9373
    -1.8848  -1.8847  -1.8223  -1.8223  -1.5516  -1.5515  -1.4860  -1.4860
    -1.4598  -1.4598  -1.4399  -1.4399  -1.3776  -1.3775  -1.3365  -1.3365
    -1.2454  -1.2454  -1.2217  -1.2217  -1.0118  -1.0117  -0.9626  -0.9624
    -0.0949  -0.0948  -0.0521  -0.0521   0.1105   0.1105   0.3606   0.3607
     0.3829   0.3830   0.4386   0.4387   0.5453   0.5456   0.5873   0.5874
     0.5975   0.5976   0.6974   0.6975   0.7147   0.7147   0.8554   0.8556
     1.0338   1.0338   1.1106   1.1107   1.2554   1.2555   1.3231   1.3232
     1.5783   1.5787   1.6611   1.6615   2.0896   2.0896   2.1441   2.1441
     5.3711   5.3714   5.5732   5.5734   5.6178   5.6178   5.7386   5.7386
     6.4986   6.4988   6.6172   6.6172   6.9420   6.9421   7.0268   7.0269
     7.0420   7.0421   7.1396   7.1397   7.2769   7.2769   7.3912   7.3913
     7.4626   7.4627   7.7226   7.7226   7.8261   7.8261   7.9210   7.9211
     8.0141   8.0142   8.0779   8.0779   8.1688   8.1688   8.3134   8.3135
     8.4466   8.4467   8.5308   8.5309   8.6501   8.6503   8.6987   8.6987
     8.8210   8.8211   8.8629   8.8630   8.9339   8.9340

          k =-0.5000-0.4409-0.6284 (187836 PWs)   bands (ev):

   -19.8998 -19.8997 -19.8696 -19.8696 -19.4198 -19.4196 -19.4067 -19.4067
   -18.0436 -18.0436 -18.0298 -18.0298 -17.3011 -17.3010 -17.2858 -17.2857
   -16.8071 -16.8071 -16.7950 -16.7950 -16.3831 -16.3828 -16.3651 -16.3649
   -16.0002 -16.0001 -15.9948 -15.9948 -14.7771 -14.7771 -14.7597 -14.7596
   -14.5305 -14.5304 -14.4902 -14.4901 -12.8414 -12.8414 -12.7926 -12.7926
   -12.1816 -12.1815 -12.1717 -12.1716 -12.0864 -12.0862 -12.0321 -12.0321
   -11.7415 -11.7415 -11.7261 -11.7261 -11.1021 -11.1020 -11.0721 -11.0719
   -11.0319 -11.0319 -10.9914 -10.9913 -10.3649 -10.3649 -10.3504 -10.3504
   -10.0306 -10.0306 -10.0071 -10.0071  -9.2461  -9.2460  -9.2220  -9.2220
    -8.8453  -8.8452  -8.7674  -8.7674  -8.6618  -8.6617  -8.6208  -8.6208
    -7.9225  -7.9224  -7.9079  -7.9079  -7.7077  -7.7076  -7.7062  -7.7061
    -7.5603  -7.5603  -7.5174  -7.5174  -7.2312  -7.2312  -7.1812  -7.1812
    -7.0704  -7.0703  -7.0594  -7.0593  -6.4931  -6.4931  -6.4888  -6.4888
    -6.2073  -6.2072  -6.1509  -6.1509  -5.7823  -5.7822  -5.7484  -5.7484
    -5.6893  -5.6892  -5.6314  -5.6314  -5.3033  -5.3033  -5.2551  -5.2551
    -5.1965  -5.1965  -5.1361  -5.1360  -5.0209  -5.0208  -4.9695  -4.9694
    -4.8662  -4.8661  -4.8178  -4.8178  -4.5671  -4.5670  -4.4939  -4.4938
    -4.4071  -4.4070  -4.3887  -4.3886  -4.3083  -4.3082  -4.2815  -4.2814
    -4.1700  -4.1699  -4.1508  -4.1506  -4.1053  -4.1052  -4.0404  -4.0403
    -3.9828  -3.9827  -3.8435  -3.8434  -3.7129  -3.7126  -3.6853  -3.6850
    -3.6073  -3.6069  -3.5808  -3.5804  -3.4058  -3.4057  -3.3793  -3.3792
    -3.2744  -3.2743  -3.2682  -3.2681  -3.1448  -3.1447  -3.0783  -3.0781
    -3.0372  -3.0370  -2.9664  -2.9660  -2.8944  -2.8942  -2.8631  -2.8630
    -2.7499  -2.7499  -2.7233  -2.7231  -2.5870  -2.5869  -2.5442  -2.5441
    -2.4229  -2.4228  -2.3924  -2.3924  -2.2920  -2.2920  -2.2891  -2.2891
    -2.2377  -2.2377  -2.1892  -2.1891  -2.0430  -2.0429  -1.9406  -1.9406
    -1.8763  -1.8760  -1.8236  -1.8236  -1.5454  -1.5453  -1.4828  -1.4827
    -1.4680  -1.4680  -1.4405  -1.4404  -1.3745  -1.3744  -1.3365  -1.3364
    -1.2407  -1.2406  -1.2177  -1.2176  -1.0048  -1.0047  -0.9797  -0.9796
    -0.0768  -0.0768  -0.0737  -0.0736   0.1258   0.1259   0.3314   0.3316
     0.3681   0.3683   0.4535   0.4536   0.5711   0.5714   0.5949   0.5950
     0.6061   0.6062   0.6989   0.6990   0.6996   0.6997   0.8341   0.8343
     1.0468   1.0469   1.1083   1.1083   1.2671   1.2672   1.3126   1.3127
     1.6005   1.6009   1.6346   1.6349   2.0892   2.0892   2.1437   2.1438
     5.3826   5.3829   5.5730   5.5731   5.6199   5.6200   5.7307   5.7308
     6.4751   6.4754   6.6739   6.6740   6.9109   6.9110   7.0273   7.0273
     7.0453   7.0455   7.1134   7.1134   7.3267   7.3269   7.3702   7.3703
     7.5427   7.5427   7.5852   7.5853   7.8524   7.8526   7.8721   7.8721
     8.0980   8.0980   8.1003   8.1003   8.1451   8.1452   8.2566   8.2567
     8.4818   8.4819   8.4928   8.4929   8.6005   8.6007   8.7092   8.7092
     8.7503   8.7504   8.9321   8.9322   8.9683   8.9686

     highest occupied, lowest unoccupied level (ev):     2.1446    5.3693

!    total energy              =   -2443.00453683 Ry
     Harris-Foulkes estimate   =   -2443.00453683 Ry
     estimated scf accuracy    <          8.7E-09 Ry

     total all-electron energy =     -9423.965824 Ry

     The total energy is the sum of the following terms:

     one-electron contribution =   -1560.67708647 Ry
     hartree contribution      =     993.47759344 Ry
     xc contribution           =    -552.94175913 Ry
     ewald contribution        =    -568.33794120 Ry
     Dispersion Correction     =      -0.99482732 Ry
     one-center paw contrib.   =    -753.53051615 Ry

     convergence has been achieved in  20 iterations

     Forces acting on atoms (cartesian axes, Ry/au):

     atom    1 type  4   force =    -0.00044734    0.00038530   -0.00036177
     atom    2 type  4   force =     0.00030311    0.00024530    0.00008585
     atom    3 type  4   force =     0.00044734   -0.00038530    0.00036177
     atom    4 type  4   force =    -0.00030311   -0.00024530   -0.00008585
     atom    5 type  4   force =    -0.00016790   -0.00014740    0.00022034
     atom    6 type  4   force =     0.00027025   -0.00045246   -0.00031429
     atom    7 type  4   force =     0.00016790    0.00014740   -0.00022034
     atom    8 type  4   force =    -0.00027025    0.00045246    0.00031429
     atom    9 type  2   force =     0.00019428   -0.00006863    0.00007024
     atom   10 type  2   force =    -0.00019104   -0.00007437   -0.00012657
     atom   11 type  2   force =    -0.00019428    0.00006863   -0.00007024
     atom   12 type  2   force =     0.00019104    0.00007437    0.00012657
     atom   13 type  2   force =     0.00017249    0.00017739   -0.00051701
     atom   14 type  2   force =    -0.00017346    0.00014317    0.00051567
     atom   15 type  2   force =    -0.00017249   -0.00017739    0.00051701
     atom   16 type  2   force =     0.00017346   -0.00014317   -0.00051567
     atom   17 type  2   force =     0.00041010    0.00001958    0.00056476
     atom   18 type  2   force =    -0.00037515   -0.00001126   -0.00058906
     atom   19 type  2   force =    -0.00041010   -0.00001958   -0.00056476
     atom   20 type  2   force =     0.00037515    0.00001126    0.00058906
     atom   21 type  2   force =     0.00008617    0.00031134   -0.00009878
     atom   22 type  2   force =    -0.00009941    0.00029353    0.00006594
     atom   23 type  2   force =    -0.00008617   -0.00031134    0.00009878
     atom   24 type  2   force =     0.00009941   -0.00029353   -0.00006594
     atom   25 type  2   force =    -0.00029299   -0.00000349   -0.00012542
     atom   26 type  2   force =     0.00029176    0.00000043    0.00011981
     atom   27 type  2   force =     0.00029299    0.00000349    0.00012542
     atom   28 type  2   force =    -0.00029176   -0.00000043   -0.00011981
     atom   29 type  2   force =    -0.00040605   -0.00006838    0.00007739
     atom   30 type  2   force =     0.00040586   -0.00007451   -0.00007565
     atom   31 type  2   force =     0.00040605    0.00006838   -0.00007739
     atom   32 type  2   force =    -0.00040586    0.00007451    0.00007565
     atom   33 type  1   force =    -0.00100402   -0.00034459   -0.00019547
     atom   34 type  1   force =     0.00100146   -0.00035805    0.00020673
     atom   35 type  1   force =     0.00100402    0.00034459    0.00019547
     atom   36 type  1   force =    -0.00100146    0.00035805   -0.00020673
     atom   37 type  1   force =    -0.00023318    0.00008417    0.00104070
     atom   38 type  1   force =     0.00022415    0.00010286   -0.00106281
     atom   39 type  1   force =     0.00023318   -0.00008417   -0.00104070
     atom   40 type  1   force =    -0.00022415   -0.00010286    0.00106281
     atom   41 type  3   force =     0.00004262    0.00048061   -0.00044204
     atom   42 type  3   force =    -0.00003798    0.00047336    0.00043134
     atom   43 type  3   force =    -0.00004262   -0.00048061    0.00044204
     atom   44 type  3   force =     0.00003798   -0.00047336   -0.00043134
     atom   45 type  1   force =    -0.00031784    0.00011205   -0.00043129
     atom   46 type  1   force =     0.00031940    0.00009447    0.00046162
     atom   47 type  1   force =     0.00031784   -0.00011205    0.00043129
     atom   48 type  1   force =    -0.00031940   -0.00009447   -0.00046162
     atom   49 type  3   force =     0.00019544   -0.00007881    0.00010220
     atom   50 type  3   force =    -0.00019555   -0.00007961   -0.00011439
     atom   51 type  3   force =    -0.00019544    0.00007881   -0.00010220
     atom   52 type  3   force =     0.00019555    0.00007961    0.00011439
     atom   53 type  1   force =     0.00005905   -0.00014934    0.00010876
     atom   54 type  1   force =    -0.00005999   -0.00014817   -0.00008186
     atom   55 type  1   force =    -0.00005905    0.00014934   -0.00010876
     atom   56 type  1   force =     0.00005999    0.00014817    0.00008186
     atom   57 type  3   force =     0.00018414    0.00011072   -0.00005390
     atom   58 type  3   force =    -0.00018143    0.00011627    0.00004011
     atom   59 type  3   force =    -0.00018414   -0.00011072    0.00005390
     atom   60 type  3   force =     0.00018143   -0.00011627   -0.00004011
     atom   61 type  1   force =    -0.00068461    0.00034908    0.00013169
     atom   62 type  1   force =     0.00067418    0.00033592   -0.00012476
     atom   63 type  1   force =     0.00068461   -0.00034908   -0.00013169
     atom   64 type  1   force =    -0.00067418   -0.00033592    0.00012476
     atom   65 type  3   force =     0.00022975   -0.00054280    0.00009358
     atom   66 type  3   force =    -0.00023165   -0.00053244   -0.00009907
     atom   67 type  3   force =    -0.00022975    0.00054280   -0.00009358
     atom   68 type  3   force =     0.00023165    0.00053244    0.00009907
     atom   69 type  1   force =    -0.00004666    0.00019245   -0.00012936
     atom   70 type  1   force =     0.00003863    0.00020527    0.00014723
     atom   71 type  1   force =     0.00004666   -0.00019245    0.00012936
     atom   72 type  1   force =    -0.00003863   -0.00020527   -0.00014723
     atom   73 type  1   force =    -0.00121909   -0.00015269   -0.00010512
     atom   74 type  1   force =     0.00118446   -0.00013731    0.00014949
     atom   75 type  1   force =     0.00121909    0.00015269    0.00010512
     atom   76 type  1   force =    -0.00118446    0.00013731   -0.00014949
     atom   77 type  3   force =     0.00008192    0.00019858    0.00008032
     atom   78 type  3   force =    -0.00008336    0.00019895   -0.00008816
     atom   79 type  3   force =    -0.00008192   -0.00019858   -0.00008032
     atom   80 type  3   force =     0.00008336   -0.00019895    0.00008816
     atom   81 type  3   force =     0.00035943   -0.00005284    0.00031045
     atom   82 type  3   force =    -0.00035762   -0.00005425   -0.00031372
     atom   83 type  3   force =    -0.00035943    0.00005284   -0.00031045
     atom   84 type  3   force =     0.00035762    0.00005425    0.00031372
     atom   85 type  1   force =    -0.00031774   -0.00019325   -0.00023893
     atom   86 type  1   force =     0.00019806    0.00020788    0.00035123
     atom   87 type  1   force =     0.00031774    0.00019325    0.00023893
     atom   88 type  1   force =    -0.00019806   -0.00020788   -0.00035123
     atom   89 type  1   force =     0.00032223   -0.00021997   -0.00087041
     atom   90 type  1   force =    -0.00032662   -0.00019511    0.00093691
     atom   91 type  1   force =    -0.00032223    0.00021997    0.00087041
     atom   92 type  1   force =     0.00032662    0.00019511   -0.00093691
     atom   93 type  3   force =    -0.00018433   -0.00025808   -0.00002347
     atom   94 type  3   force =     0.00018701   -0.00026447    0.00001986
     atom   95 type  3   force =     0.00018433    0.00025808    0.00002347
     atom   96 type  3   force =    -0.00018701    0.00026447   -0.00001986
     atom   97 type  3   force =    -0.00065839   -0.00016561   -0.00005032
     atom   98 type  3   force =     0.00065851   -0.00016907    0.00004787
     atom   99 type  3   force =     0.00065839    0.00016561    0.00005032
     atom  100 type  3   force =    -0.00065851    0.00016907   -0.00004787
     atom  101 type  1   force =    -0.00035430    0.00011062    0.00027870
     atom  102 type  1   force =     0.00035190    0.00010814   -0.00023623
     atom  103 type  1   force =     0.00035430   -0.00011062   -0.00027870
     atom  104 type  1   force =    -0.00035190   -0.00010814    0.00023623
     atom  105 type  3   force =    -0.00007842   -0.00008813   -0.00019430
     atom  106 type  3   force =     0.00007961   -0.00008610    0.00019020
     atom  107 type  3   force =     0.00007842    0.00008813    0.00019430
     atom  108 type  3   force =    -0.00007961    0.00008610   -0.00019020
     atom  109 type  3   force =    -0.00026647   -0.00004089   -0.00004474
     atom  110 type  3   force =     0.00026265   -0.00004083    0.00004344
     atom  111 type  3   force =     0.00026647    0.00004089    0.00004474
     atom  112 type  3   force =    -0.00026265    0.00004083   -0.00004344
     atom  113 type  1   force =     0.00017960   -0.00050611   -0.00022036
     atom  114 type  1   force =    -0.00019393   -0.00050138    0.00020691
     atom  115 type  1   force =    -0.00017960    0.00050611    0.00022036
     atom  116 type  1   force =     0.00019393    0.00050138   -0.00020691
     atom  117 type  3   force =    -0.00054617    0.00019596   -0.00024656
     atom  118 type  3   force =     0.00054777    0.00019953    0.00024323
     atom  119 type  3   force =     0.00054617   -0.00019596    0.00024656
     atom  120 type  3   force =    -0.00054777   -0.00019953   -0.00024323
     atom  121 type  3   force =    -0.00044477    0.00001128   -0.00012070
     atom  122 type  3   force =     0.00045117    0.00000298    0.00011299
     atom  123 type  3   force =     0.00044477   -0.00001128    0.00012070
     atom  124 type  3   force =    -0.00045117   -0.00000298   -0.00011299
     atom  125 type  1   force =     0.00003202   -0.00057996    0.00037719
     atom  126 type  1   force =     0.00015360   -0.00041044   -0.00001618
     atom  127 type  1   force =    -0.00003202    0.00057996   -0.00037719
     atom  128 type  1   force =    -0.00015360    0.00041044    0.00001618
     atom  129 type  1   force =    -0.00072614   -0.00022071    0.00019083
     atom  130 type  1   force =     0.00071945   -0.00020840   -0.00014943
     atom  131 type  1   force =     0.00072614    0.00022071   -0.00019083
     atom  132 type  1   force =    -0.00071945    0.00020840    0.00014943
     atom  133 type  3   force =     0.00025792    0.00005777   -0.00004512
     atom  134 type  3   force =    -0.00026167    0.00005516    0.00004086
     atom  135 type  3   force =    -0.00025792   -0.00005777    0.00004512
     atom  136 type  3   force =     0.00026167   -0.00005516   -0.00004086
     atom  137 type  3   force =     0.00006163    0.00016749    0.00040629
     atom  138 type  3   force =    -0.00005967    0.00016514   -0.00040837
     atom  139 type  3   force =    -0.00006163   -0.00016749   -0.00040629
     atom  140 type  3   force =     0.00005967   -0.00016514    0.00040837
     atom  141 type  1   force =     0.00009511   -0.00005513    0.00010921
     atom  142 type  1   force =    -0.00009002   -0.00008708   -0.00015769
     atom  143 type  1   force =    -0.00009511    0.00005513   -0.00010921
     atom  144 type  1   force =     0.00009002    0.00008708    0.00015769
     atom  145 type  3   force =     0.00044711    0.00032857    0.00042698
     atom  146 type  3   force =    -0.00044412    0.00033817   -0.00042370
     atom  147 type  3   force =    -0.00044711   -0.00032857   -0.00042698
     atom  148 type  3   force =     0.00044412   -0.00033817    0.00042370
     atom  149 type  1   force =    -0.00002757   -0.00015223   -0.00013544
     atom  150 type  1   force =     0.00003164   -0.00018213    0.00005586
     atom  151 type  1   force =     0.00002757    0.00015223    0.00013544
     atom  152 type  1   force =    -0.00003164    0.00018213   -0.00005586
     atom  153 type  3   force =     0.00021396    0.00013219    0.00007597
     atom  154 type  3   force =    -0.00021091    0.00013702   -0.00007096
     atom  155 type  3   force =    -0.00021396   -0.00013219   -0.00007597
     atom  156 type  3   force =     0.00021091   -0.00013702    0.00007096
     atom  157 type  1   force =    -0.00019574    0.00018523   -0.00008636
     atom  158 type  1   force =     0.00019388    0.00018464    0.00010276
     atom  159 type  1   force =     0.00019574   -0.00018523    0.00008636
     atom  160 type  1   force =    -0.00019388   -0.00018464   -0.00010276
     atom  161 type  3   force =     0.00000537   -0.00007945   -0.00015485
     atom  162 type  3   force =    -0.00000391   -0.00008147    0.00014913
     atom  163 type  3   force =    -0.00000537    0.00007945    0.00015485
     atom  164 type  3   force =     0.00000391    0.00008147   -0.00014913
     atom  165 type  3   force =    -0.00025661    0.00011854    0.00032344
     atom  166 type  3   force =     0.00025768    0.00011755   -0.00032513
     atom  167 type  3   force =     0.00025661   -0.00011854   -0.00032344
     atom  168 type  3   force =    -0.00025768   -0.00011755    0.00032513
     atom  169 type  1   force =     0.00006072   -0.00024229   -0.00034455
     atom  170 type  1   force =    -0.00006195   -0.00024751    0.00031962
     atom  171 type  1   force =    -0.00006072    0.00024229    0.00034455
     atom  172 type  1   force =     0.00006195    0.00024751   -0.00031962
     atom  173 type  3   force =     0.00048806    0.00013187    0.00006623
     atom  174 type  3   force =    -0.00048684    0.00012974   -0.00006366
     atom  175 type  3   force =    -0.00048806   -0.00013187   -0.00006623
     atom  176 type  3   force =     0.00048684   -0.00012974    0.00006366
     atom  177 type  3   force =    -0.00049522    0.00014223    0.00029107
     atom  178 type  3   force =     0.00049739    0.00014075   -0.00028908
     atom  179 type  3   force =     0.00049522   -0.00014223   -0.00029107
     atom  180 type  3   force =    -0.00049739   -0.00014075    0.00028908
     atom  181 type  1   force =    -0.00022802    0.00001576    0.00016027
     atom  182 type  1   force =     0.00023149    0.00001057   -0.00016032
     atom  183 type  1   force =     0.00022802   -0.00001576   -0.00016027
     atom  184 type  1   force =    -0.00023149   -0.00001057    0.00016032
     atom  185 type  3   force =    -0.00032397    0.00014313    0.00015853
     atom  186 type  3   force =     0.00032328    0.00013826   -0.00015624
     atom  187 type  3   force =     0.00032397   -0.00014313   -0.00015853
     atom  188 type  3   force =    -0.00032328   -0.00013826    0.00015624
     atom  189 type  3   force =    -0.00005073   -0.00021780   -0.00023462
     atom  190 type  3   force =     0.00004687   -0.00022450    0.00023538
     atom  191 type  3   force =     0.00005073    0.00021780    0.00023462
     atom  192 type  3   force =    -0.00004687    0.00022450   -0.00023538

     Total force =     0.007495     Total SCF correction =     0.000183


     Computing stress (Cartesian axis) and pressure

          total   stress  (Ry/bohr**3)                   (kbar)     P=   -6.45
  -0.00004328   0.00000004   0.00000125         -6.37      0.01      0.18
   0.00000004  -0.00004362   0.00000007          0.01     -6.42      0.01
   0.00000125   0.00000007  -0.00004467          0.18      0.01     -6.57


     Writing output data file scf.save
 
     init_run     :    173.37s CPU    179.54s WALL (       1 calls)
     electrons    :   7697.28s CPU   7965.21s WALL (       1 calls)
     forces       :     79.04s CPU     79.65s WALL (       1 calls)
     stress       :    671.40s CPU    672.47s WALL (       1 calls)

     Called by init_run:
     wfcinit      :    151.87s CPU    157.71s WALL (       1 calls)
     potinit      :      7.54s CPU      7.60s WALL (       1 calls)

     Called by electrons:
     c_bands      :   6974.19s CPU   7206.39s WALL (      20 calls)
     sum_band     :    684.02s CPU    715.41s WALL (      20 calls)
     v_of_rho     :      5.52s CPU      6.01s WALL (      21 calls)
     newd         :     14.86s CPU     18.65s WALL (      21 calls)
     PAW_pot      :     17.19s CPU     17.20s WALL (      21 calls)
     mix_rho      :      1.29s CPU      1.43s WALL (      20 calls)

     Called by c_bands:
     init_us_2    :     35.75s CPU     35.83s WALL (     344 calls)
     cegterg      :   6836.90s CPU   7068.99s WALL (     160 calls)

     Called by sum_band:
     sum_band:bec :      0.37s CPU      0.37s WALL (     160 calls)
     addusdens    :     15.05s CPU     18.68s WALL (      20 calls)

     Called by *egterg:
     h_psi        :   3724.05s CPU   3907.83s WALL (     783 calls)
     s_psi        :    825.76s CPU    825.99s WALL (     783 calls)
     g_psi        :     19.31s CPU     19.32s WALL (     615 calls)
     cdiaghg      :    427.14s CPU    427.24s WALL (     775 calls)

     Called by h_psi:
     h_psi:pot    :   3701.94s CPU   3885.40s WALL (     783 calls)
     h_psi:calbec :    792.66s CPU    793.90s WALL (     783 calls)
     vloc_psi     :   2084.26s CPU   2266.22s WALL (     783 calls)
     add_vuspsi   :    825.02s CPU    825.28s WALL (     783 calls)

     General routines
     calbec       :   1125.10s CPU   1126.85s WALL (     983 calls)
     fft          :      3.08s CPU      3.89s WALL (     297 calls)
     fftw         :   2233.09s CPU   2441.83s WALL (  358184 calls)
 
     Parallel routines
     fft_scatter  :    316.03s CPU    524.61s WALL (  358481 calls)
 
     PWSCF        :     2h24m CPU        2h29m WALL

 
   This run was terminated on:   7:14:53   4Nov2017            

=------------------------------------------------------------------------------=
   JOB DONE.
=------------------------------------------------------------------------------=
