
     Program PWSCF v.6.1 (svn rev. 13369) starts on 10Dec2017 at  6:55:45 

     This program is part of the open-source Quantum ESPRESSO suite
     for quantum simulation of materials; please cite
         "P. Giannozzi et al., J. Phys.:Condens. Matter 21 395502 (2009);
          URL http://www.quantum-espresso.org", 
     in publications or presentations arising from this work. More details at
     http://www.quantum-espresso.org/quote

     Parallel version (MPI), running on     8 processors
     R & G space division:  proc/nbgrp/npool/nimage =       8
     Waiting for input...
     Reading input from standard input

     Current dimensions of program PWSCF are:
     Max number of different atomic species (ntypx) = 10
     Max number of k-points (npk) =  40000
     Max angular momentum in pseudopotentials (lmaxx) =  3
               file C.pbe-n-kjpaw_psl.0.1.UPF: wavefunction(s)  2P renormalized
               file N.pbe-n-kjpaw_psl.0.1.UPF: wavefunction(s)  2P renormalized
               file H.pbe-kjpaw_psl.0.1.UPF: wavefunction(s)  1S renormalized
               file O.pbe-n-kjpaw_psl.0.1.UPF: wavefunction(s)  2P renormalized

     -------------------------------------
     Parameters for Dispersion Correction:
     -------------------------------------
       atom      VdW radius       C_6     

        C          2.744         60.710
        N          2.640         42.670
        H          1.892          4.857
        O          2.536         24.284

     Subspace diagonalization in iterative solution of the eigenvalue problem:
     a serial algorithm will be used

 
     Parallelization info
     --------------------
     sticks:   dense  smooth     PW     G-vecs:    dense   smooth      PW
     Min        3268    3268    858               177744   177744   23975
     Max        3269    3269    859               177745   177745   23977
     Sum       26145   26145   6865              1421955  1421955  191807
 


     bravais-lattice index     =            0
     lattice parameter (alat)  =      15.1817  a.u.
     unit-cell volume          =   10525.0161 (a.u.)^3
     number of atoms/cell      =          164
     number of atomic types    =            4
     number of electrons       =       464.00
     number of Kohn-Sham states=          278
     kinetic-energy cutoff     =     100.0000  Ry
     charge density cutoff     =     400.0000  Ry
     convergence threshold     =      1.0E-08
     mixing beta               =       0.5000
     number of iterations used =            8  plain     mixing
     Exchange-correlation      =  SLA  PW   PBX  PBC ( 1  4  3  4 0 0)

     celldm(1)=  15.181682  celldm(2)=   0.000000  celldm(3)=   0.000000
     celldm(4)=   0.000000  celldm(5)=   0.000000  celldm(6)=   0.000000

     crystal axes: (cart. coord. in units of alat)
               a(1) = (   1.000000   0.000000   0.000000 )  
               a(2) = (   0.000000   3.562200   0.000000 )  
               a(3) = (  -0.324995   0.000000   0.844393 )  

     reciprocal axes: (cart. coord. in units 2 pi/alat)
               b(1) = (  1.000000  0.000000  0.384886 )  
               b(2) = (  0.000000  0.280725  0.000000 )  
               b(3) = (  0.000000  0.000000  1.184282 )  


     PseudoPot. # 1 for  C read from file:
     /scratch/ahofstet/pseudo/C.pbe-n-kjpaw_psl.0.1.UPF
     MD5 check sum: 430fe95172b1e11ef3f8ed03bac87931
     Pseudo is Projector augmented-wave + core cor, Zval =  4.0
     Generated using "atomic" code by A. Dal Corso  v.5.0.99 svn rev. 10869
     Shape of augmentation charge: BESSEL
     Using radial grid of 1073 points,  4 beta functions with: 
                l(1) =   0
                l(2) =   0
                l(3) =   1
                l(4) =   1
     Q(r) pseudized with 0 coefficients 


     PseudoPot. # 2 for  N read from file:
     /scratch/ahofstet/pseudo/N.pbe-n-kjpaw_psl.0.1.UPF
     MD5 check sum: f73187c8b701007e77325f868c9291d7
     Pseudo is Projector augmented-wave + core cor, Zval =  5.0
     Generated using "atomic" code by A. Dal Corso  v.5.0.99 svn rev. 10869
     Shape of augmentation charge: PSQ
     Using radial grid of 1085 points,  4 beta functions with: 
                l(1) =   0
                l(2) =   0
                l(3) =   1
                l(4) =   1
     Q(r) pseudized with 0 coefficients 


     PseudoPot. # 3 for  H read from file:
     /scratch/ahofstet/pseudo/H.pbe-kjpaw_psl.0.1.UPF
     MD5 check sum: 94e484f906d9e9773b2f6e52662335b2
     Pseudo is Projector augmented-wave, Zval =  1.0
     Generated using "atomic" code by A. Dal Corso  v.5.0.99 svn rev. 10869
     Shape of augmentation charge: PSQ
     Using radial grid of  929 points,  2 beta functions with: 
                l(1) =   0
                l(2) =   0
     Q(r) pseudized with 0 coefficients 


     PseudoPot. # 4 for  O read from file:
     /scratch/ahofstet/pseudo/O.pbe-n-kjpaw_psl.0.1.UPF
     MD5 check sum: 3f94a2996a3169367d6eb21d9b593f20
     Pseudo is Projector augmented-wave + core cor, Zval =  6.0
     Generated using "atomic" code by A. Dal Corso  v.5.0.99 svn rev. 10869
     Shape of augmentation charge: BESSEL
     Using radial grid of 1095 points,  4 beta functions with: 
                l(1) =   0
                l(2) =   0
                l(3) =   1
                l(4) =   1
     Q(r) pseudized with 0 coefficients 


     atomic species   valence    mass     pseudopotential
        C              4.00    12.01070      C( 1.00)
        N              5.00    14.00670      N( 1.00)
        H              1.00     1.00794      H( 1.00)
        O              6.00    15.99940      O( 1.00)

      4 Sym. Ops., with inversion, found ( 2 have fractional translation)



   Cartesian axes

     site n.     atom                  positions (alat units)
         1           N   tau(   1) = (   0.2829976   1.1706977   0.6975403  )
         2           N   tau(   2) = (   0.2295100   2.9517976   0.5690498  )
         3           N   tau(   3) = (   0.3920074   2.3915020   0.1468531  )
         4           N   tau(   4) = (   0.4454951   0.6104021   0.2753436  )
         5           N   tau(   5) = (   0.1926571   0.8892510   0.7090132  )
         6           N   tau(   6) = (   0.3198505   2.6703508   0.5575769  )
         7           N   tau(   7) = (   0.4823480   2.6729487   0.1353802  )
         8           N   tau(   8) = (   0.3551545   0.8918489   0.2868165  )
         9           N   tau(   9) = (   0.2775375   0.7440636   0.7023177  )
        10           N   tau(  10) = (   0.2349701   2.5251635   0.5642725  )
        11           N   tau(  11) = (   0.3974676   2.8181361   0.1420757  )
        12           N   tau(  12) = (   0.4400349   1.0370362   0.2801210  )
        13           N   tau(  13) = (   0.5539238   0.6297340   0.6823253  )
        14           N   tau(  14) = (  -0.0414162   2.4108338   0.5842649  )
        15           N   tau(  15) = (   0.1210813   2.9324657   0.1620681  )
        16           N   tau(  16) = (   0.7164213   1.1513659   0.2601286  )
        17           N   tau(  17) = (   0.3851768   1.4412045   0.6730421  )
        18           N   tau(  18) = (   0.1273308   3.2223044   0.5935480  )
        19           N   tau(  19) = (   0.2898283   2.1209952   0.1713513  )
        20           N   tau(  20) = (   0.5476743   0.3398953   0.2508454  )
        21           N   tau(  21) = (   0.5176878   1.5478877   0.6591557  )
        22           N   tau(  22) = (  -0.0051802   3.3289875   0.6074344  )
        23           N   tau(  23) = (   0.1573173   2.0143120   0.1852377  )
        24           N   tau(  24) = (   0.6801852   0.2332122   0.2369590  )
        25           C   tau(  25) = (   0.3150933   1.0054422   0.6998747  )
        26           C   tau(  26) = (   0.1974143   2.7865421   0.5667155  )
        27           C   tau(  27) = (   0.3599117   2.5567575   0.1445187  )
        28           C   tau(  28) = (   0.4775908   0.7756576   0.2776780  )
        29           C   tau(  29) = (   0.4778494   0.9348064   0.6890296  )
        30           C   tau(  30) = (   0.0346582   2.7159062   0.5775605  )
        31           C   tau(  31) = (   0.1971557   2.6273933   0.1553638  )
        32           C   tau(  32) = (   0.6403468   0.8462935   0.2668329  )
        33           C   tau(  33) = (   0.6170709   1.0415655   0.6773064  )
        34           C   tau(  34) = (  -0.1045633   2.8226654   0.5892838  )
        35           C   tau(  35) = (   0.0579341   2.5206342   0.1670870  )
        36           C   tau(  36) = (   0.7795684   0.7395343   0.2551097  )
        37           C   tau(  37) = (   0.5827476   1.2106839   0.6734233  )
        38           C   tau(  38) = (  -0.0702400   2.9917837   0.5931668  )
        39           C   tau(  39) = (   0.0922575   2.3515158   0.1709701  )
        40           C   tau(  40) = (   0.7452450   0.5704160   0.2512266  )
        41           H   tau(  41) = (   0.6827437   1.3008013   0.6608155  )
        42           H   tau(  42) = (  -0.1702360   3.0819011   0.6057747  )
        43           H   tau(  43) = (  -0.0077386   2.2613984   0.1835780  )
        44           H   tau(  44) = (   0.8452411   0.4802986   0.2386187  )
        45           C   tau(  45) = (   0.4156090   1.2672101   0.6826561  )
        46           C   tau(  46) = (   0.0968986   3.0483100   0.5839340  )
        47           C   tau(  47) = (   0.2593960   2.2949896   0.1617373  )
        48           C   tau(  48) = (   0.5781065   0.5138897   0.2604594  )
        49           C   tau(  49) = (   0.4514384   0.7607595   0.6903093  )
        50           C   tau(  50) = (   0.0610692   2.5418594   0.5762808  )
        51           C   tau(  51) = (   0.2235666   2.8014402   0.1540841  )
        52           C   tau(  52) = (   0.6139359   1.0203403   0.2681126  )
        53           C   tau(  53) = (  -0.2090213   0.9775482   0.6695765  )
        54           C   tau(  54) = (   0.7215289   2.7586480   0.5970137  )
        55           C   tau(  55) = (   0.8840264   2.5846515   0.1748170  )
        56           C   tau(  56) = (  -0.0465239   0.8035517   0.2473798  )
        57           H   tau(  57) = (  -0.1702471   0.9240208   0.7896964  )
        58           H   tau(  58) = (   0.6827547   2.7051207   0.4768937  )
        59           H   tau(  59) = (   0.8452522   2.6381789   0.0546970  )
        60           H   tau(  60) = (  -0.0077497   0.8570791   0.3674997  )
        61           H   tau(  61) = (  -0.1201520   1.0760528   0.6376864  )
        62           H   tau(  62) = (   0.6326596   2.8571526   0.6289038  )
        63           H   tau(  63) = (   0.7951571   2.4861470   0.2067071  )
        64           H   tau(  64) = (   0.0423454   0.7050471   0.2154897  )
        65           H   tau(  65) = (  -0.1993641   0.8763815   0.5782645  )
        66           H   tau(  66) = (   0.7118717   2.6574813   0.6883257  )
        67           H   tau(  67) = (   0.8743691   2.6858183   0.2661290  )
        68           H   tau(  68) = (  -0.0368666   0.9047184   0.1560677  )
        69           C   tau(  69) = (   0.0207452   0.5809216   0.7090156  )
        70           C   tau(  70) = (   0.4917624   2.3620215   0.5575745  )
        71           C   tau(  71) = (   0.6542599   2.9812781   0.1353778  )
        72           C   tau(  72) = (   0.1832427   1.2001782   0.2868189  )
        73           H   tau(  73) = (  -0.0193341   0.4511135   0.7224184  )
        74           H   tau(  74) = (   0.5318417   2.2322133   0.5441718  )
        75           H   tau(  75) = (   0.6943392   3.1110862   0.1219751  )
        76           H   tau(  76) = (   0.1431634   1.3299864   0.3002216  )
        77           H   tau(  77) = (  -0.0342153   0.6325270   0.5945026  )
        78           H   tau(  78) = (   0.5467229   2.4136269   0.6720875  )
        79           H   tau(  79) = (   0.7092204   2.9296727   0.2498908  )
        80           H   tau(  80) = (   0.1282821   1.1485728   0.1723059  )
        81           H   tau(  81) = (  -0.0281929   0.6553178   0.8127795  )
        82           H   tau(  82) = (   0.5407005   2.4364176   0.4538107  )
        83           H   tau(  83) = (   0.7031980   2.9068819   0.0316140  )
        84           H   tau(  84) = (   0.1343045   1.1257821   0.3905828  )
        85           C   tau(  85) = (   0.2046506   0.5903839   0.7035376  )
        86           C   tau(  86) = (   0.3078570   2.3714837   0.5630526  )
        87           C   tau(  87) = (   0.4703545   2.9718158   0.1408559  )
        88           C   tau(  88) = (   0.3671480   1.1907160   0.2813408  )
        89           C   tau(  89) = (   0.3113305   0.4558100   0.6973966  )
        90           C   tau(  90) = (   0.2011771   2.2369099   0.5691936  )
        91           C   tau(  91) = (   0.3636745   3.1063897   0.1469968  )
        92           C   tau(  92) = (   0.4738280   1.3252898   0.2751999  )
        93           H   tau(  93) = (   0.2582750   0.3311074   0.7013977  )
        94           H   tau(  94) = (   0.2542326   2.1122073   0.5651925  )
        95           H   tau(  95) = (   0.4167300   3.2310923   0.1429958  )
        96           H   tau(  96) = (   0.4207725   1.4499924   0.2792009  )
        97           C   tau(  97) = (   0.4852905   0.4783407   0.6867975  )
        98           C   tau(  98) = (   0.0272171   2.2594405   0.5797926  )
        99           C   tau(  99) = (   0.1897146   3.0838590   0.1575959  )
       100           C   tau( 100) = (   0.6477880   1.3027592   0.2646008  )
       101           C   tau( 101) = (   0.5976444   0.3294528   0.6808486  )
       102           C   tau( 102) = (  -0.0851368   2.1105527   0.5857416  )
       103           C   tau( 103) = (   0.0773607   3.2327469   0.1635448  )
       104           C   tau( 104) = (   0.7601418   1.4516470   0.2586519  )
       105           H   tau( 105) = (   0.7264751   0.3673313   0.6576524  )
       106           H   tau( 106) = (  -0.2139675   2.1484312   0.6089378  )
       107           H   tau( 107) = (  -0.0514700   3.1948684   0.1867410  )
       108           H   tau( 108) = (   0.8889726   1.4137685   0.2354557  )
       109           H   tau( 109) = (   0.5589893   0.2432519   0.5815333  )
       110           H   tau( 110) = (  -0.0464817   2.0243518   0.6850569  )
       111           H   tau( 111) = (   0.1160158   3.3189478   0.2628602  )
       112           H   tau( 112) = (   0.7214868   1.5378479   0.1593366  )
       113           H   tau( 113) = (   0.5907329   0.2612366   0.7996981  )
       114           H   tau( 114) = (  -0.0782253   2.0423365   0.4668920  )
       115           H   tau( 115) = (   0.0842721   3.3009631   0.0446953  )
       116           H   tau( 116) = (   0.7532304   1.5198632   0.3775014  )
       117           C   tau( 117) = (   0.0651088   1.4519453   0.6845153  )
       118           C   tau( 118) = (   0.4473988   3.2330451   0.5820749  )
       119           C   tau( 119) = (   0.6098963   2.1102544   0.1598781  )
       120           C   tau( 120) = (   0.2276063   0.3291546   0.2623186  )
       121           H   tau( 121) = (   0.0396591   1.3689469   0.5787782  )
       122           H   tau( 122) = (   0.4728485   3.1500467   0.6878119  )
       123           H   tau( 123) = (   0.6353459   2.1932528   0.2656152  )
       124           H   tau( 124) = (   0.2021566   0.4121530   0.1565815  )
       125           H   tau( 125) = (  -0.0271568   1.5533084   0.6849912  )
       126           H   tau( 126) = (   0.5396644   3.3344083   0.5815989  )
       127           H   tau( 127) = (   0.7021618   2.0088913   0.1594022  )
       128           H   tau( 128) = (   0.1353407   0.2277914   0.2627945  )
       129           H   tau( 129) = (   0.0505025   1.3756015   0.7969142  )
       130           H   tau( 130) = (   0.4620051   3.1567014   0.4696760  )
       131           H   tau( 131) = (   0.6245026   2.1865982   0.0474792  )
       132           H   tau( 132) = (   0.2129999   0.4054984   0.3747175  )
       133           C   tau( 133) = (   0.2348526   1.5261528   0.6739823  )
       134           C   tau( 134) = (   0.2776550   3.3072526   0.5926078  )
       135           C   tau( 135) = (   0.4401525   2.0360469   0.1704111  )
       136           C   tau( 136) = (   0.3973501   0.2549471   0.2517856  )
       137           C   tau( 137) = (   0.2762032   1.6927859   0.6611272  )
       138           C   tau( 138) = (   0.2363044   3.4738857   0.6054630  )
       139           C   tau( 139) = (   0.3988018   1.8694138   0.1832663  )
       140           C   tau( 140) = (   0.4387007   0.0883140   0.2389304  )
       141           H   tau( 141) = (   0.1889391   1.7959733   0.6598159  )
       142           H   tau( 142) = (   0.3235685   0.0148734   0.6067742  )
       143           H   tau( 143) = (   0.4860660   1.7662264   0.1845775  )
       144           H   tau( 144) = (   0.3514366   3.5473263   0.2376192  )
       145           C   tau( 145) = (   0.4520426   1.7001356   0.6520264  )
       146           C   tau( 146) = (   0.0604650   3.4812354   0.6145637  )
       147           C   tau( 147) = (   0.2229625   1.8620641   0.1923670  )
       148           C   tau( 148) = (   0.6145401   0.0809643   0.2298297  )
       149           C   tau( 149) = (   0.5598307   1.8506563   0.6344326  )
       150           C   tau( 150) = (  -0.0473231   0.0695564   0.6321575  )
       151           C   tau( 151) = (   0.1151743   1.7115434   0.2099608  )
       152           C   tau( 152) = (   0.7223282   3.4926433   0.2122359  )
       153           H   tau( 153) = (   0.6915467   1.8148295   0.6281989  )
       154           H   tau( 154) = (  -0.1790391   0.0337296   0.6383913  )
       155           H   tau( 155) = (  -0.0165416   1.7473702   0.2161946  )
       156           H   tau( 156) = (   0.8540442   3.5284701   0.2060022  )
       157           H   tau( 157) = (   0.5441600   1.9362584   0.7403693  )
       158           H   tau( 158) = (  -0.0316524   0.1551585   0.5262209  )
       159           H   tau( 159) = (   0.1308451   1.6259413   0.1040242  )
       160           H   tau( 160) = (   0.7066575   3.4070412   0.3181725  )
       161           H   tau( 161) = (   0.5277029   1.9192800   0.5199732  )
       162           H   tau( 162) = (  -0.0151953   0.1381801   0.7466170  )
       163           H   tau( 163) = (   0.1473022   1.6429197   0.3244203  )
       164           H   tau( 164) = (   0.6902003   3.4240196   0.0977764  )

     number of k points=     5
                       cart. coord. in units 2pi/alat
        k(    1) = (   0.0000000   0.0000000   0.0000000), wk =   0.2222222
        k(    2) = (   0.0000000   0.0000000   0.3947607), wk =   0.4444444
        k(    3) = (   0.3333333   0.0000000   0.1282952), wk =   0.4444444
        k(    4) = (   0.3333333   0.0000000   0.5230559), wk =   0.4444444
        k(    5) = (   0.3333333   0.0000000  -0.2664655), wk =   0.4444444

     Dense  grid:  1421955 G-vectors     FFT dimensions: ( 100, 360,  90)

     Estimated max dynamical RAM per process >    1768.12MB

     Estimated total allocated dynamical RAM >   14144.96MB

     Check: negative/imaginary core charge=   -0.000002    0.000000

     Initial potential from superposition of free atoms

     starting charge  463.99631, renormalised to  464.00000
     Starting wfc are  440 randomized atomic wfcs
     Checking if some PAW data can be deallocated... 

     total cpu time spent up to now is      105.0 secs

     per-process dynamical memory:  1055.2 Mb

     Self-consistent Calculation

     iteration #  1     ecut=   100.00 Ry     beta=0.50
     Davidson diagonalization with overlap
     ethr =  1.00E-02,  avg # of iterations =  4.8

     total cpu time spent up to now is      393.2 secs

     total energy              =   -2013.77313231 Ry
     Harris-Foulkes estimate   =   -2022.98607842 Ry
     estimated scf accuracy    <      17.57614435 Ry

     iteration #  2     ecut=   100.00 Ry     beta=0.50
     Davidson diagonalization with overlap
     ethr =  3.79E-03,  avg # of iterations =  2.0

     total cpu time spent up to now is      530.3 secs

     total energy              =   -2014.13220289 Ry
     Harris-Foulkes estimate   =   -2015.31753202 Ry
     estimated scf accuracy    <       2.27761177 Ry

     iteration #  3     ecut=   100.00 Ry     beta=0.50
     Davidson diagonalization with overlap
     ethr =  4.91E-04,  avg # of iterations =  5.0

     total cpu time spent up to now is      841.7 secs

     total energy              =   -2016.49417958 Ry
     Harris-Foulkes estimate   =   -2017.57246133 Ry
     estimated scf accuracy    <       3.08138143 Ry

     iteration #  4     ecut=   100.00 Ry     beta=0.50
     Davidson diagonalization with overlap
     ethr =  4.91E-04,  avg # of iterations =  1.2

     total cpu time spent up to now is      976.9 secs

     total energy              =   -2015.76444297 Ry
     Harris-Foulkes estimate   =   -2016.59901221 Ry
     estimated scf accuracy    <       1.17316408 Ry

     iteration #  5     ecut=   100.00 Ry     beta=0.50
     Davidson diagonalization with overlap
     ethr =  2.53E-04,  avg # of iterations =  5.0

     total cpu time spent up to now is     1273.6 secs

     total energy              =   -2016.58271522 Ry
     Harris-Foulkes estimate   =   -2017.24069401 Ry
     estimated scf accuracy    <       2.00971810 Ry

     iteration #  6     ecut=   100.00 Ry     beta=0.50
     Davidson diagonalization with overlap
     ethr =  2.53E-04,  avg # of iterations =  1.0

     total cpu time spent up to now is     1408.4 secs

     total energy              =   -2016.30951572 Ry
     Harris-Foulkes estimate   =   -2016.63801033 Ry
     estimated scf accuracy    <       0.86093207 Ry

     iteration #  7     ecut=   100.00 Ry     beta=0.50
     Davidson diagonalization with overlap
     ethr =  1.86E-04,  avg # of iterations =  3.6

     total cpu time spent up to now is     1594.7 secs

     total energy              =   -2016.55009189 Ry
     Harris-Foulkes estimate   =   -2016.55435450 Ry
     estimated scf accuracy    <       0.00984248 Ry

     iteration #  8     ecut=   100.00 Ry     beta=0.50
     Davidson diagonalization with overlap
     c_bands:  5 eigenvalues not converged
     c_bands:  4 eigenvalues not converged
     c_bands:  5 eigenvalues not converged
     c_bands:  5 eigenvalues not converged
     c_bands:  3 eigenvalues not converged
     ethr =  2.12E-06,  avg # of iterations = 20.0

     total cpu time spent up to now is     2027.4 secs

     total energy              =   -2016.57014533 Ry
     Harris-Foulkes estimate   =   -2016.57188280 Ry
     estimated scf accuracy    <       0.00497934 Ry

     iteration #  9     ecut=   100.00 Ry     beta=0.50
     Davidson diagonalization with overlap
     c_bands:  1 eigenvalues not converged
     c_bands:  1 eigenvalues not converged
     c_bands:  3 eigenvalues not converged
     ethr =  1.07E-06,  avg # of iterations = 17.2

     total cpu time spent up to now is     2222.3 secs

     total energy              =   -2016.56995240 Ry
     Harris-Foulkes estimate   =   -2016.57040216 Ry
     estimated scf accuracy    <       0.00114752 Ry

     iteration # 10     ecut=   100.00 Ry     beta=0.50
     Davidson diagonalization with overlap
     c_bands:  1 eigenvalues not converged
     ethr =  2.47E-07,  avg # of iterations =  9.4

     total cpu time spent up to now is     2500.1 secs

     total energy              =   -2016.57058754 Ry
     Harris-Foulkes estimate   =   -2016.57070124 Ry
     estimated scf accuracy    <       0.00040574 Ry

     iteration # 11     ecut=   100.00 Ry     beta=0.50
     Davidson diagonalization with overlap
     ethr =  8.74E-08,  avg # of iterations =  1.2

     total cpu time spent up to now is     2635.2 secs

     total energy              =   -2016.57050487 Ry
     Harris-Foulkes estimate   =   -2016.57060487 Ry
     estimated scf accuracy    <       0.00018359 Ry

     iteration # 12     ecut=   100.00 Ry     beta=0.50
     Davidson diagonalization with overlap
     ethr =  3.96E-08,  avg # of iterations =  4.0

     total cpu time spent up to now is     2869.4 secs

     total energy              =   -2016.57059098 Ry
     Harris-Foulkes estimate   =   -2016.57061044 Ry
     estimated scf accuracy    <       0.00006914 Ry

     iteration # 13     ecut=   100.00 Ry     beta=0.50
     Davidson diagonalization with overlap
     ethr =  1.49E-08,  avg # of iterations =  1.0

     total cpu time spent up to now is     3004.0 secs

     total energy              =   -2016.57057537 Ry
     Harris-Foulkes estimate   =   -2016.57059355 Ry
     estimated scf accuracy    <       0.00003452 Ry

     iteration # 14     ecut=   100.00 Ry     beta=0.50
     Davidson diagonalization with overlap
     ethr =  7.44E-09,  avg # of iterations =  4.0

     total cpu time spent up to now is     3231.4 secs

     total energy              =   -2016.57058993 Ry
     Harris-Foulkes estimate   =   -2016.57059256 Ry
     estimated scf accuracy    <       0.00000631 Ry

     iteration # 15     ecut=   100.00 Ry     beta=0.50
     Davidson diagonalization with overlap
     ethr =  1.36E-09,  avg # of iterations =  2.2

     total cpu time spent up to now is     3369.5 secs

     total energy              =   -2016.57058962 Ry
     Harris-Foulkes estimate   =   -2016.57059033 Ry
     estimated scf accuracy    <       0.00000180 Ry

     iteration # 16     ecut=   100.00 Ry     beta=0.50
     Davidson diagonalization with overlap
     ethr =  3.88E-10,  avg # of iterations =  4.0

     total cpu time spent up to now is     3617.5 secs

     total energy              =   -2016.57059095 Ry
     Harris-Foulkes estimate   =   -2016.57059091 Ry
     estimated scf accuracy    <       0.00000036 Ry

     iteration # 17     ecut=   100.00 Ry     beta=0.50
     Davidson diagonalization with overlap
     ethr =  7.76E-11,  avg # of iterations =  2.0

     total cpu time spent up to now is     3755.4 secs

     total energy              =   -2016.57059073 Ry
     Harris-Foulkes estimate   =   -2016.57059097 Ry
     estimated scf accuracy    <       0.00000045 Ry

     iteration # 18     ecut=   100.00 Ry     beta=0.50
     Davidson diagonalization with overlap
     ethr =  7.76E-11,  avg # of iterations =  4.2

     total cpu time spent up to now is     3916.5 secs

     total energy              =   -2016.57059080 Ry
     Harris-Foulkes estimate   =   -2016.57059081 Ry
     estimated scf accuracy    <       0.00000003 Ry

     iteration # 19     ecut=   100.00 Ry     beta=0.50
     Davidson diagonalization with overlap
     ethr =  6.20E-12,  avg # of iterations =  4.2

     total cpu time spent up to now is     4190.0 secs

     total energy              =   -2016.57059082 Ry
     Harris-Foulkes estimate   =   -2016.57059083 Ry
     estimated scf accuracy    <       0.00000002 Ry

     iteration # 20     ecut=   100.00 Ry     beta=0.50
     Davidson diagonalization with overlap
     ethr =  5.34E-12,  avg # of iterations =  1.0

     total cpu time spent up to now is     4324.5 secs

     total energy              =   -2016.57059082 Ry
     Harris-Foulkes estimate   =   -2016.57059082 Ry
     estimated scf accuracy    <       0.00000001 Ry

     iteration # 21     ecut=   100.00 Ry     beta=0.50
     Davidson diagonalization with overlap
     ethr =  2.30E-12,  avg # of iterations =  4.0

     total cpu time spent up to now is     4566.9 secs

     End of self-consistent calculation

          k = 0.0000 0.0000 0.0000 (177641 PWs)   bands (ev):

   -20.5017 -20.5016 -20.4332 -20.4332 -20.0234 -20.0217 -20.0201 -20.0184
   -17.6150 -17.6148 -17.5157 -17.5150 -17.1713 -17.1712 -17.0983 -17.0975
   -15.4067 -15.4063 -15.3456 -15.3413 -14.5345 -14.5326 -14.5238 -14.5087
   -14.2151 -14.2135 -14.1635 -14.1630 -13.6773 -13.6670 -13.6459 -13.6313
   -13.3447 -13.3371 -13.3346 -13.3279 -12.4091 -12.3722 -12.3697 -12.3578
   -12.0833 -12.0786 -12.0603 -12.0564 -11.6727 -11.6693 -11.6387 -11.6253
   -11.1731 -11.1328 -11.1296 -11.1233 -11.1010 -11.0813 -11.0690 -11.0632
   -11.0255 -11.0204 -10.9535 -10.9443  -9.9347  -9.9170  -9.9025  -9.8901
    -9.2068  -9.1990  -9.1733  -9.1688  -8.7684  -8.7608  -8.7403  -8.7141
    -8.5698  -8.5331  -8.5274  -8.5030  -7.8268  -7.8154  -7.8038  -7.7863
    -7.1887  -7.1750  -7.1446  -7.1406  -6.9003  -6.8621  -6.8563  -6.8388
    -6.4907  -6.4881  -6.4853  -6.4580  -6.2085  -6.2048  -6.0504  -6.0395
    -6.0384  -6.0383  -5.7310  -5.7150  -5.7067  -5.6689  -5.6290  -5.5732
    -5.4089  -5.4052  -5.3944  -5.3834  -5.3435  -5.2292  -5.2048  -5.1644
    -4.7315  -4.7296  -4.6651  -4.6441  -4.4205  -4.4124  -4.3958  -4.3943
    -4.2821  -4.2433  -4.2328  -4.2267  -4.2216  -4.1252  -4.1060  -4.0884
    -4.0788  -4.0678  -4.0588  -4.0441  -4.0217  -4.0152  -4.0117  -3.9807
    -3.9803  -3.9547  -3.8660  -3.8640  -3.7973  -3.7460  -3.7367  -3.7259
    -3.7245  -3.6620  -3.6234  -3.6175  -3.5421  -3.5277  -3.5188  -3.4789
    -3.4665  -3.4366  -3.4127  -3.3936  -3.3654  -3.2953  -3.2210  -3.2005
    -3.1671  -3.1658  -3.1195  -3.1148  -3.0741  -3.0615  -3.0553  -3.0313
    -2.9715  -2.9658  -2.9224  -2.8805  -2.8390  -2.8353  -2.8333  -2.8129
    -2.8084  -2.7694  -2.6671  -2.6467  -2.5830  -2.5620  -2.5280  -2.5164
    -2.3616  -2.3571  -2.3295  -2.3225  -2.2846  -2.2811  -2.0084  -2.0050
    -1.4386  -1.4147  -1.0749  -1.0747  -0.9755  -0.9711  -0.9656  -0.9639
    -0.7217  -0.7190  -0.5889  -0.5875  -0.5810  -0.5679  -0.5591  -0.5341
    -0.4531  -0.4297  -0.1080  -0.1055   0.0155   0.0198   0.0208   0.0288
     0.2419   0.2521   0.3869   0.3961   0.4706   0.4722   0.4854   0.4895
     0.7818   0.8174   0.8226   0.8284   1.1609   1.1626   1.2038   1.2093
     3.9804   3.9865   4.0311   4.0819   4.3077   4.3097   4.4074   4.4138
     5.1315   5.1410   5.2228   5.2781   5.6727   5.7141   5.7327   5.7372
     5.8751   5.8802   6.3533   6.4631   6.4864   6.4882   6.5666   6.5711
     6.6094   6.6660   6.6872   6.6995   6.7333   7.0783   7.1272   7.1356
     7.2717   7.2849   7.2934   7.6616   7.6851   7.6940   7.8079   7.9107
     8.0040   8.0042   8.0323   8.0480   8.1029   8.2207

          k = 0.0000 0.0000 0.3948 (177779 PWs)   bands (ev):

   -20.4845 -20.4845 -20.4503 -20.4503 -20.0221 -20.0212 -20.0204 -20.0196
   -17.5921 -17.5921 -17.5428 -17.5423 -17.1521 -17.1520 -17.1158 -17.1153
   -15.3907 -15.3901 -15.3604 -15.3574 -14.5303 -14.5279 -14.5258 -14.5152
   -14.2022 -14.2009 -14.1764 -14.1756 -13.6693 -13.6648 -13.6490 -13.6411
   -13.3425 -13.3374 -13.3344 -13.3298 -12.3969 -12.3715 -12.3710 -12.3699
   -12.0762 -12.0714 -12.0647 -12.0603 -11.6737 -11.6721 -11.6339 -11.6272
   -11.1744 -11.1578 -11.1489 -11.1439 -11.0845 -11.0689 -11.0585 -11.0490
   -11.0221 -10.9839 -10.9801 -10.9490  -9.9333  -9.9172  -9.9078  -9.8947
    -9.2047  -9.2008  -9.1710  -9.1687  -8.7663  -8.7627  -8.7341  -8.7209
    -8.5612  -8.5402  -8.5254  -8.5104  -7.8180  -7.8162  -7.8086  -7.7960
    -7.1776  -7.1656  -7.1555  -7.1478  -6.8933  -6.8723  -6.8588  -6.8481
    -6.4924  -6.4923  -6.4783  -6.4650  -6.0531  -6.0493  -6.0401  -6.0395
    -5.9674  -5.9621  -5.7329  -5.7259  -5.6983  -5.6815  -5.5380  -5.5288
    -5.4249  -5.4149  -5.3860  -5.3851  -5.3504  -5.3038  -5.2599  -5.2032
    -4.7225  -4.7209  -4.6509  -4.6437  -4.4068  -4.4042  -4.4020  -4.3978
    -4.3038  -4.2810  -4.2705  -4.2380  -4.2215  -4.2146  -4.1984  -4.1836
    -4.1269  -4.1095  -4.0870  -4.0828  -4.0491  -4.0445  -4.0424  -4.0249
    -3.9450  -3.8988  -3.8955  -3.8037  -3.7519  -3.7507  -3.7313  -3.6964
    -3.6816  -3.6750  -3.6619  -3.6347  -3.5482  -3.5255  -3.5184  -3.4809
    -3.4729  -3.4452  -3.4195  -3.4006  -3.3796  -3.3604  -3.3197  -3.2798
    -3.1893  -3.1638  -3.1279  -3.1066  -3.0606  -3.0583  -3.0548  -3.0420
    -2.9681  -2.9465  -2.9241  -2.8957  -2.8667  -2.8411  -2.8332  -2.8058
    -2.8024  -2.7757  -2.7473  -2.7380  -2.5652  -2.5585  -2.5166  -2.5107
    -2.3406  -2.3395  -2.3058  -2.3011  -2.1764  -2.1520  -2.0079  -1.9922
    -1.3693  -1.3481  -1.1867  -1.1695  -1.0041  -1.0032  -0.9799  -0.9784
    -0.6520  -0.6179  -0.5963  -0.5795  -0.5570  -0.5317  -0.5262  -0.5092
    -0.3866  -0.3492  -0.2049  -0.1836   0.0078   0.0105   0.0118   0.0168
     0.2908   0.3008   0.3646   0.3670   0.4754   0.4772   0.4818   0.4831
     0.7676   0.7887   0.7888   0.7894   1.2290   1.2328   1.2607   1.2653
     3.9855   3.9944   4.0051   4.0349   4.3245   4.3313   4.3828   4.3911
     5.1478   5.1545   5.2281   5.2492   5.6994   5.7388   5.7575   5.8504
     6.1015   6.1787   6.3594   6.3981   6.5490   6.5966   6.6039   6.6339
     6.7674   6.7757   6.8184   6.8321   6.9150   6.9207   7.0696   7.2375
     7.3150   7.4266   7.4656   7.5243   7.5546   7.6648   7.6895   7.7155
     7.7229   7.8400   7.8452   7.9085   7.9194   7.9567

          k = 0.3333 0.0000 0.1283 (177754 PWs)   bands (ev):

   -20.5014 -20.5014 -20.4332 -20.4332 -20.0232 -20.0218 -20.0199 -20.0186
   -17.6144 -17.6142 -17.5153 -17.5148 -17.1719 -17.1717 -17.0985 -17.0981
   -15.4100 -15.4085 -15.3467 -15.3436 -14.5387 -14.5301 -14.5206 -14.5130
   -14.2261 -14.2246 -14.1722 -14.1717 -13.6816 -13.6673 -13.6492 -13.6320
   -13.3356 -13.3303 -13.3112 -13.3077 -12.4103 -12.3889 -12.3697 -12.3669
   -12.0697 -12.0651 -12.0613 -12.0578 -11.6883 -11.6850 -11.6492 -11.6244
   -11.1327 -11.1221 -11.0956 -11.0864 -11.0807 -11.0701 -11.0683 -11.0653
   -11.0238 -11.0012 -10.9486 -10.9309  -9.9260  -9.9009  -9.8994  -9.8880
    -9.1943  -9.1883  -9.1619  -9.1614  -8.7972  -8.7906  -8.7680  -8.7589
    -8.5839  -8.5495  -8.5406  -8.5285  -7.8532  -7.8345  -7.8049  -7.7659
    -7.3117  -7.2970  -7.2479  -7.2348  -6.8497  -6.8311  -6.8281  -6.8131
    -6.4966  -6.4855  -6.4793  -6.4741  -6.1686  -6.1662  -6.0388  -6.0348
    -6.0288  -6.0277  -5.7366  -5.7301  -5.7180  -5.6882  -5.6083  -5.5507
    -5.4309  -5.4241  -5.4220  -5.4123  -5.3036  -5.2151  -5.2058  -5.1680
    -4.6875  -4.6772  -4.6416  -4.6283  -4.4682  -4.4321  -4.4280  -4.4178
    -4.3643  -4.3495  -4.2281  -4.2092  -4.1449  -4.1404  -4.1231  -4.1203
    -4.1089  -4.0880  -4.0680  -4.0302  -4.0290  -4.0205  -3.9845  -3.9794
    -3.9467  -3.8883  -3.8604  -3.8564  -3.8151  -3.7656  -3.7419  -3.7168
    -3.7106  -3.6759  -3.6091  -3.5777  -3.5402  -3.5371  -3.4958  -3.4834
    -3.4391  -3.4043  -3.3974  -3.3800  -3.2786  -3.2747  -3.2508  -3.2417
    -3.2054  -3.1951  -3.1807  -3.1451  -3.0088  -2.9796  -2.9498  -2.9493
    -2.9234  -2.9185  -2.9074  -2.8967  -2.8337  -2.8127  -2.7805  -2.7283
    -2.7064  -2.6699  -2.6547  -2.6349  -2.5436  -2.5257  -2.4827  -2.4814
    -2.4119  -2.3938  -2.3785  -2.3662  -2.2570  -2.2505  -2.0166  -2.0037
    -1.5021  -1.4898  -1.0871  -1.0845  -1.0347  -1.0322  -1.0004  -0.9988
    -0.7304  -0.7080  -0.5585  -0.5361  -0.5320  -0.5312  -0.5268  -0.5062
    -0.3935  -0.3770  -0.1177  -0.0891  -0.0088  -0.0038  -0.0012   0.0104
     0.2419   0.2526   0.3749   0.3772   0.3924   0.4012   0.4306   0.4350
     0.7714   0.8070   0.8311   0.8461   1.1640   1.1649   1.1916   1.1973
     4.0068   4.0201   4.0287   4.0681   4.2568   4.2620   4.3655   4.3668
     5.0742   5.1336   5.1503   5.1961   5.6400   5.6535   5.6578   5.6813
     5.8894   5.9022   6.4726   6.4982   6.5470   6.5698   6.5992   6.6074
     6.6174   6.6599   6.6783   6.7506   6.8116   6.8764   6.9016   7.1281
     7.1315   7.1557   7.2630   7.4069   7.4813   7.7356   7.8273   7.8354
     7.8843   7.9010   8.0132   8.0163   8.0419   8.0881

          k = 0.3333 0.0000 0.5231 (177816 PWs)   bands (ev):

   -20.4843 -20.4843 -20.4503 -20.4503 -20.0219 -20.0213 -20.0202 -20.0197
   -17.5916 -17.5914 -17.5425 -17.5422 -17.1527 -17.1525 -17.1160 -17.1159
   -15.3941 -15.3917 -15.3616 -15.3594 -14.5357 -14.5240 -14.5229 -14.5190
   -14.2133 -14.2121 -14.1848 -14.1840 -13.6734 -13.6656 -13.6526 -13.6419
   -13.3325 -13.3268 -13.3140 -13.3106 -12.4007 -12.3962 -12.3687 -12.3687
   -12.0718 -12.0680 -12.0580 -12.0546 -11.6906 -11.6789 -11.6550 -11.6230
   -11.1381 -11.1274 -11.1128 -11.1027 -11.0730 -11.0709 -11.0677 -11.0551
   -11.0121 -10.9757 -10.9506 -10.9428  -9.9245  -9.9110  -9.8957  -9.8914
    -9.1929  -9.1876  -9.1625  -9.1608  -8.8015  -8.7888  -8.7653  -8.7612
    -8.5717  -8.5541  -8.5424  -8.5369  -7.8530  -7.8390  -7.7972  -7.7757
    -7.2967  -7.2851  -7.2667  -7.2478  -6.8471  -6.8370  -6.8237  -6.8218
    -6.4911  -6.4889  -6.4794  -6.4777  -6.0440  -6.0369  -6.0335  -6.0329
    -5.9379  -5.9361  -5.7434  -5.7397  -5.7299  -5.6931  -5.5421  -5.5374
    -5.4397  -5.4297  -5.4210  -5.4035  -5.3587  -5.3039  -5.2545  -5.2103
    -4.6837  -4.6767  -4.6356  -4.6277  -4.4566  -4.4328  -4.3708  -4.3566
    -4.3419  -4.3171  -4.2739  -4.2420  -4.1875  -4.1824  -4.1579  -4.1257
    -4.1180  -4.1108  -4.1007  -4.0649  -4.0268  -4.0073  -3.9601  -3.9596
    -3.9445  -3.9192  -3.8680  -3.8586  -3.8289  -3.7863  -3.7778  -3.7396
    -3.6831  -3.6516  -3.6403  -3.5915  -3.5532  -3.5363  -3.5321  -3.5061
    -3.4028  -3.3988  -3.3859  -3.3783  -3.3472  -3.3370  -3.3265  -3.3121
    -3.2247  -3.2078  -3.1413  -3.1346  -2.9768  -2.9763  -2.9709  -2.9662
    -2.9619  -2.9405  -2.9127  -2.9096  -2.8642  -2.8275  -2.7928  -2.7463
    -2.7100  -2.7096  -2.6776  -2.6725  -2.5261  -2.5179  -2.4823  -2.4679
    -2.3979  -2.3747  -2.3690  -2.3510  -2.1529  -2.1491  -2.0340  -2.0097
    -1.4365  -1.4082  -1.1778  -1.1465  -1.0505  -1.0469  -1.0399  -1.0361
    -0.6442  -0.6256  -0.5527  -0.5350  -0.5286  -0.4995  -0.4974  -0.4861
    -0.3355  -0.2960  -0.2084  -0.1605  -0.0183  -0.0129  -0.0124  -0.0087
     0.2779   0.2810   0.3742   0.3773   0.3874   0.3965   0.4010   0.4013
     0.7548   0.7673   0.7913   0.8072   1.2167   1.2220   1.2342   1.2399
     3.9947   4.0191   4.0221   4.0382   4.2735   4.2806   4.3652   4.3741
     5.0390   5.1212   5.1589   5.2127   5.6273   5.6761   5.6792   5.7067
     6.1901   6.1933   6.3603   6.3946   6.5439   6.5459   6.6129   6.6299
     6.6902   6.7294   6.8201   6.8239   6.9669   7.0070   7.0229   7.0773
     7.2262   7.2942   7.3146   7.4280   7.5484   7.6396   7.6622   7.7172
     7.7615   7.8212   7.9025   7.9044   7.9278   8.0134

          k = 0.3333 0.0000-0.2665 (177709 PWs)   bands (ev):

   -20.4844 -20.4844 -20.4502 -20.4502 -20.0221 -20.0211 -20.0205 -20.0195
   -17.5918 -17.5917 -17.5424 -17.5419 -17.1525 -17.1524 -17.1163 -17.1158
   -15.3934 -15.3914 -15.3626 -15.3590 -14.5344 -14.5281 -14.5250 -14.5138
   -14.2116 -14.2104 -14.1862 -14.1854 -13.6725 -13.6671 -13.6510 -13.6437
   -13.3256 -13.3221 -13.3198 -13.3155 -12.4085 -12.3921 -12.3677 -12.3647
   -12.0690 -12.0658 -12.0636 -12.0596 -11.6924 -11.6791 -11.6401 -11.6344
   -11.1353 -11.1234 -11.1015 -11.1012 -11.0890 -11.0750 -11.0718 -11.0593
   -10.9846 -10.9786 -10.9686 -10.9394  -9.9232  -9.9111  -9.8988  -9.8894
    -9.1912  -9.1906  -9.1619  -9.1608  -8.8047  -8.7853  -8.7676  -8.7620
    -8.5762  -8.5501  -8.5467  -8.5315  -7.8484  -7.8427  -7.7958  -7.7772
    -7.2998  -7.2788  -7.2652  -7.2527  -6.8458  -6.8372  -6.8309  -6.8148
    -6.4955  -6.4858  -6.4766  -6.4721  -6.0487  -6.0372  -6.0323  -6.0304
    -5.9760  -5.9749  -5.7461  -5.7379  -5.7222  -5.7033  -5.5556  -5.5445
    -5.4357  -5.4351  -5.4143  -5.4102  -5.3724  -5.3082  -5.2886  -5.2082
    -4.6888  -4.6769  -4.6349  -4.6318  -4.4469  -4.4396  -4.3596  -4.3421
    -4.2960  -4.2377  -4.2156  -4.2140  -4.1808  -4.1640  -4.1324  -4.1301
    -4.0942  -4.0824  -4.0780  -4.0160  -3.9875  -3.9864  -3.9795  -3.9697
    -3.9377  -3.8832  -3.8823  -3.8648  -3.8290  -3.7791  -3.7735  -3.7235
    -3.6993  -3.6918  -3.6624  -3.6425  -3.6075  -3.5381  -3.5337  -3.5030
    -3.4305  -3.4015  -3.3920  -3.3808  -3.3766  -3.3377  -3.2781  -3.2627
    -3.2228  -3.1882  -3.1536  -3.1401  -3.0046  -2.9864  -2.9748  -2.9650
    -2.9452  -2.9406  -2.9210  -2.9061  -2.8835  -2.8255  -2.8101  -2.7606
    -2.7263  -2.7054  -2.6956  -2.6736  -2.5304  -2.5142  -2.4796  -2.4671
    -2.3883  -2.3746  -2.3604  -2.3491  -2.2125  -2.1857  -2.0306  -2.0219
    -1.3865  -1.3450  -1.2101  -1.1827  -1.0378  -1.0352  -1.0331  -1.0317
    -0.6518  -0.6063  -0.5613  -0.5525  -0.5186  -0.5141  -0.5064  -0.4858
    -0.3733  -0.3199  -0.1961  -0.1441  -0.0183  -0.0142  -0.0091  -0.0051
     0.2764   0.2765   0.3632   0.3645   0.3870   0.3899   0.3902   0.3923
     0.7618   0.7695   0.7804   0.8042   1.1900   1.1929   1.2296   1.2380
     3.9897   4.0070   4.0237   4.0654   4.3081   4.3147   4.3399   4.3485
     5.0453   5.0682   5.2051   5.2126   5.6309   5.6719   5.6885   5.7363
     6.0219   6.0445   6.3643   6.4027   6.5420   6.5982   6.6151   6.6154
     6.6809   6.7447   6.7586   6.7661   6.8987   6.9203   7.0629   7.2346
     7.2885   7.3196   7.3366   7.4318   7.5757   7.5932   7.6145   7.7588
     7.7750   7.8569   7.8581   7.9151   7.9679   7.9824

     highest occupied, lowest unoccupied level (ev):     1.2653    3.9804

!    total energy              =   -2016.57059082 Ry
     Harris-Foulkes estimate   =   -2016.57059082 Ry
     estimated scf accuracy    <          3.1E-09 Ry

     total all-electron energy =     -7895.700402 Ry

     The total energy is the sum of the following terms:

     one-electron contribution =   -1577.74745312 Ry
     hartree contribution      =     956.91799412 Ry
     xc contribution           =    -463.27614173 Ry
     ewald contribution        =    -280.65406492 Ry
     Dispersion Correction     =      -0.75683097 Ry
     one-center paw contrib.   =    -651.05409420 Ry

     convergence has been achieved in  21 iterations

     Forces acting on atoms (cartesian axes, Ry/au):

     atom    1 type  2   force =    -0.00167946   -0.00377846   -0.00150932
     atom    2 type  2   force =     0.00167946   -0.00377846    0.00150932
     atom    3 type  2   force =     0.00167946    0.00377846    0.00150932
     atom    4 type  2   force =    -0.00167946    0.00377846   -0.00150932
     atom    5 type  2   force =    -0.00025111    0.00026882   -0.00305025
     atom    6 type  2   force =     0.00025111    0.00026882    0.00305025
     atom    7 type  2   force =     0.00025111   -0.00026882    0.00305025
     atom    8 type  2   force =    -0.00025111   -0.00026882   -0.00305025
     atom    9 type  2   force =    -0.00587032   -0.00108472   -0.00106143
     atom   10 type  2   force =     0.00587032   -0.00108472    0.00106143
     atom   11 type  2   force =     0.00587032    0.00108472    0.00106143
     atom   12 type  2   force =    -0.00587032    0.00108472   -0.00106143
     atom   13 type  2   force =     0.00105040   -0.00015329    0.00118984
     atom   14 type  2   force =    -0.00105040   -0.00015329   -0.00118984
     atom   15 type  2   force =    -0.00105040    0.00015329   -0.00118984
     atom   16 type  2   force =     0.00105040    0.00015329    0.00118984
     atom   17 type  2   force =    -0.00360506    0.00156474    0.00003358
     atom   18 type  2   force =     0.00360506    0.00156474   -0.00003358
     atom   19 type  2   force =     0.00360506   -0.00156474   -0.00003358
     atom   20 type  2   force =    -0.00360506   -0.00156474    0.00003358
     atom   21 type  2   force =     0.00128243    0.00009123   -0.00003107
     atom   22 type  2   force =    -0.00128243    0.00009123    0.00003107
     atom   23 type  2   force =    -0.00128243   -0.00009123    0.00003107
     atom   24 type  2   force =     0.00128243   -0.00009123   -0.00003107
     atom   25 type  1   force =    -0.00244196    0.00373353   -0.00113357
     atom   26 type  1   force =     0.00244196    0.00373353    0.00113357
     atom   27 type  1   force =     0.00244196   -0.00373353    0.00113357
     atom   28 type  1   force =    -0.00244196   -0.00373353   -0.00113357
     atom   29 type  1   force =     0.00330316   -0.00150078    0.00050132
     atom   30 type  1   force =    -0.00330316   -0.00150078   -0.00050132
     atom   31 type  1   force =    -0.00330316    0.00150078   -0.00050132
     atom   32 type  1   force =     0.00330316    0.00150078    0.00050132
     atom   33 type  1   force =    -0.00335160   -0.00012593    0.00036300
     atom   34 type  1   force =     0.00335160   -0.00012593   -0.00036300
     atom   35 type  1   force =     0.00335160    0.00012593   -0.00036300
     atom   36 type  1   force =    -0.00335160    0.00012593    0.00036300
     atom   37 type  1   force =     0.00112198   -0.00121489    0.00103079
     atom   38 type  1   force =    -0.00112198   -0.00121489   -0.00103079
     atom   39 type  1   force =    -0.00112198    0.00121489   -0.00103079
     atom   40 type  1   force =     0.00112198    0.00121489    0.00103079
     atom   41 type  3   force =    -0.00030147    0.00032756    0.00050583
     atom   42 type  3   force =     0.00030147    0.00032756   -0.00050583
     atom   43 type  3   force =     0.00030147   -0.00032756   -0.00050583
     atom   44 type  3   force =    -0.00030147   -0.00032756    0.00050583
     atom   45 type  1   force =     0.00039673    0.00253882    0.00049799
     atom   46 type  1   force =    -0.00039673    0.00253882   -0.00049799
     atom   47 type  1   force =    -0.00039673   -0.00253882   -0.00049799
     atom   48 type  1   force =     0.00039673   -0.00253882    0.00049799
     atom   49 type  1   force =     0.00520725    0.00093589    0.00135868
     atom   50 type  1   force =    -0.00520725    0.00093589   -0.00135868
     atom   51 type  1   force =    -0.00520725   -0.00093589   -0.00135868
     atom   52 type  1   force =     0.00520725   -0.00093589    0.00135868
     atom   53 type  1   force =     0.00368441   -0.00207017   -0.00012724
     atom   54 type  1   force =    -0.00368441   -0.00207017    0.00012724
     atom   55 type  1   force =    -0.00368441    0.00207017    0.00012724
     atom   56 type  1   force =     0.00368441    0.00207017   -0.00012724
     atom   57 type  3   force =    -0.00054400   -0.00014647   -0.00006121
     atom   58 type  3   force =     0.00054400   -0.00014647    0.00006121
     atom   59 type  3   force =     0.00054400    0.00014647    0.00006121
     atom   60 type  3   force =    -0.00054400    0.00014647   -0.00006121
     atom   61 type  3   force =     0.00020332   -0.00021934   -0.00044498
     atom   62 type  3   force =    -0.00020332   -0.00021934    0.00044498
     atom   63 type  3   force =    -0.00020332    0.00021934    0.00044498
     atom   64 type  3   force =     0.00020332    0.00021934   -0.00044498
     atom   65 type  3   force =     0.00038367   -0.00028422    0.00036018
     atom   66 type  3   force =    -0.00038367   -0.00028422   -0.00036018
     atom   67 type  3   force =    -0.00038367    0.00028422   -0.00036018
     atom   68 type  3   force =     0.00038367    0.00028422    0.00036018
     atom   69 type  1   force =    -0.00658907   -0.00057656    0.00038929
     atom   70 type  1   force =     0.00658907   -0.00057656   -0.00038929
     atom   71 type  1   force =     0.00658907    0.00057656   -0.00038929
     atom   72 type  1   force =    -0.00658907    0.00057656    0.00038929
     atom   73 type  3   force =     0.00179163    0.00087257    0.00016029
     atom   74 type  3   force =    -0.00179163    0.00087257   -0.00016029
     atom   75 type  3   force =    -0.00179163   -0.00087257   -0.00016029
     atom   76 type  3   force =     0.00179163   -0.00087257    0.00016029
     atom   77 type  3   force =     0.00057174    0.00076246    0.00078688
     atom   78 type  3   force =    -0.00057174    0.00076246   -0.00078688
     atom   79 type  3   force =    -0.00057174   -0.00076246   -0.00078688
     atom   80 type  3   force =     0.00057174   -0.00076246    0.00078688
     atom   81 type  3   force =    -0.00034832    0.00010322    0.00053830
     atom   82 type  3   force =     0.00034832    0.00010322   -0.00053830
     atom   83 type  3   force =     0.00034832   -0.00010322   -0.00053830
     atom   84 type  3   force =    -0.00034832   -0.00010322    0.00053830
     atom   85 type  1   force =     0.00523072   -0.00111710   -0.00108523
     atom   86 type  1   force =    -0.00523072   -0.00111710    0.00108523
     atom   87 type  1   force =    -0.00523072    0.00111710    0.00108523
     atom   88 type  1   force =     0.00523072    0.00111710   -0.00108523
     atom   89 type  1   force =    -0.00572757    0.00223768   -0.00009971
     atom   90 type  1   force =     0.00572757    0.00223768    0.00009971
     atom   91 type  1   force =     0.00572757   -0.00223768    0.00009971
     atom   92 type  1   force =    -0.00572757   -0.00223768   -0.00009971
     atom   93 type  3   force =     0.00030001    0.00016905   -0.00019868
     atom   94 type  3   force =    -0.00030001    0.00016905    0.00019868
     atom   95 type  3   force =    -0.00030001   -0.00016905    0.00019868
     atom   96 type  3   force =     0.00030001   -0.00016905   -0.00019868
     atom   97 type  1   force =     0.00517112    0.00373110   -0.00075025
     atom   98 type  1   force =    -0.00517112    0.00373110    0.00075025
     atom   99 type  1   force =    -0.00517112   -0.00373110    0.00075025
     atom  100 type  1   force =     0.00517112   -0.00373110   -0.00075025
     atom  101 type  1   force =    -0.00053753   -0.00094038   -0.00001893
     atom  102 type  1   force =     0.00053753   -0.00094038    0.00001893
     atom  103 type  1   force =     0.00053753    0.00094038    0.00001893
     atom  104 type  1   force =    -0.00053753    0.00094038   -0.00001893
     atom  105 type  3   force =    -0.00046097    0.00084356   -0.00002697
     atom  106 type  3   force =     0.00046097    0.00084356    0.00002697
     atom  107 type  3   force =     0.00046097   -0.00084356    0.00002697
     atom  108 type  3   force =    -0.00046097   -0.00084356   -0.00002697
     atom  109 type  3   force =     0.00017631    0.00008789   -0.00001859
     atom  110 type  3   force =    -0.00017631    0.00008789    0.00001859
     atom  111 type  3   force =    -0.00017631   -0.00008789    0.00001859
     atom  112 type  3   force =     0.00017631   -0.00008789   -0.00001859
     atom  113 type  3   force =     0.00001281    0.00019805    0.00032565
     atom  114 type  3   force =    -0.00001281    0.00019805   -0.00032565
     atom  115 type  3   force =    -0.00001281   -0.00019805   -0.00032565
     atom  116 type  3   force =     0.00001281   -0.00019805    0.00032565
     atom  117 type  1   force =    -0.00190179    0.00075575    0.00015960
     atom  118 type  1   force =     0.00190179    0.00075575   -0.00015960
     atom  119 type  1   force =     0.00190179   -0.00075575   -0.00015960
     atom  120 type  1   force =    -0.00190179   -0.00075575    0.00015960
     atom  121 type  3   force =     0.00017196   -0.00010691    0.00066582
     atom  122 type  3   force =    -0.00017196   -0.00010691   -0.00066582
     atom  123 type  3   force =    -0.00017196    0.00010691   -0.00066582
     atom  124 type  3   force =     0.00017196    0.00010691    0.00066582
     atom  125 type  3   force =     0.00199026   -0.00187571    0.00016312
     atom  126 type  3   force =    -0.00199026   -0.00187571   -0.00016312
     atom  127 type  3   force =    -0.00199026    0.00187571   -0.00016312
     atom  128 type  3   force =     0.00199026    0.00187571    0.00016312
     atom  129 type  3   force =    -0.00026618    0.00012472    0.00003480
     atom  130 type  3   force =     0.00026618    0.00012472   -0.00003480
     atom  131 type  3   force =     0.00026618   -0.00012472   -0.00003480
     atom  132 type  3   force =    -0.00026618   -0.00012472    0.00003480
     atom  133 type  1   force =     0.00174015   -0.00040617    0.00003439
     atom  134 type  1   force =    -0.00174015   -0.00040617   -0.00003439
     atom  135 type  1   force =    -0.00174015    0.00040617   -0.00003439
     atom  136 type  1   force =     0.00174015    0.00040617    0.00003439
     atom  137 type  1   force =    -0.00123787   -0.00023040    0.00024570
     atom  138 type  1   force =     0.00123787   -0.00023040   -0.00024570
     atom  139 type  1   force =     0.00123787    0.00023040   -0.00024570
     atom  140 type  1   force =    -0.00123787    0.00023040    0.00024570
     atom  141 type  3   force =    -0.00052730   -0.00098877   -0.00021602
     atom  142 type  3   force =     0.00052730   -0.00098877    0.00021602
     atom  143 type  3   force =     0.00052730    0.00098877    0.00021602
     atom  144 type  3   force =    -0.00052730    0.00098877   -0.00021602
     atom  145 type  1   force =     0.00084708   -0.00096183   -0.00015080
     atom  146 type  1   force =    -0.00084708   -0.00096183    0.00015080
     atom  147 type  1   force =    -0.00084708    0.00096183    0.00015080
     atom  148 type  1   force =     0.00084708    0.00096183   -0.00015080
     atom  149 type  1   force =    -0.00018069   -0.00058510   -0.00005667
     atom  150 type  1   force =     0.00018069   -0.00058510    0.00005667
     atom  151 type  1   force =     0.00018069    0.00058510    0.00005667
     atom  152 type  1   force =    -0.00018069    0.00058510   -0.00005667
     atom  153 type  3   force =    -0.00082981    0.00016219    0.00010995
     atom  154 type  3   force =     0.00082981    0.00016219   -0.00010995
     atom  155 type  3   force =     0.00082981   -0.00016219   -0.00010995
     atom  156 type  3   force =    -0.00082981   -0.00016219    0.00010995
     atom  157 type  3   force =     0.00052599   -0.00065644   -0.00042383
     atom  158 type  3   force =    -0.00052599   -0.00065644    0.00042383
     atom  159 type  3   force =    -0.00052599    0.00065644    0.00042383
     atom  160 type  3   force =     0.00052599    0.00065644   -0.00042383
     atom  161 type  3   force =     0.00079318   -0.00082774    0.00085042
     atom  162 type  3   force =    -0.00079318   -0.00082774   -0.00085042
     atom  163 type  3   force =    -0.00079318    0.00082774   -0.00085042
     atom  164 type  3   force =     0.00079318    0.00082774    0.00085042

     Total force =     0.038794     Total SCF correction =     0.000114


     Computing stress (Cartesian axis) and pressure

          total   stress  (Ry/bohr**3)                   (kbar)     P=   -7.07
  -0.00001688   0.00000000  -0.00000376         -2.48      0.00     -0.55
   0.00000000  -0.00007709   0.00000000          0.00    -11.34      0.00
  -0.00000376   0.00000000  -0.00005012         -0.55      0.00     -7.37


     Writing output data file scf.save
 
     init_run     :    101.37s CPU    104.34s WALL (       1 calls)
     electrons    :   4332.01s CPU   4462.07s WALL (       1 calls)
     forces       :     46.43s CPU     47.11s WALL (       1 calls)
     stress       :    343.91s CPU    344.70s WALL (       1 calls)

     Called by init_run:
     wfcinit      :     81.13s CPU     83.76s WALL (       1 calls)
     potinit      :      7.08s CPU      7.14s WALL (       1 calls)

     Called by electrons:
     c_bands      :   3869.39s CPU   3978.62s WALL (      21 calls)
     sum_band     :    424.61s CPU    440.35s WALL (      21 calls)
     v_of_rho     :      6.19s CPU      6.64s WALL (      22 calls)
     newd         :     14.09s CPU     18.83s WALL (      22 calls)
     PAW_pot      :     15.92s CPU     15.92s WALL (      22 calls)
     mix_rho      :      1.80s CPU      1.89s WALL (      21 calls)

     Called by c_bands:
     init_us_2    :     22.44s CPU     22.52s WALL (     225 calls)
     cegterg      :   3790.25s CPU   3899.43s WALL (     105 calls)

     Called by sum_band:
     sum_band:bec :      0.18s CPU      0.18s WALL (     105 calls)
     addusdens    :     15.44s CPU     19.95s WALL (      21 calls)

     Called by *egterg:
     h_psi        :   2226.66s CPU   2301.90s WALL (     615 calls)
     s_psi        :    414.76s CPU    414.78s WALL (     615 calls)
     g_psi        :     10.74s CPU     10.74s WALL (     505 calls)
     cdiaghg      :    191.20s CPU    191.23s WALL (     610 calls)

     Called by h_psi:
     h_psi:pot    :   2210.91s CPU   2285.94s WALL (     615 calls)
     h_psi:calbec :    392.19s CPU    392.60s WALL (     615 calls)
     vloc_psi     :   1404.46s CPU   1479.05s WALL (     615 calls)
     add_vuspsi   :    414.26s CPU    414.28s WALL (     615 calls)

     General routines
     calbec       :    547.59s CPU    548.19s WALL (     745 calls)
     fft          :      3.77s CPU      4.54s WALL (     310 calls)
     fftw         :   1387.99s CPU   1473.37s WALL (  205716 calls)
 
     Parallel routines
     fft_scatter  :    258.76s CPU    345.75s WALL (  206026 calls)
 
     PWSCF        :     1h20m CPU        1h23m WALL

 
   This run was terminated on:   8:19:15  10Dec2017            

=------------------------------------------------------------------------------=
   JOB DONE.
=------------------------------------------------------------------------------=
