
     Program PWSCF v.6.1 (svn rev. 13369) starts on  7Dec2017 at  0:37: 4 

     This program is part of the open-source Quantum ESPRESSO suite
     for quantum simulation of materials; please cite
         "P. Giannozzi et al., J. Phys.:Condens. Matter 21 395502 (2009);
          URL http://www.quantum-espresso.org", 
     in publications or presentations arising from this work. More details at
     http://www.quantum-espresso.org/quote

     Parallel version (MPI), running on     8 processors
     R & G space division:  proc/nbgrp/npool/nimage =       8
     Waiting for input...
     Reading input from standard input

     Current dimensions of program PWSCF are:
     Max number of different atomic species (ntypx) = 10
     Max number of k-points (npk) =  40000
     Max angular momentum in pseudopotentials (lmaxx) =  3
               file C.pbe-n-kjpaw_psl.0.1.UPF: wavefunction(s)  2P renormalized
               file N.pbe-n-kjpaw_psl.0.1.UPF: wavefunction(s)  2P renormalized
               file H.pbe-kjpaw_psl.0.1.UPF: wavefunction(s)  1S renormalized
               file O.pbe-n-kjpaw_psl.0.1.UPF: wavefunction(s)  2P renormalized

     -------------------------------------
     Parameters for Dispersion Correction:
     -------------------------------------
       atom      VdW radius       C_6     

        C          2.744         60.710
        N          2.640         42.670
        H          1.892          4.857
        O          2.536         24.284

     Subspace diagonalization in iterative solution of the eigenvalue problem:
     a serial algorithm will be used

 
     Parallelization info
     --------------------
     sticks:   dense  smooth     PW     G-vecs:    dense   smooth      PW
     Min         846     846    224                73163    73163    9995
     Max         847     847    225                73165    73165    9999
     Sum        6775    6775   1797               585313   585313   79973
 


     bravais-lattice index     =            0
     lattice parameter (alat)  =      11.4383  a.u.
     unit-cell volume          =    4332.8085 (a.u.)^3
     number of atoms/cell      =           62
     number of atomic types    =            4
     number of electrons       =       264.00
     number of Kohn-Sham states=          158
     kinetic-energy cutoff     =     100.0000  Ry
     charge density cutoff     =     400.0000  Ry
     convergence threshold     =      1.0E-08
     mixing beta               =       0.5000
     number of iterations used =            8  plain     mixing
     Exchange-correlation      =  SLA  PW   PBX  PBC ( 1  4  3  4 0 0)

     celldm(1)=  11.438323  celldm(2)=   0.000000  celldm(3)=   0.000000
     celldm(4)=   0.000000  celldm(5)=   0.000000  celldm(6)=   0.000000

     crystal axes: (cart. coord. in units of alat)
               a(1) = (   1.000000   0.000000   0.000000 )  
               a(2) = (   0.265419   1.627226   0.000000 )  
               a(3) = (   0.223620   0.371286   1.779240 )  

     reciprocal axes: (cart. coord. in units 2 pi/alat)
               b(1) = (  1.000000 -0.163111 -0.091645 )  
               b(2) = (  0.000000  0.614543 -0.128241 )  
               b(3) = (  0.000000  0.000000  0.562038 )  


     PseudoPot. # 1 for  C read from file:
     /scratch/ahofstet/pseudo/C.pbe-n-kjpaw_psl.0.1.UPF
     MD5 check sum: 430fe95172b1e11ef3f8ed03bac87931
     Pseudo is Projector augmented-wave + core cor, Zval =  4.0
     Generated using "atomic" code by A. Dal Corso  v.5.0.99 svn rev. 10869
     Shape of augmentation charge: BESSEL
     Using radial grid of 1073 points,  4 beta functions with: 
                l(1) =   0
                l(2) =   0
                l(3) =   1
                l(4) =   1
     Q(r) pseudized with 0 coefficients 


     PseudoPot. # 2 for  N read from file:
     /scratch/ahofstet/pseudo/N.pbe-n-kjpaw_psl.0.1.UPF
     MD5 check sum: f73187c8b701007e77325f868c9291d7
     Pseudo is Projector augmented-wave + core cor, Zval =  5.0
     Generated using "atomic" code by A. Dal Corso  v.5.0.99 svn rev. 10869
     Shape of augmentation charge: PSQ
     Using radial grid of 1085 points,  4 beta functions with: 
                l(1) =   0
                l(2) =   0
                l(3) =   1
                l(4) =   1
     Q(r) pseudized with 0 coefficients 


     PseudoPot. # 3 for  H read from file:
     /scratch/ahofstet/pseudo/H.pbe-kjpaw_psl.0.1.UPF
     MD5 check sum: 94e484f906d9e9773b2f6e52662335b2
     Pseudo is Projector augmented-wave, Zval =  1.0
     Generated using "atomic" code by A. Dal Corso  v.5.0.99 svn rev. 10869
     Shape of augmentation charge: PSQ
     Using radial grid of  929 points,  2 beta functions with: 
                l(1) =   0
                l(2) =   0
     Q(r) pseudized with 0 coefficients 


     PseudoPot. # 4 for  O read from file:
     /scratch/ahofstet/pseudo/O.pbe-n-kjpaw_psl.0.1.UPF
     MD5 check sum: 3f94a2996a3169367d6eb21d9b593f20
     Pseudo is Projector augmented-wave + core cor, Zval =  6.0
     Generated using "atomic" code by A. Dal Corso  v.5.0.99 svn rev. 10869
     Shape of augmentation charge: BESSEL
     Using radial grid of 1095 points,  4 beta functions with: 
                l(1) =   0
                l(2) =   0
                l(3) =   1
                l(4) =   1
     Q(r) pseudized with 0 coefficients 


     atomic species   valence    mass     pseudopotential
        C              4.00    12.01070      C( 1.00)
        N              5.00    14.00670      N( 1.00)
        H              1.00     1.00794      H( 1.00)
        O              6.00    15.99940      O( 1.00)

      2 Sym. Ops., with inversion, found



   Cartesian axes

     site n.     atom                  positions (alat units)
         1           O   tau(   1) = (   0.9431836   0.1236084   0.2536353  )
         2           O   tau(   2) = (   0.5458551   1.8749032   1.5256045  )
         3           O   tau(   3) = (   1.0657591   0.3136137   0.5370415  )
         4           O   tau(   4) = (   0.4232795   1.6848979   1.2421983  )
         5           O   tau(   5) = (   0.5194356   0.1612658   0.5587940  )
         6           O   tau(   6) = (   0.9696031   1.8372458   1.2204459  )
         7           O   tau(   7) = (   0.6483693   1.5889106   0.8291837  )
         8           O   tau(   8) = (   0.8406694   0.4096010   0.9500562  )
         9           O   tau(   9) = (   0.3864767   1.2295523   0.6185171  )
        10           O   tau(  10) = (   1.1025620   0.7689594   1.1607228  )
        11           O   tau(  11) = (   1.1544391   1.4972465   0.6946498  )
        12           O   tau(  12) = (   0.3345996   0.5012651   1.0845901  )
        13           O   tau(  13) = (   0.7534614   1.3461089   0.3324350  )
        14           O   tau(  14) = (   0.7355772   0.6524027   1.4468048  )
        15           O   tau(  15) = (   1.0384653   1.6958565   1.7417102  )
        16           O   tau(  16) = (   0.4505734   0.3026551   0.0375297  )
        17           O   tau(  17) = (   1.3599849   1.4126902   1.6566726  )
        18           O   tau(  18) = (   0.1290538   0.5858214   0.1225673  )
        19           O   tau(  19) = (   0.3692679   1.0127751   0.1488049  )
        20           O   tau(  20) = (   1.1197707   0.9857365   1.6304349  )
        21           N   tau(  21) = (   1.0584128   0.1515413   0.4174377  )
        22           N   tau(  22) = (   0.4306259   1.8469703   1.3618022  )
        23           N   tau(  23) = (   0.6531472   1.6602795   0.6408326  )
        24           N   tau(  24) = (   0.8358915   0.3382321   1.1384072  )
        25           N   tau(  25) = (   0.3204486   1.4194096   0.6098173  )
        26           N   tau(  26) = (   1.1685901   0.5791020   1.1694226  )
        27           N   tau(  27) = (   1.0420493   1.1485455   0.2304202  )
        28           N   tau(  28) = (   0.4469894   0.8499661   1.5488197  )
        29           N   tau(  29) = (   0.1835009   1.0669124   0.0790598  )
        30           N   tau(  30) = (   1.3055377   0.9315992   1.7001801  )
        31           C   tau(  31) = (   0.4709909   1.5792816   0.4790750  )
        32           C   tau(  32) = (   1.0180478   0.4192300   1.3001649  )
        33           C   tau(  33) = (   0.5716175   1.4828375   0.2710756  )
        34           C   tau(  34) = (   0.9174211   0.5156742   1.5081643  )
        35           H   tau(  35) = (   0.4462311   1.3875720   0.1817300  )
        36           H   tau(  36) = (   1.0428076   0.6109396   1.5975098  )
        37           H   tau(  37) = (   0.6272833   1.6223081   0.1685944  )
        38           H   tau(  38) = (   0.8617553   0.3762036   1.6106455  )
        39           C   tau(  39) = (   0.8690497   1.2710831   0.1507572  )
        40           C   tau(  40) = (   0.6199890   0.7274285   1.6284827  )
        41           N   tau(  41) = (   0.5240232   1.1581567   1.1448935  )
        42           N   tau(  42) = (   0.9650155   0.8403549   0.6343464  )
        43           H   tau(  43) = (   0.4081114   1.2836335   1.1465737  )
        44           H   tau(  44) = (   1.0809272   0.7148781   0.6326662  )
        45           H   tau(  45) = (   0.4743945   1.0469061   1.2659472  )
        46           H   tau(  46) = (   1.0146441   0.9516055   0.5132927  )
        47           N   tau(  47) = (   0.7325362   1.2362641   1.2039980  )
        48           N   tau(  48) = (   0.7565025   0.7622475   0.5752418  )
        49           N   tau(  49) = (   1.0050618   1.3713412   1.3819013  )
        50           N   tau(  50) = (   0.4839769   0.6271704   0.3973386  )
        51           N   tau(  51) = (   1.0931960   1.2740672   1.1986114  )
        52           N   tau(  52) = (   0.3958427   0.7244445   0.5806284  )
        53           C   tau(  53) = (   0.7891295   1.3474158   1.3897230  )
        54           C   tau(  54) = (   0.6999091   0.6510958   0.3895169  )
        55           H   tau(  55) = (   0.6751480   1.3980333   1.5189146  )
        56           H   tau(  56) = (   0.8138906   0.6004783   0.2603252  )
        57           C   tau(  57) = (   0.9236794   1.1947165   1.0901717  )
        58           C   tau(  58) = (   0.5653593   0.8037952   0.6890682  )
        59           H   tau(  59) = (   0.9308275   1.1027863   0.9359403  )
        60           H   tau(  60) = (   0.5582112   0.8957253   0.8432995  )
        61           H   tau(  61) = (   1.1064072   1.4382275   1.5036423  )
        62           H   tau(  62) = (   0.3826314   0.5602841   0.2755975  )

     number of k points=     8
                       cart. coord. in units 2pi/alat
        k(    1) = (   0.0000000   0.0000000   0.0000000), wk =   0.1666667
        k(    2) = (   0.0000000   0.0000000  -0.2810189), wk =   0.1666667
        k(    3) = (   0.0000000  -0.3072714   0.0641203), wk =   0.1666667
        k(    4) = (   0.0000000  -0.3072714  -0.2168986), wk =   0.1666667
        k(    5) = (   0.3333333  -0.0543704  -0.0305485), wk =   0.3333333
        k(    6) = (   0.3333333  -0.0543704  -0.3115673), wk =   0.3333333
        k(    7) = (   0.3333333  -0.3616418   0.0335719), wk =   0.3333333
        k(    8) = (   0.3333333  -0.3616418  -0.2474470), wk =   0.3333333

     Dense  grid:   585313 G-vectors     FFT dimensions: (  75, 125, 135)

     Estimated max dynamical RAM per process >     489.13MB

     Estimated total allocated dynamical RAM >    3913.02MB

     Check: negative/imaginary core charge=   -0.000003    0.000000

     Initial potential from superposition of free atoms

     starting charge  263.99929, renormalised to  264.00000
     Starting wfc are  206 randomized atomic wfcs
     Checking if some PAW data can be deallocated... 

     total cpu time spent up to now is       25.5 secs

     per-process dynamical memory:   372.2 Mb

     Self-consistent Calculation

     iteration #  1     ecut=   100.00 Ry     beta=0.50
     Davidson diagonalization with overlap
     ethr =  1.00E-02,  avg # of iterations =  4.4

     total cpu time spent up to now is       84.9 secs

     total energy              =   -1538.42796705 Ry
     Harris-Foulkes estimate   =   -1542.12808891 Ry
     estimated scf accuracy    <       6.53955520 Ry

     iteration #  2     ecut=   100.00 Ry     beta=0.50
     Davidson diagonalization with overlap
     ethr =  2.48E-03,  avg # of iterations =  5.0

     total cpu time spent up to now is      135.9 secs

     total energy              =   -1539.60422007 Ry
     Harris-Foulkes estimate   =   -1540.96661547 Ry
     estimated scf accuracy    <       3.05663765 Ry

     iteration #  3     ecut=   100.00 Ry     beta=0.50
     Davidson diagonalization with overlap
     ethr =  1.16E-03,  avg # of iterations =  3.1

     total cpu time spent up to now is      172.7 secs

     total energy              =   -1540.17917081 Ry
     Harris-Foulkes estimate   =   -1540.27540299 Ry
     estimated scf accuracy    <       0.25408854 Ry

     iteration #  4     ecut=   100.00 Ry     beta=0.50
     Davidson diagonalization with overlap
     ethr =  9.62E-05,  avg # of iterations =  8.0

     total cpu time spent up to now is      235.3 secs

     total energy              =   -1540.23841571 Ry
     Harris-Foulkes estimate   =   -1540.29467743 Ry
     estimated scf accuracy    <       0.14825015 Ry

     iteration #  5     ecut=   100.00 Ry     beta=0.50
     Davidson diagonalization with overlap
     ethr =  5.62E-05,  avg # of iterations =  2.2

     total cpu time spent up to now is      270.1 secs

     total energy              =   -1540.25727403 Ry
     Harris-Foulkes estimate   =   -1540.27167326 Ry
     estimated scf accuracy    <       0.04097921 Ry

     iteration #  6     ecut=   100.00 Ry     beta=0.50
     Davidson diagonalization with overlap
     ethr =  1.55E-05,  avg # of iterations =  6.2

     total cpu time spent up to now is      313.2 secs

     total energy              =   -1540.26593382 Ry
     Harris-Foulkes estimate   =   -1540.26762742 Ry
     estimated scf accuracy    <       0.00529614 Ry

     iteration #  7     ecut=   100.00 Ry     beta=0.50
     Davidson diagonalization with overlap
     c_bands:  1 eigenvalues not converged
     ethr =  2.01E-06,  avg # of iterations =  9.2

     total cpu time spent up to now is      361.6 secs

     total energy              =   -1540.26686729 Ry
     Harris-Foulkes estimate   =   -1540.26715383 Ry
     estimated scf accuracy    <       0.00076447 Ry

     iteration #  8     ecut=   100.00 Ry     beta=0.50
     Davidson diagonalization with overlap
     ethr =  2.90E-07,  avg # of iterations =  3.0

     total cpu time spent up to now is      403.8 secs

     total energy              =   -1540.26699209 Ry
     Harris-Foulkes estimate   =   -1540.26716038 Ry
     estimated scf accuracy    <       0.00050902 Ry

     iteration #  9     ecut=   100.00 Ry     beta=0.50
     Davidson diagonalization with overlap
     ethr =  1.93E-07,  avg # of iterations =  2.2

     total cpu time spent up to now is      438.5 secs

     total energy              =   -1540.26707397 Ry
     Harris-Foulkes estimate   =   -1540.26708612 Ry
     estimated scf accuracy    <       0.00004008 Ry

     iteration # 10     ecut=   100.00 Ry     beta=0.50
     Davidson diagonalization with overlap
     ethr =  1.52E-08,  avg # of iterations =  3.0

     total cpu time spent up to now is      489.1 secs

     total energy              =   -1540.26708663 Ry
     Harris-Foulkes estimate   =   -1540.26709338 Ry
     estimated scf accuracy    <       0.00002182 Ry

     iteration # 11     ecut=   100.00 Ry     beta=0.50
     Davidson diagonalization with overlap
     ethr =  8.26E-09,  avg # of iterations =  2.0

     total cpu time spent up to now is      522.9 secs

     total energy              =   -1540.26708857 Ry
     Harris-Foulkes estimate   =   -1540.26709033 Ry
     estimated scf accuracy    <       0.00000543 Ry

     iteration # 12     ecut=   100.00 Ry     beta=0.50
     Davidson diagonalization with overlap
     ethr =  2.06E-09,  avg # of iterations =  3.0

     total cpu time spent up to now is      562.8 secs

     total energy              =   -1540.26708959 Ry
     Harris-Foulkes estimate   =   -1540.26708993 Ry
     estimated scf accuracy    <       0.00000107 Ry

     iteration # 13     ecut=   100.00 Ry     beta=0.50
     Davidson diagonalization with overlap
     ethr =  4.06E-10,  avg # of iterations =  3.0

     total cpu time spent up to now is      603.7 secs

     total energy              =   -1540.26708982 Ry
     Harris-Foulkes estimate   =   -1540.26708990 Ry
     estimated scf accuracy    <       0.00000028 Ry

     iteration # 14     ecut=   100.00 Ry     beta=0.50
     Davidson diagonalization with overlap
     ethr =  1.05E-10,  avg # of iterations =  2.2

     total cpu time spent up to now is      638.4 secs

     total energy              =   -1540.26708985 Ry
     Harris-Foulkes estimate   =   -1540.26708987 Ry
     estimated scf accuracy    <       0.00000006 Ry

     iteration # 15     ecut=   100.00 Ry     beta=0.50
     Davidson diagonalization with overlap
     ethr =  2.22E-11,  avg # of iterations =  3.1

     total cpu time spent up to now is      680.9 secs

     End of self-consistent calculation

          k = 0.0000 0.0000 0.0000 ( 73157 PWs)   bands (ev):

   -24.7661 -24.7574 -24.3115 -24.3093 -24.1892 -24.1880 -23.2937 -23.2126
   -20.7872 -20.7868 -20.5724 -20.5542 -20.2365 -20.2302 -20.1189 -20.1159
   -20.0107 -20.0099 -18.4522 -18.4102 -18.0949 -18.0750 -17.8320 -17.8230
   -15.9935 -15.9895 -15.1741 -15.1611 -14.1869 -14.1814 -13.6843 -13.6836
   -11.4809 -11.4359 -10.7401 -10.7079 -10.5585 -10.5330  -9.6498  -9.6158
    -9.4472  -9.4142  -8.7772  -8.6745  -7.6555  -7.6427  -7.5410  -7.4643
    -7.4046  -7.3737  -7.2985  -7.2953  -6.7338  -6.6841  -6.5680  -6.4915
    -6.2774  -6.2156  -6.1658  -6.1593  -6.1354  -6.0684  -5.9910  -5.9531
    -5.9036  -5.8518  -5.7999  -5.7231  -5.7076  -5.6140  -5.5524  -5.5347
    -5.4538  -5.3982  -5.1176  -5.0427  -4.8154  -4.7333  -4.7175  -4.6352
    -4.3938  -4.3474  -4.2915  -4.1206  -4.0640  -3.8956  -3.8882  -3.8452
    -2.9088  -2.6516  -2.2816  -2.1015  -1.4751  -1.4099  -1.3118  -1.2976
    -1.1994  -1.1263  -1.0673  -1.0388  -1.0321  -0.9974  -0.9063  -0.8999
    -0.7206  -0.6997  -0.6042  -0.5894  -0.5237  -0.4803  -0.3441  -0.2817
    -0.2527  -0.1487  -0.1114  -0.1105  -0.0515  -0.0412   0.0489   0.0966
     0.1554   0.2426   0.3607   0.4362   0.5918   0.6278   0.8917   0.8934
     0.9588   1.0463   1.3299   1.3987   3.3595   3.5018   3.6752   3.7172
     3.7310   3.8857   4.8266   4.8401   5.7920   5.7937   6.3598   6.5087
     7.3169   7.3858   7.5494   7.5796   7.8701   7.9617   8.0397   8.6826
     8.7803   8.8942   8.9694   9.3917   9.5004   9.6125

          k = 0.0000 0.0000-0.2810 ( 73164 PWs)   bands (ev):

   -24.7653 -24.7582 -24.3121 -24.3087 -24.1893 -24.1880 -23.2937 -23.2126
   -20.7887 -20.7855 -20.5718 -20.5544 -20.2402 -20.2265 -20.1200 -20.1151
   -20.0108 -20.0098 -18.4523 -18.4102 -18.0949 -18.0750 -17.8275 -17.8273
   -15.9933 -15.9895 -15.1703 -15.1652 -14.1847 -14.1839 -13.6879 -13.6796
   -11.4779 -11.4391 -10.7247 -10.7241 -10.5580 -10.5331  -9.6508  -9.6120
    -9.4414  -9.4200  -8.7757  -8.6768  -7.7168  -7.5914  -7.4855  -7.4821
    -7.4117  -7.3781  -7.3454  -7.2812  -6.6966  -6.6811  -6.5885  -6.4990
    -6.2529  -6.2204  -6.1892  -6.1717  -6.0950  -6.0778  -5.9929  -5.9394
    -5.9310  -5.8662  -5.8013  -5.7044  -5.6739  -5.6385  -5.5640  -5.5567
    -5.4174  -5.3980  -5.1187  -5.0497  -4.8051  -4.7771  -4.6782  -4.6533
    -4.4030  -4.3659  -4.2817  -4.0955  -4.0009  -3.9358  -3.8870  -3.8656
    -2.9129  -2.6526  -2.2936  -2.0908  -1.4472  -1.3823  -1.3573  -1.2934
    -1.2031  -1.1154  -1.0771  -1.0438  -1.0230  -1.0026  -0.9279  -0.8824
    -0.7293  -0.6948  -0.6152  -0.5550  -0.5137  -0.4967  -0.3730  -0.2882
    -0.2409  -0.1655  -0.1350  -0.0765  -0.0720   0.0070   0.0621   0.1101
     0.1141   0.2495   0.3857   0.4064   0.5528   0.6819   0.8596   0.8931
     0.9805   1.0404   1.3242   1.4002   3.3736   3.4780   3.6742   3.7303
     3.7352   3.8844   4.8252   4.8401   5.7864   5.8013   6.3515   6.5147
     7.3275   7.3953   7.5558   7.5869   7.9827   7.9892   8.1408   8.1495
     8.9430   8.9903   9.0918   9.2773   9.5566   9.5781

          k = 0.0000-0.3073 0.0641 ( 73140 PWs)   bands (ev):

   -24.7660 -24.7574 -24.3116 -24.3093 -24.1892 -24.1881 -23.2936 -23.2126
   -20.7878 -20.7861 -20.5720 -20.5546 -20.2365 -20.2302 -20.1189 -20.1157
   -20.0105 -20.0105 -18.4492 -18.4138 -18.0881 -18.0810 -17.8324 -17.8228
   -15.9963 -15.9865 -15.1746 -15.1618 -14.1858 -14.1810 -13.6844 -13.6839
   -11.4825 -11.4322 -10.7400 -10.7079 -10.5558 -10.5363  -9.6547  -9.6121
    -9.4559  -9.4119  -8.7728  -8.6735  -7.6667  -7.6405  -7.4981  -7.4690
    -7.4281  -7.4200  -7.2768  -7.2671  -6.7216  -6.6890  -6.5655  -6.5001
    -6.3346  -6.2791  -6.1390  -6.1367  -6.1281  -6.0399  -5.9906  -5.9438
    -5.8571  -5.8417  -5.7918  -5.7233  -5.7062  -5.6643  -5.5473  -5.5447
    -5.4387  -5.4044  -5.0903  -5.0535  -4.7943  -4.7764  -4.6942  -4.6658
    -4.3970  -4.3728  -4.2470  -4.1314  -4.0202  -3.9822  -3.8810  -3.7953
    -2.9444  -2.6169  -2.2837  -2.1155  -1.4462  -1.3896  -1.3302  -1.3168
    -1.1885  -1.1053  -1.0675  -1.0629  -1.0210  -0.9887  -0.9212  -0.9025
    -0.7176  -0.7072  -0.7007  -0.5710  -0.5462  -0.4662  -0.3668  -0.2655
    -0.2093  -0.1411  -0.1290  -0.0537   0.0117   0.0182   0.0232   0.1064
     0.1102   0.2035   0.2644   0.4818   0.6104   0.6752   0.8121   0.9108
     1.0068   1.0170   1.3077   1.4227   3.3548   3.5000   3.6893   3.7164
     3.7321   3.8728   4.7797   4.8866   5.7844   5.7884   6.3666   6.5173
     7.3702   7.3760   7.5327   7.5964   7.9371   7.9610   8.2260   8.4386
     8.6470   8.7066   9.2726   9.2824   9.4280   9.4438

          k = 0.0000-0.3073-0.2169 ( 73174 PWs)   bands (ev):

   -24.7653 -24.7582 -24.3121 -24.3087 -24.1892 -24.1881 -23.2936 -23.2126
   -20.7892 -20.7848 -20.5715 -20.5547 -20.2402 -20.2265 -20.1199 -20.1149
   -20.0109 -20.0102 -18.4494 -18.4138 -18.0882 -18.0810 -17.8278 -17.8272
   -15.9960 -15.9867 -15.1702 -15.1664 -14.1845 -14.1826 -13.6879 -13.6799
   -11.4797 -11.4353 -10.7247 -10.7241 -10.5556 -10.5360  -9.6500  -9.6153
    -9.4494  -9.4170  -8.7710  -8.6754  -7.7137  -7.5800  -7.5508  -7.4768
    -7.3869  -7.3777  -7.3277  -7.2619  -6.7123  -6.6717  -6.5837  -6.5013
    -6.3339  -6.2601  -6.1704  -6.1351  -6.0904  -6.0790  -5.9783  -5.9412
    -5.8527  -5.8305  -5.7930  -5.7590  -5.7109  -5.6333  -5.6078  -5.5284
    -5.4348  -5.3627  -5.0917  -5.0613  -4.7948  -4.7498  -4.7194  -4.6824
    -4.3959  -4.3619  -4.2625  -4.0659  -4.0441  -3.9659  -3.8979  -3.8157
    -2.9513  -2.6115  -2.2990  -2.1047  -1.4416  -1.3693  -1.3640  -1.2877
    -1.1651  -1.1070  -1.0838  -1.0756  -1.0221  -1.0037  -0.9265  -0.9067
    -0.7193  -0.7000  -0.6199  -0.6056  -0.5489  -0.5140  -0.3708  -0.2496
    -0.2025  -0.1508  -0.1079  -0.0822  -0.0212   0.0024   0.0706   0.1145
     0.1384   0.1823   0.2588   0.5375   0.5572   0.6696   0.8237   0.9029
     0.9925   1.0349   1.3045   1.4236   3.3701   3.4760   3.6876   3.7289
     3.7359   3.8714   4.7779   4.8887   5.7772   5.7964   6.3620   6.5223
     7.3634   7.3803   7.5305   7.6296   7.9035   7.9857   8.2608   8.4070
     8.6915   8.8577   9.0088   9.2763   9.2982   9.3651

          k = 0.3333-0.0544-0.0305 ( 73183 PWs)   bands (ev):

   -24.7553 -24.7487 -24.3168 -24.3098 -24.1982 -24.1963 -23.2919 -23.2111
   -20.7748 -20.7714 -20.5767 -20.5613 -20.2396 -20.2334 -20.1213 -20.1052
   -20.0118 -20.0111 -18.4468 -18.4053 -18.0977 -18.0840 -17.8887 -17.8834
   -15.9902 -15.9854 -15.1614 -15.1510 -14.2321 -14.2278 -13.4961 -13.4906
   -11.4799 -11.4498 -10.7620 -10.7067 -10.5696 -10.5568  -9.6475  -9.6167
    -9.4065  -9.3378  -8.8313  -8.7414  -7.7313  -7.5655  -7.5578  -7.5219
    -7.4303  -7.3954  -7.3364  -7.2823  -6.8249  -6.8051  -6.5742  -6.5365
    -6.3358  -6.2765  -6.2224  -6.1718  -6.1247  -6.0604  -6.0152  -5.9743
    -5.8835  -5.8121  -5.7772  -5.7356  -5.6931  -5.6537  -5.5880  -5.5369
    -5.5139  -5.4467  -5.1293  -5.0017  -4.7809  -4.6222  -4.5380  -4.4781
    -4.3967  -4.3618  -4.2502  -4.2002  -4.0807  -3.9922  -3.9049  -3.8685
    -2.9433  -2.6332  -2.3171  -2.1192  -1.5113  -1.4019  -1.3675  -1.3090
    -1.1690  -1.1223  -1.0740  -0.9903  -0.9788  -0.9457  -0.9222  -0.8365
    -0.7591  -0.6384  -0.6147  -0.5641  -0.4471  -0.3959  -0.3565  -0.2418
    -0.2062  -0.1478  -0.1106  -0.0642  -0.0174  -0.0061   0.0963   0.1632
     0.1836   0.2338   0.3171   0.3608   0.6498   0.7023   0.8556   0.9593
     0.9670   1.0380   1.3220   1.4188   3.3924   3.4697   3.6094   3.6509
     3.7449   3.8875   4.7341   4.8755   5.8375   5.8923   6.2851   6.4065
     7.3689   7.4557   7.5798   7.7038   7.9107   7.9732   8.1173   8.7509
     8.7844   8.9478   9.0495   9.2650   9.4438   9.4998

          k = 0.3333-0.0544-0.3116 ( 73148 PWs)   bands (ev):

   -24.7545 -24.7495 -24.3173 -24.3093 -24.1982 -24.1963 -23.2919 -23.2111
   -20.7738 -20.7725 -20.5766 -20.5611 -20.2436 -20.2292 -20.1205 -20.1064
   -20.0119 -20.0110 -18.4468 -18.4053 -18.0977 -18.0840 -17.8914 -17.8807
   -15.9903 -15.9855 -15.1616 -15.1506 -14.2337 -14.2264 -13.4951 -13.4915
   -11.4797 -11.4498 -10.7514 -10.7166 -10.5715 -10.5566  -9.6579  -9.5994
    -9.4013  -9.3496  -8.8349  -8.7380  -7.6759  -7.6563  -7.5662  -7.4907
    -7.4478  -7.3958  -7.3021  -7.2829  -6.8232  -6.8021  -6.5620  -6.5543
    -6.3333  -6.2765  -6.2191  -6.1736  -6.1447  -6.0387  -6.0020  -5.9672
    -5.9051  -5.8085  -5.7873  -5.7200  -5.7029  -5.6861  -5.6053  -5.5142
    -5.5003  -5.4427  -5.1221  -4.9949  -4.7854  -4.5775  -4.5561  -4.5178
    -4.3953  -4.3655  -4.2672  -4.1357  -4.0815  -4.0096  -3.9252  -3.8749
    -2.9430  -2.6338  -2.3324  -2.0999  -1.4974  -1.3886  -1.3787  -1.3242
    -1.1496  -1.0959  -1.0844  -1.0164  -0.9782  -0.9350  -0.9089  -0.8681
    -0.7300  -0.6628  -0.6215  -0.5544  -0.4472  -0.3974  -0.3567  -0.2337
    -0.1909  -0.1329  -0.1178  -0.1036  -0.0138   0.0165   0.0528   0.1741
     0.1967   0.2443   0.3122   0.3622   0.5951   0.7357   0.8675   0.9213
     1.0145   1.0252   1.3224   1.4171   3.3895   3.4717   3.6055   3.6575
     3.7459   3.8877   4.7325   4.8739   5.8406   5.8917   6.2864   6.4061
     7.3972   7.4327   7.5585   7.7227   7.8847   8.0388   8.3070   8.4021
     8.8650   9.0092   9.0956   9.1431   9.3264   9.5484

          k = 0.3333-0.3616 0.0336 ( 73208 PWs)   bands (ev):

   -24.7552 -24.7488 -24.3168 -24.3098 -24.1983 -24.1963 -23.2919 -23.2111
   -20.7753 -20.7708 -20.5779 -20.5602 -20.2396 -20.2334 -20.1211 -20.1052
   -20.0118 -20.0113 -18.4480 -18.4037 -18.1000 -18.0821 -17.8887 -17.8835
   -15.9933 -15.9822 -15.1616 -15.1512 -14.2322 -14.2276 -13.4962 -13.4905
   -11.4769 -11.4538 -10.7617 -10.7055 -10.5691 -10.5579  -9.6504  -9.6164
    -9.3958  -9.3404  -8.8335  -8.7388  -7.6851  -7.6538  -7.5705  -7.5091
    -7.4282  -7.3896  -7.3075  -7.2681  -6.8823  -6.7702  -6.5805  -6.5492
    -6.3236  -6.2715  -6.2192  -6.1541  -6.1241  -6.0899  -6.0227  -5.9301
    -5.8888  -5.8320  -5.7998  -5.7384  -5.6826  -5.6178  -5.5960  -5.5574
    -5.4972  -5.4521  -5.0810  -5.0394  -4.8190  -4.5654  -4.5545  -4.4976
    -4.4004  -4.3253  -4.2421  -4.1981  -4.0631  -4.0464  -3.9712  -3.7991
    -2.9395  -2.6322  -2.3187  -2.1119  -1.5158  -1.4131  -1.3862  -1.2803
    -1.1407  -1.1301  -1.0531  -1.0327  -0.9859  -0.9512  -0.9158  -0.8379
    -0.7657  -0.6589  -0.6085  -0.5527  -0.4607  -0.3759  -0.3301  -0.2361
    -0.2066  -0.1485  -0.1117  -0.0804  -0.0135   0.0021   0.0719   0.1571
     0.1798   0.2362   0.2743   0.4197   0.6428   0.7092   0.8412   0.9274
     1.0133   1.0383   1.3368   1.3967   3.3924   3.4741   3.5971   3.6666
     3.7417   3.8817   4.7499   4.8545   5.8433   5.8850   6.2906   6.4113
     7.3643   7.4139   7.6066   7.6533   7.8854   8.0174   8.4254   8.6121
     8.7680   8.9362   9.0374   9.1926   9.4321   9.5427

          k = 0.3333-0.3616-0.2474 ( 73175 PWs)   bands (ev):

   -24.7545 -24.7495 -24.3173 -24.3093 -24.1983 -24.1963 -23.2919 -23.2111
   -20.7743 -20.7719 -20.5779 -20.5599 -20.2437 -20.2292 -20.1203 -20.1063
   -20.0117 -20.0114 -18.4480 -18.4037 -18.0999 -18.0821 -17.8915 -17.8806
   -15.9933 -15.9823 -15.1616 -15.1510 -14.2335 -14.2266 -13.4951 -13.4915
   -11.4771 -11.4533 -10.7509 -10.7158 -10.5715 -10.5570  -9.6644  -9.5915
    -9.3955  -9.3528  -8.8309  -8.7402  -7.6741  -7.6292  -7.5809  -7.5606
    -7.4236  -7.3800  -7.3069  -7.2610  -6.8712  -6.7650  -6.5753  -6.5547
    -6.3421  -6.2925  -6.1755  -6.1506  -6.1216  -6.0854  -6.0283  -5.9610
    -5.8903  -5.8401  -5.7841  -5.7303  -5.6977  -5.6358  -5.5732  -5.5359
    -5.5200  -5.4551  -5.0583  -5.0425  -4.8133  -4.6141  -4.5239  -4.4729
    -4.4191  -4.3447  -4.2530  -4.0997  -4.0752  -4.0562  -4.0064  -3.8176
    -2.9397  -2.6291  -2.3323  -2.1053  -1.5038  -1.4321  -1.3518  -1.2894
    -1.1462  -1.1224  -1.0614  -1.0326  -0.9744  -0.9367  -0.9182  -0.8702
    -0.7304  -0.6672  -0.6228  -0.5361  -0.4694  -0.3769  -0.3231  -0.2325
    -0.1839  -0.1753  -0.1377  -0.0973  -0.0214   0.0361   0.0977   0.1614
     0.1817   0.2195   0.2671   0.4138   0.6177   0.6718   0.9013   0.9607
     0.9750   1.0360   1.3381   1.3971   3.3938   3.4720   3.5937   3.6717
     3.7412   3.8826   4.7508   4.8554   5.8310   5.8975   6.2920   6.4100
     7.3906   7.4138   7.5747   7.6723   7.9268   7.9808   8.4284   8.6593
     8.7489   9.0373   9.0756   9.1078   9.2270   9.4502

     highest occupied, lowest unoccupied level (ev):     1.4236    3.3548

!    total energy              =   -1540.26708987 Ry
     Harris-Foulkes estimate   =   -1540.26708987 Ry
     estimated scf accuracy    <          9.8E-09 Ry

     total all-electron energy =     -5758.224312 Ry

     The total energy is the sum of the following terms:

     one-electron contribution =    -789.00484097 Ry
     hartree contribution      =     505.22854795 Ry
     xc contribution           =    -295.90572529 Ry
     ewald contribution        =    -554.29940182 Ry
     Dispersion Correction     =      -0.28476383 Ry
     one-center paw contrib.   =    -406.00090592 Ry

     convergence has been achieved in  15 iterations

     Forces acting on atoms (cartesian axes, Ry/au):

     atom    1 type  4   force =     0.00084678    0.00021068    0.00114568
     atom    2 type  4   force =    -0.00084678   -0.00021068   -0.00114568
     atom    3 type  4   force =     0.00134365    0.00009968    0.00001347
     atom    4 type  4   force =    -0.00134365   -0.00009968   -0.00001347
     atom    5 type  4   force =    -0.00070732    0.00103209   -0.00116602
     atom    6 type  4   force =     0.00070732   -0.00103209    0.00116602
     atom    7 type  4   force =     0.00045459   -0.00028738    0.00075537
     atom    8 type  4   force =    -0.00045459    0.00028738   -0.00075537
     atom    9 type  4   force =    -0.00127509    0.00094898    0.00085970
     atom   10 type  4   force =     0.00127509   -0.00094898   -0.00085970
     atom   11 type  4   force =    -0.00070428    0.00081483   -0.00064013
     atom   12 type  4   force =     0.00070428   -0.00081483    0.00064013
     atom   13 type  4   force =    -0.00073107   -0.00317331   -0.00173728
     atom   14 type  4   force =     0.00073107    0.00317331    0.00173728
     atom   15 type  4   force =    -0.00148834   -0.00202767    0.00116562
     atom   16 type  4   force =     0.00148834    0.00202767   -0.00116562
     atom   17 type  4   force =     0.00063616    0.00103567   -0.00079002
     atom   18 type  4   force =    -0.00063616   -0.00103567    0.00079002
     atom   19 type  4   force =     0.00149782    0.00102806    0.00053336
     atom   20 type  4   force =    -0.00149782   -0.00102806   -0.00053336
     atom   21 type  2   force =    -0.00058473   -0.00100868   -0.00041591
     atom   22 type  2   force =     0.00058473    0.00100868    0.00041591
     atom   23 type  2   force =    -0.00066112    0.00050662    0.00039368
     atom   24 type  2   force =     0.00066112   -0.00050662   -0.00039368
     atom   25 type  2   force =     0.00257057   -0.00321674    0.00024861
     atom   26 type  2   force =    -0.00257057    0.00321674   -0.00024861
     atom   27 type  2   force =     0.00078715    0.00364682   -0.00051525
     atom   28 type  2   force =    -0.00078715   -0.00364682    0.00051525
     atom   29 type  2   force =     0.00272117   -0.00031558   -0.00085746
     atom   30 type  2   force =    -0.00272117    0.00031558    0.00085746
     atom   31 type  1   force =     0.00034546   -0.00024649   -0.00185497
     atom   32 type  1   force =    -0.00034546    0.00024649    0.00185497
     atom   33 type  1   force =    -0.00121784    0.00208196    0.00140855
     atom   34 type  1   force =     0.00121784   -0.00208196   -0.00140855
     atom   35 type  3   force =    -0.00138952    0.00125504    0.00102529
     atom   36 type  3   force =     0.00138952   -0.00125504   -0.00102529
     atom   37 type  3   force =    -0.00035648   -0.00022847    0.00001178
     atom   38 type  3   force =     0.00035648    0.00022847   -0.00001178
     atom   39 type  1   force =     0.00020335   -0.00081799    0.00162641
     atom   40 type  1   force =    -0.00020335    0.00081799   -0.00162641
     atom   41 type  2   force =    -0.00005379   -0.00923654   -0.00046698
     atom   42 type  2   force =     0.00005379    0.00923654    0.00046698
     atom   43 type  3   force =     0.01040769   -0.00728992   -0.00201735
     atom   44 type  3   force =    -0.01040769    0.00728992    0.00201735
     atom   45 type  3   force =     0.00339954    0.00190984   -0.00443847
     atom   46 type  3   force =    -0.00339954   -0.00190984    0.00443847
     atom   47 type  2   force =     0.00171919   -0.00174495    0.00942874
     atom   48 type  2   force =    -0.00171919    0.00174495   -0.00942874
     atom   49 type  2   force =     0.00082272   -0.00508504   -0.00645520
     atom   50 type  2   force =    -0.00082272    0.00508504    0.00645520
     atom   51 type  2   force =    -0.00716512    0.02049695    0.00457950
     atom   52 type  2   force =     0.00716512   -0.02049695   -0.00457950
     atom   53 type  1   force =    -0.00252526   -0.00288798   -0.00408433
     atom   54 type  1   force =     0.00252526    0.00288798    0.00408433
     atom   55 type  3   force =    -0.00061508    0.00125952    0.00027836
     atom   56 type  3   force =     0.00061508   -0.00125952   -0.00027836
     atom   57 type  1   force =    -0.00660343    0.00301753    0.00362761
     atom   58 type  1   force =     0.00660343   -0.00301753   -0.00362761
     atom   59 type  3   force =     0.00049434   -0.00016103   -0.00050765
     atom   60 type  3   force =    -0.00049434    0.00016103    0.00050765
     atom   61 type  3   force =     0.00030854   -0.00181410   -0.00000811
     atom   62 type  3   force =    -0.00030854    0.00181410    0.00000811

     Total force =     0.047866     Total SCF correction =     0.000203


     Computing stress (Cartesian axis) and pressure

          total   stress  (Ry/bohr**3)                   (kbar)     P=    3.52
   0.00007414  -0.00001193   0.00001361         10.91     -1.75      2.00
  -0.00001193   0.00002098  -0.00000932         -1.75      3.09     -1.37
   0.00001361  -0.00000932  -0.00002343          2.00     -1.37     -3.45


     Writing output data file scf.save
 
     init_run     :     24.23s CPU     24.84s WALL (       1 calls)
     electrons    :    630.19s CPU    655.55s WALL (       1 calls)
     forces       :     12.34s CPU     12.47s WALL (       1 calls)
     stress       :     59.03s CPU     59.24s WALL (       1 calls)

     Called by init_run:
     wfcinit      :     15.42s CPU     15.94s WALL (       1 calls)
     potinit      :      3.07s CPU      3.09s WALL (       1 calls)

     Called by electrons:
     c_bands      :    551.92s CPU    574.99s WALL (      15 calls)
     sum_band     :     69.37s CPU     71.00s WALL (      15 calls)
     v_of_rho     :      1.38s CPU      1.51s WALL (      16 calls)
     newd         :      2.74s CPU      3.25s WALL (      16 calls)
     PAW_pot      :      4.40s CPU      4.41s WALL (      16 calls)
     mix_rho      :      0.32s CPU      0.35s WALL (      15 calls)

     Called by c_bands:
     init_us_2    :      4.66s CPU      4.70s WALL (     264 calls)
     cegterg      :    533.67s CPU    556.60s WALL (     120 calls)

     Called by sum_band:
     sum_band:bec :      0.06s CPU      0.06s WALL (     120 calls)
     addusdens    :      2.99s CPU      3.46s WALL (      15 calls)

     Called by *egterg:
     h_psi        :    328.89s CPU    344.74s WALL (     607 calls)
     s_psi        :     48.16s CPU     48.16s WALL (     607 calls)
     g_psi        :      2.32s CPU      2.32s WALL (     479 calls)
     cdiaghg      :     42.57s CPU     42.58s WALL (     599 calls)

     Called by h_psi:
     h_psi:pot    :    326.14s CPU    341.96s WALL (     607 calls)
     h_psi:calbec :     45.07s CPU     45.27s WALL (     607 calls)
     vloc_psi     :    232.97s CPU    248.55s WALL (     607 calls)
     add_vuspsi   :     48.10s CPU     48.13s WALL (     607 calls)

     General routines
     calbec       :     66.69s CPU     66.99s WALL (     767 calls)
     fft          :      0.84s CPU      1.06s WALL (     232 calls)
     fftw         :    255.91s CPU    271.07s WALL (  119868 calls)
 
     Parallel routines
     fft_scatter  :     52.29s CPU     61.74s WALL (  120100 calls)
 
     PWSCF        : 12m12.66s CPU    13m15.40s WALL

 
   This run was terminated on:   0:50:19   7Dec2017            

=------------------------------------------------------------------------------=
   JOB DONE.
=------------------------------------------------------------------------------=
