
     Program PWSCF v.6.1 (svn rev. 13369) starts on  4Nov2017 at  5:44:59 

     This program is part of the open-source Quantum ESPRESSO suite
     for quantum simulation of materials; please cite
         "P. Giannozzi et al., J. Phys.:Condens. Matter 21 395502 (2009);
          URL http://www.quantum-espresso.org", 
     in publications or presentations arising from this work. More details at
     http://www.quantum-espresso.org/quote

     Parallel version (MPI), running on     8 processors
     R & G space division:  proc/nbgrp/npool/nimage =       8
     Waiting for input...
     Reading input from standard input

     Current dimensions of program PWSCF are:
     Max number of different atomic species (ntypx) = 10
     Max number of k-points (npk) =  40000
     Max angular momentum in pseudopotentials (lmaxx) =  3
               file C.pbe-n-kjpaw_psl.0.1.UPF: wavefunction(s)  2P renormalized
               file N.pbe-n-kjpaw_psl.0.1.UPF: wavefunction(s)  2P renormalized
               file H.pbe-kjpaw_psl.0.1.UPF: wavefunction(s)  1S renormalized
               file O.pbe-n-kjpaw_psl.0.1.UPF: wavefunction(s)  2P renormalized

     -------------------------------------
     Parameters for Dispersion Correction:
     -------------------------------------
       atom      VdW radius       C_6     

        C          2.744         60.710
        N          2.640         42.670
        H          1.892          4.857
        O          2.536         24.284

     Subspace diagonalization in iterative solution of the eigenvalue problem:
     a serial algorithm will be used

 
     Parallelization info
     --------------------
     sticks:   dense  smooth     PW     G-vecs:    dense   smooth      PW
     Min         928     928    245                53415    53415    7229
     Max         929     929    246                53416    53416    7232
     Sum        7429    7429   1967               427325   427325   57847
 


     bravais-lattice index     =            0
     lattice parameter (alat)  =      15.0726  a.u.
     unit-cell volume          =    3162.9229 (a.u.)^3
     number of atoms/cell      =           52
     number of atomic types    =            4
     number of electrons       =       192.00
     number of Kohn-Sham states=          115
     kinetic-energy cutoff     =     100.0000  Ry
     charge density cutoff     =     400.0000  Ry
     convergence threshold     =      1.0E-08
     mixing beta               =       0.5000
     number of iterations used =            8  plain     mixing
     Exchange-correlation      =  SLA  PW   PBX  PBC ( 1  4  3  4 0 0)

     celldm(1)=  15.072645  celldm(2)=   0.000000  celldm(3)=   0.000000
     celldm(4)=   0.000000  celldm(5)=   0.000000  celldm(6)=   0.000000

     crystal axes: (cart. coord. in units of alat)
               a(1) = (   1.000000   0.000000   0.000000 )  
               a(2) = (   0.000000   1.028122   0.000000 )  
               a(3) = (  -0.214264   0.000000   0.898413 )  

     reciprocal axes: (cart. coord. in units 2 pi/alat)
               b(1) = (  1.000000  0.000000  0.238492 )  
               b(2) = (  0.000000  0.972648  0.000000 )  
               b(3) = (  0.000000  0.000000  1.113074 )  


     PseudoPot. # 1 for  C read from file:
     /scratch/ahofstet/pseudo/C.pbe-n-kjpaw_psl.0.1.UPF
     MD5 check sum: 430fe95172b1e11ef3f8ed03bac87931
     Pseudo is Projector augmented-wave + core cor, Zval =  4.0
     Generated using "atomic" code by A. Dal Corso  v.5.0.99 svn rev. 10869
     Shape of augmentation charge: BESSEL
     Using radial grid of 1073 points,  4 beta functions with: 
                l(1) =   0
                l(2) =   0
                l(3) =   1
                l(4) =   1
     Q(r) pseudized with 0 coefficients 


     PseudoPot. # 2 for  N read from file:
     /scratch/ahofstet/pseudo/N.pbe-n-kjpaw_psl.0.1.UPF
     MD5 check sum: f73187c8b701007e77325f868c9291d7
     Pseudo is Projector augmented-wave + core cor, Zval =  5.0
     Generated using "atomic" code by A. Dal Corso  v.5.0.99 svn rev. 10869
     Shape of augmentation charge: PSQ
     Using radial grid of 1085 points,  4 beta functions with: 
                l(1) =   0
                l(2) =   0
                l(3) =   1
                l(4) =   1
     Q(r) pseudized with 0 coefficients 


     PseudoPot. # 3 for  H read from file:
     /scratch/ahofstet/pseudo/H.pbe-kjpaw_psl.0.1.UPF
     MD5 check sum: 94e484f906d9e9773b2f6e52662335b2
     Pseudo is Projector augmented-wave, Zval =  1.0
     Generated using "atomic" code by A. Dal Corso  v.5.0.99 svn rev. 10869
     Shape of augmentation charge: PSQ
     Using radial grid of  929 points,  2 beta functions with: 
                l(1) =   0
                l(2) =   0
     Q(r) pseudized with 0 coefficients 


     PseudoPot. # 4 for  O read from file:
     /scratch/ahofstet/pseudo/O.pbe-n-kjpaw_psl.0.1.UPF
     MD5 check sum: 3f94a2996a3169367d6eb21d9b593f20
     Pseudo is Projector augmented-wave + core cor, Zval =  6.0
     Generated using "atomic" code by A. Dal Corso  v.5.0.99 svn rev. 10869
     Shape of augmentation charge: BESSEL
     Using radial grid of 1095 points,  4 beta functions with: 
                l(1) =   0
                l(2) =   0
                l(3) =   1
                l(4) =   1
     Q(r) pseudized with 0 coefficients 


     atomic species   valence    mass     pseudopotential
        C              4.00    12.01070      C( 1.00)
        N              5.00    14.00670      N( 1.00)
        H              1.00     1.00794      H( 1.00)
        O              6.00    15.99940      O( 1.00)

      4 Sym. Ops., with inversion, found ( 2 have fractional translation)



   Cartesian axes

     site n.     atom                  positions (alat units)
         1           O   tau(   1) = (   0.5212499   0.0335171   0.3115371  )
         2           O   tau(   2) = (   0.3716181   0.5475779   0.1376691  )
         3           O   tau(   3) = (   0.2644861   0.9946044   0.5868754  )
         4           O   tau(   4) = (   0.4141179   0.4805436   0.7607434  )
         5           O   tau(   5) = (   0.7195427   0.5793114   0.5378574  )
         6           O   tau(   6) = (  -0.0409388   0.0652506   0.8097614  )
         7           O   tau(   7) = (   0.0661932   0.4488101   0.3605551  )
         8           O   tau(   8) = (   0.8266748   0.9628709   0.0886511  )
         9           N   tau(   9) = (   0.7633761   0.3066596   0.5931056  )
        10           N   tau(  10) = (  -0.0847722   0.8207204   0.7545132  )
        11           N   tau(  11) = (   0.0223599   0.7214619   0.3053069  )
        12           N   tau(  12) = (   0.8705081   0.2074012   0.1438993  )
        13           O   tau(  13) = (   0.5681515   0.7962952   0.3540889  )
        14           O   tau(  14) = (   0.3247165   0.2822344   0.0951174  )
        15           O   tau(  15) = (   0.2175845   0.2318263   0.5443236  )
        16           O   tau(  16) = (   0.4610195   0.7458871   0.8032951  )
        17           C   tau(  17) = (   0.6844746   0.4222547   0.5030623  )
        18           C   tau(  18) = (  -0.0058707   0.9363154   0.8445565  )
        19           C   tau(  19) = (   0.1012613   0.6058669   0.3953502  )
        20           C   tau(  20) = (   0.7916066   0.0918061   0.0538560  )
        21           N   tau(  21) = (   0.5915405   0.9479270   0.3957250  )
        22           N   tau(  22) = (   0.3013275   0.4338662   0.0534812  )
        23           N   tau(  23) = (   0.1941955   0.0801945   0.5026875  )
        24           N   tau(  24) = (   0.4844085   0.5942553   0.8449313  )
        25           N   tau(  25) = (   0.5761193   0.3799756   0.3845336  )
        26           N   tau(  26) = (   0.3167487   0.8940364   0.0646727  )
        27           N   tau(  27) = (   0.2096166   0.6481459   0.5138789  )
        28           N   tau(  28) = (   0.4689873   0.1340852   0.8337398  )
        29           O   tau(  29) = (   0.6833400   0.9844579   0.5187095  )
        30           O   tau(  30) = (  -0.0047360   0.4703971   0.8289093  )
        31           O   tau(  31) = (   0.1023960   0.0436636   0.3797030  )
        32           O   tau(  32) = (   0.7904720   0.5577244   0.0695032  )
        33           H   tau(  33) = (   0.5540712   0.2554997   0.3597579  )
        34           H   tau(  34) = (   0.3387967   0.7695605   0.0894484  )
        35           H   tau(  35) = (   0.2316647   0.7726218   0.5386546  )
        36           H   tau(  36) = (   0.4469392   0.2585610   0.8089641  )
        37           H   tau(  37) = (   0.7404842   0.1820664   0.5726200  )
        38           H   tau(  38) = (  -0.0618803   0.6961271   0.7749987  )
        39           H   tau(  39) = (   0.0452517   0.8460551   0.3257925  )
        40           H   tau(  40) = (   0.8476163   0.3319944   0.1234138  )
        41           H   tau(  41) = (   0.6573915   0.6650544   0.4640256  )
        42           H   tau(  42) = (   0.0212124   0.1509937   0.8835931  )
        43           H   tau(  43) = (   0.1283444   0.3630671   0.4343869  )
        44           H   tau(  44) = (   0.7645235   0.8771279   0.0148194  )
        45           H   tau(  45) = (   0.8473483   0.3429268   0.6823408  )
        46           H   tau(  46) = (  -0.1687444   0.8569876   0.6652779  )
        47           H   tau(  47) = (  -0.0616124   0.6851947   0.2160717  )
        48           H   tau(  48) = (   0.9544804   0.1711340   0.2331346  )
        49           H   tau(  49) = (   0.5146931   0.4661753   0.3121985  )
        50           H   tau(  50) = (   0.3781749   0.9802360   0.1370078  )
        51           H   tau(  51) = (   0.2710428   0.5619462   0.5862140  )
        52           H   tau(  52) = (   0.4075611   0.0478855   0.7614047  )

     number of k points=    10
                       cart. coord. in units 2pi/alat
        k(    1) = (   0.0000000   0.0000000   0.0000000), wk =   0.0740741
        k(    2) = (   0.0000000   0.0000000   0.3710248), wk =   0.1481481
        k(    3) = (   0.0000000   0.3242159   0.0000000), wk =   0.1481481
        k(    4) = (   0.0000000   0.3242159   0.3710248), wk =   0.2962963
        k(    5) = (   0.3333333   0.0000000   0.0794973), wk =   0.1481481
        k(    6) = (   0.3333333   0.0000000   0.4505221), wk =   0.1481481
        k(    7) = (   0.3333333   0.0000000  -0.2915275), wk =   0.1481481
        k(    8) = (   0.3333333   0.3242159   0.0794973), wk =   0.2962963
        k(    9) = (   0.3333333   0.3242159   0.4505221), wk =   0.2962963
        k(   10) = (   0.3333333   0.3242159  -0.2915275), wk =   0.2962963

     Dense  grid:   427325 G-vectors     FFT dimensions: (  96, 100,  90)

     Estimated max dynamical RAM per process >     291.46MB

     Estimated total allocated dynamical RAM >    2331.69MB

     Check: negative/imaginary core charge=   -0.000003    0.000000

     Initial potential from superposition of free atoms

     starting charge  191.99953, renormalised to  192.00000
     Starting wfc are  148 randomized atomic wfcs
     Checking if some PAW data can be deallocated... 

     total cpu time spent up to now is       15.9 secs

     per-process dynamical memory:   255.0 Mb

     Self-consistent Calculation

     iteration #  1     ecut=   100.00 Ry     beta=0.50
     Davidson diagonalization with overlap
     ethr =  1.00E-02,  avg # of iterations =  3.1

     total cpu time spent up to now is       50.0 secs

     total energy              =   -1100.67210092 Ry
     Harris-Foulkes estimate   =   -1104.24067898 Ry
     estimated scf accuracy    <       6.17944915 Ry

     iteration #  2     ecut=   100.00 Ry     beta=0.50
     Davidson diagonalization with overlap
     ethr =  3.22E-03,  avg # of iterations =  3.0

     total cpu time spent up to now is       79.8 secs

     total energy              =   -1102.16489280 Ry
     Harris-Foulkes estimate   =   -1102.85072528 Ry
     estimated scf accuracy    <       1.50101473 Ry

     iteration #  3     ecut=   100.00 Ry     beta=0.50
     Davidson diagonalization with overlap
     ethr =  7.82E-04,  avg # of iterations =  3.8

     total cpu time spent up to now is      105.1 secs

     total energy              =   -1102.44557992 Ry
     Harris-Foulkes estimate   =   -1102.48034029 Ry
     estimated scf accuracy    <       0.12322129 Ry

     iteration #  4     ecut=   100.00 Ry     beta=0.50
     Davidson diagonalization with overlap
     ethr =  6.42E-05,  avg # of iterations =  9.3

     total cpu time spent up to now is      141.5 secs

     total energy              =   -1102.46837319 Ry
     Harris-Foulkes estimate   =   -1102.47688793 Ry
     estimated scf accuracy    <       0.03148139 Ry

     iteration #  5     ecut=   100.00 Ry     beta=0.50
     Davidson diagonalization with overlap
     ethr =  1.64E-05,  avg # of iterations =  3.1

     total cpu time spent up to now is      163.2 secs

     total energy              =   -1102.47115152 Ry
     Harris-Foulkes estimate   =   -1102.47167013 Ry
     estimated scf accuracy    <       0.00184752 Ry

     iteration #  6     ecut=   100.00 Ry     beta=0.50
     Davidson diagonalization with overlap
     ethr =  9.62E-07,  avg # of iterations =  8.2

     total cpu time spent up to now is      208.6 secs

     total energy              =   -1102.47200094 Ry
     Harris-Foulkes estimate   =   -1102.47239962 Ry
     estimated scf accuracy    <       0.00110837 Ry

     iteration #  7     ecut=   100.00 Ry     beta=0.50
     Davidson diagonalization with overlap
     ethr =  5.77E-07,  avg # of iterations =  2.0

     total cpu time spent up to now is      230.9 secs

     total energy              =   -1102.47212069 Ry
     Harris-Foulkes estimate   =   -1102.47219047 Ry
     estimated scf accuracy    <       0.00015854 Ry

     iteration #  8     ecut=   100.00 Ry     beta=0.50
     Davidson diagonalization with overlap
     ethr =  8.26E-08,  avg # of iterations =  3.0

     total cpu time spent up to now is      262.7 secs

     total energy              =   -1102.47217490 Ry
     Harris-Foulkes estimate   =   -1102.47219491 Ry
     estimated scf accuracy    <       0.00005581 Ry

     iteration #  9     ecut=   100.00 Ry     beta=0.50
     Davidson diagonalization with overlap
     ethr =  2.91E-08,  avg # of iterations =  2.0

     total cpu time spent up to now is      283.6 secs

     total energy              =   -1102.47217638 Ry
     Harris-Foulkes estimate   =   -1102.47218060 Ry
     estimated scf accuracy    <       0.00001006 Ry

     iteration # 10     ecut=   100.00 Ry     beta=0.50
     Davidson diagonalization with overlap
     ethr =  5.24E-09,  avg # of iterations =  3.0

     total cpu time spent up to now is      315.3 secs

     total energy              =   -1102.47218106 Ry
     Harris-Foulkes estimate   =   -1102.47218128 Ry
     estimated scf accuracy    <       0.00000110 Ry

     iteration # 11     ecut=   100.00 Ry     beta=0.50
     Davidson diagonalization with overlap
     ethr =  5.71E-10,  avg # of iterations =  1.8

     total cpu time spent up to now is      335.8 secs

     total energy              =   -1102.47218097 Ry
     Harris-Foulkes estimate   =   -1102.47218115 Ry
     estimated scf accuracy    <       0.00000048 Ry

     iteration # 12     ecut=   100.00 Ry     beta=0.50
     Davidson diagonalization with overlap
     ethr =  2.49E-10,  avg # of iterations =  3.0

     total cpu time spent up to now is      361.6 secs

     total energy              =   -1102.47218108 Ry
     Harris-Foulkes estimate   =   -1102.47218108 Ry
     estimated scf accuracy    <       0.00000001 Ry

     iteration # 13     ecut=   100.00 Ry     beta=0.50
     Davidson diagonalization with overlap
     ethr =  6.56E-12,  avg # of iterations =  3.0

     total cpu time spent up to now is      392.2 secs

     End of self-consistent calculation

          k = 0.0000 0.0000 0.0000 ( 53391 PWs)   bands (ev):

   -24.5305 -24.5167 -24.4857 -24.4818 -20.5060 -20.4938 -20.4414 -20.4277
   -19.0507 -19.0483 -19.0405 -19.0239 -19.0001 -18.9894 -18.9890 -18.9571
   -16.7259 -16.6441 -16.6252 -16.5995 -15.1456 -15.1348 -15.1111 -15.0889
    -9.7457  -9.6536  -9.3303  -9.3101  -8.5518  -8.5425  -8.0794  -8.0670
    -7.8849  -7.7765  -7.4345  -7.4091  -7.1025  -7.0842  -6.9377  -6.8964
    -6.7596  -6.6554  -6.6258  -6.5811  -6.3862  -6.2924  -6.2046  -6.1741
    -6.1736  -6.1447  -5.7586  -5.7511  -5.2836  -5.2573  -4.8908  -4.8846
    -4.8631  -4.8571  -4.5183  -4.4211  -4.3609  -4.2346  -3.9474  -3.7697
    -2.4559  -2.4546  -2.4387  -2.4382  -1.0940  -1.0637  -1.0411  -1.0158
    -0.9538  -0.8767  -0.8352  -0.8222  -0.8138  -0.7219  -0.6621  -0.6303
    -0.6066  -0.5928  -0.5392  -0.4867  -0.3729  -0.3164  -0.2584  -0.2411
     0.4536   0.5215   0.6331   0.6510   0.7032   0.7658   0.7929   0.8165
     4.4629   4.6424   4.7108   4.7868   6.6186   6.7681   6.8190   6.8627
     6.9147   8.7502   8.8964   8.9499   9.3146   9.4242   9.7273   9.7590
    10.0679  10.2152  10.2736

          k = 0.0000 0.0000 0.3710 ( 53412 PWs)   bands (ev):

   -24.5270 -24.5201 -24.4847 -24.4827 -20.5053 -20.4995 -20.4368 -20.4303
   -19.0486 -19.0447 -19.0391 -19.0280 -18.9989 -18.9926 -18.9793 -18.9638
   -16.7014 -16.6512 -16.6301 -16.6075 -15.1438 -15.1251 -15.1245 -15.1028
    -9.6445  -9.5736  -9.4300  -9.3948  -8.4067  -8.3788  -8.1305  -8.1130
    -7.8570  -7.7922  -7.5445  -7.5420  -7.0748  -7.0737  -6.9642  -6.9373
    -6.7214  -6.6720  -6.6292  -6.5833  -6.5204  -6.4910  -6.3553  -6.2960
    -5.8910  -5.8605  -5.7444  -5.7402  -5.2569  -5.2450  -5.1892  -5.1785
    -4.5385  -4.5187  -4.4685  -4.3883  -4.3439  -4.2898  -3.9012  -3.8133
    -2.4689  -2.4639  -2.4235  -2.4103  -1.0862  -1.0836  -1.0245  -0.9921
    -0.9489  -0.9008  -0.8445  -0.8390  -0.8235  -0.7019  -0.6756  -0.6509
    -0.6482  -0.6176  -0.5244  -0.5047  -0.3564  -0.3218  -0.2964  -0.2219
     0.4947   0.5964   0.5969   0.6572   0.6770   0.7389   0.7393   0.7629
     4.5061   4.6148   4.6615   4.7467   6.5734   6.6479   6.8471   6.8873
     7.4414   8.4841   9.0343   9.0651   9.2074   9.6170   9.6895   9.7829
     9.9530  10.1569  10.3689

          k = 0.0000 0.3242 0.0000 ( 53401 PWs)   bands (ev):

   -24.5272 -24.5204 -24.4843 -24.4824 -20.5077 -20.5017 -20.4420 -20.4352
   -19.0483 -19.0434 -19.0432 -19.0316 -18.9871 -18.9807 -18.9679 -18.9536
   -16.7213 -16.6824 -16.6257 -16.6108 -15.1427 -15.1380 -15.1024 -15.0916
    -9.5306  -9.4363  -9.2391  -9.1980  -8.7615  -8.6977  -8.4923  -8.4544
    -7.7984  -7.6989  -7.6561  -7.5883  -7.0501  -7.0392  -6.9515  -6.9265
    -6.7286  -6.6753  -6.3593  -6.3159  -6.2823  -6.2420  -6.1086  -6.1083
    -6.0857  -6.0417  -5.8817  -5.8674  -5.1500  -5.1419  -4.9333  -4.9006
    -4.7706  -4.7352  -4.5588  -4.5004  -4.3526  -4.2934  -3.8776  -3.7977
    -2.5667  -2.5453  -2.5398  -2.5218  -1.0671  -1.0413  -0.9908  -0.9751
    -0.9538  -0.9442  -0.9319  -0.9079  -0.8803  -0.7158  -0.6625  -0.6601
    -0.6248  -0.6219  -0.5224  -0.4915  -0.4870  -0.3904  -0.2128  -0.1893
     0.4634   0.4928   0.7333   0.7464   0.7661   0.7896   0.8060   0.8200
     4.5051   4.5939   4.7542   4.7924   6.6366   6.7115   6.8281   6.8683
     7.2766   8.1439   9.1551   9.2221   9.4074   9.4295   9.5438   9.6219
     9.9348  10.1382  10.2062

          k = 0.0000 0.3242 0.3710 ( 53369 PWs)   bands (ev):

   -24.5252 -24.5217 -24.4841 -24.4831 -20.5076 -20.5047 -20.4402 -20.4369
   -19.0467 -19.0443 -19.0369 -19.0309 -18.9857 -18.9791 -18.9689 -18.9594
   -16.6994 -16.6710 -16.6408 -16.6245 -15.1395 -15.1323 -15.1138 -15.1049
    -9.4450  -9.3709  -9.2903  -9.2459  -8.6652  -8.5976  -8.5084  -8.4770
    -7.8249  -7.7652  -7.7154  -7.6689  -7.0001  -6.9952  -6.9409  -6.9260
    -6.7094  -6.6832  -6.4604  -6.4373  -6.4007  -6.3753  -6.3220  -6.2947
    -5.8537  -5.8201  -5.8073  -5.7859  -5.1207  -5.1193  -4.9953  -4.9758
    -4.6087  -4.5630  -4.5045  -4.4517  -4.3541  -4.3216  -3.8764  -3.8346
    -2.5642  -2.5550  -2.5360  -2.5231  -1.1090  -1.0691  -1.0459  -1.0176
    -0.9738  -0.9178  -0.9095  -0.8804  -0.8237  -0.7235  -0.6743  -0.6448
    -0.6349  -0.6313  -0.5174  -0.4791  -0.4269  -0.3833  -0.2768  -0.2371
     0.5144   0.5498   0.6702   0.7007   0.7557   0.7722   0.7916   0.8005
     4.5508   4.6294   4.6716   4.7356   6.6198   6.6927   6.7702   6.8294
     7.7560   8.4675   8.8056   9.1663   9.3654   9.4563   9.5842   9.6643
     9.7594  10.0767  10.1926

          k = 0.3333 0.0000 0.0795 ( 53370 PWs)   bands (ev):

   -24.5291 -24.5158 -24.4871 -24.4827 -20.5047 -20.4894 -20.4466 -20.4299
   -19.0491 -19.0454 -19.0373 -19.0321 -18.9987 -18.9902 -18.9866 -18.9569
   -16.7274 -16.6382 -16.6190 -16.6030 -15.1632 -15.1252 -15.1130 -15.0980
    -9.6402  -9.5751  -9.4137  -9.4093  -8.3985  -8.3872  -8.1247  -8.1166
    -7.8563  -7.7979  -7.5617  -7.5252  -7.0904  -7.0556  -6.9546  -6.9293
    -6.7557  -6.6550  -6.6514  -6.5821  -6.5199  -6.4694  -6.4094  -6.2709
    -5.8830  -5.8780  -5.7446  -5.7405  -5.2701  -5.2428  -5.2006  -5.1559
    -4.5362  -4.5033  -4.4597  -4.3799  -4.3605  -4.2023  -3.9603  -3.8127
    -2.4706  -2.4625  -2.4251  -2.4047  -1.1094  -1.0871  -1.0299  -0.9834
    -0.9512  -0.8804  -0.8671  -0.8292  -0.8245  -0.7784  -0.7170  -0.6209
    -0.6052  -0.5521  -0.5093  -0.5017  -0.4006  -0.3529  -0.2115  -0.1994
     0.4369   0.5588   0.6200   0.6605   0.6688   0.7086   0.7279   0.8006
     4.5283   4.6052   4.6215   4.8570   6.5718   6.6607   6.7470   6.9885
     7.3603   8.2682   9.0247   9.1449   9.3983   9.4704   9.6758   9.9011
     9.9860  10.1531  10.3875

          k = 0.3333 0.0000 0.4505 ( 53432 PWs)   bands (ev):

   -24.5256 -24.5193 -24.4861 -24.4836 -20.5030 -20.4950 -20.4413 -20.4327
   -19.0498 -19.0408 -19.0390 -19.0322 -18.9966 -18.9939 -18.9783 -18.9642
   -16.7051 -16.6520 -16.6253 -16.6077 -15.1526 -15.1195 -15.1139 -15.1100
    -9.6167  -9.6104  -9.4297  -9.3895  -8.4005  -8.3835  -8.1339  -8.1084
    -7.8308  -7.8244  -7.5580  -7.5259  -7.0684  -7.0388  -6.9533  -6.9516
    -6.7259  -6.6701  -6.6348  -6.6080  -6.5291  -6.4688  -6.3816  -6.2874
    -5.8898  -5.8631  -5.7412  -5.7410  -5.2618  -5.2469  -5.1986  -5.1659
    -4.5493  -4.4996  -4.4197  -4.4181  -4.3346  -4.2600  -3.9416  -3.8551
    -2.4675  -2.4650  -2.4190  -2.4119  -1.1099  -1.1042  -0.9960  -0.9662
    -0.9603  -0.8902  -0.8533  -0.8084  -0.7994  -0.7550  -0.7273  -0.6774
    -0.6101  -0.5797  -0.5094  -0.4926  -0.4214  -0.3711  -0.2210  -0.1845
     0.4930   0.5937   0.6079   0.6409   0.7106   0.7174   0.7378   0.7693
     4.5080   4.5399   4.6464   4.8031   6.5698   6.6101   6.7890   6.9814
     7.7831   8.3834   8.4928   9.2400   9.4214   9.4561   9.6120   9.8389
     9.8504  10.2213  10.4044

          k = 0.3333 0.0000-0.2915 ( 53470 PWs)   bands (ev):

   -24.5260 -24.5190 -24.4858 -24.4839 -20.5015 -20.4949 -20.4408 -20.4335
   -19.0493 -19.0486 -19.0363 -19.0290 -18.9979 -18.9920 -18.9796 -18.9643
   -16.7060 -16.6577 -16.6289 -16.6046 -15.1404 -15.1228 -15.1181 -15.0956
    -9.7288  -9.6834  -9.3246  -9.3146  -8.5491  -8.5443  -8.0753  -8.0693
    -7.8594  -7.8051  -7.4264  -7.4131  -7.0771  -7.0663  -6.9207  -6.8998
    -6.7120  -6.6837  -6.6287  -6.5932  -6.3991  -6.3428  -6.2098  -6.2053
    -6.1371  -6.1108  -5.7542  -5.7513  -5.2779  -5.2626  -4.8901  -4.8894
    -4.8653  -4.8618  -4.4898  -4.4399  -4.3418  -4.2625  -3.9236  -3.8639
    -2.4519  -2.4489  -2.4451  -2.4393  -1.0723  -1.0647  -1.0612  -1.0384
    -0.8720  -0.8539  -0.8379  -0.8146  -0.8078  -0.7472  -0.7139  -0.6479
    -0.6442  -0.5795  -0.5277  -0.5094  -0.3641  -0.3451  -0.2345  -0.2164
     0.5343   0.5697   0.5898   0.6512   0.6941   0.7867   0.8000   0.8067
     4.4416   4.5437   4.6903   4.7702   6.5936   6.6097   6.8361   6.8993
     7.7062   8.5842   8.6019   8.8119   9.0779   9.3250   9.6658   9.8809
     9.9972  10.2813  10.3503

          k = 0.3333 0.3242 0.0795 ( 53417 PWs)   bands (ev):

   -24.5260 -24.5194 -24.4855 -24.4834 -20.5059 -20.4982 -20.4462 -20.4379
   -19.0460 -19.0432 -19.0383 -19.0340 -18.9885 -18.9799 -18.9694 -18.9540
   -16.7218 -16.6799 -16.6211 -16.6104 -15.1546 -15.1374 -15.1035 -15.0979
    -9.4391  -9.3740  -9.2729  -9.2639  -8.6624  -8.5989  -8.5140  -8.4695
    -7.8279  -7.7653  -7.7214  -7.6591  -7.0196  -6.9787  -6.9455  -6.9074
    -6.7236  -6.6758  -6.4686  -6.4290  -6.4185  -6.3922  -6.3555  -6.2697
    -5.8432  -5.8349  -5.8010  -5.7955  -5.1241  -5.1150  -4.9963  -4.9657
    -4.5957  -4.5704  -4.4998  -4.4524  -4.3451  -4.2707  -3.8983  -3.8337
    -2.5711  -2.5494  -2.5384  -2.5195  -1.0956  -1.0812  -1.0336  -1.0286
    -0.9446  -0.9343  -0.9040  -0.8825  -0.8480  -0.7589  -0.6909  -0.6795
    -0.5696  -0.5485  -0.5417  -0.5037  -0.4754  -0.4452  -0.1991  -0.1767
     0.4579   0.5105   0.7064   0.7369   0.7540   0.7636   0.7750   0.7887
     4.5313   4.5706   4.7281   4.8329   6.5887   6.6733   6.7588   6.9127
     7.6810   8.3909   8.6197   9.0812   9.3441   9.4893   9.6610   9.7778
     9.9572  10.1229  10.2190

          k = 0.3333 0.3242 0.4505 ( 53423 PWs)   bands (ev):

   -24.5239 -24.5208 -24.4854 -24.4842 -20.5051 -20.5009 -20.4441 -20.4397
   -19.0469 -19.0413 -19.0374 -19.0334 -18.9848 -18.9797 -18.9685 -18.9595
   -16.7019 -16.6717 -16.6381 -16.6241 -15.1446 -15.1294 -15.1085 -15.1076
    -9.4164  -9.4059  -9.2864  -9.2454  -8.6398  -8.6282  -8.5203  -8.4644
    -7.8084  -7.7833  -7.7100  -7.6725  -6.9969  -6.9680  -6.9337  -6.9171
    -6.7096  -6.6861  -6.4632  -6.4403  -6.4334  -6.3708  -6.3496  -6.2732
    -5.8500  -5.8235  -5.8107  -5.7840  -5.1227  -5.1144  -4.9994  -4.9701
    -4.6019  -4.5653  -4.4782  -4.4748  -4.3288  -4.2947  -3.9187  -3.8767
    -2.5664  -2.5550  -2.5346  -2.5257  -1.1129  -1.0792  -1.0433  -0.9897
    -0.9597  -0.9375  -0.8971  -0.8536  -0.8391  -0.7647  -0.6836  -0.6679
    -0.6043  -0.5352  -0.5321  -0.4879  -0.4393  -0.4125  -0.2700  -0.2416
     0.5214   0.5709   0.6697   0.6771   0.7624   0.7789   0.7877   0.8007
     4.5485   4.5904   4.6617   4.7656   6.5809   6.6900   6.7205   6.8867
     8.0718   8.5605   8.7304   8.9743   9.2236   9.3267   9.5088   9.6838
     9.8715   9.9642  10.1003

          k = 0.3333 0.3242-0.2915 ( 53424 PWs)   bands (ev):

   -24.5241 -24.5206 -24.4852 -24.4843 -20.5040 -20.5007 -20.4437 -20.4400
   -19.0465 -19.0448 -19.0392 -19.0343 -18.9837 -18.9789 -18.9677 -18.9591
   -16.7030 -16.6745 -16.6415 -16.6237 -15.1357 -15.1282 -15.1087 -15.0986
    -9.5117  -9.4651  -9.2267  -9.2062  -8.7499  -8.7182  -8.4839  -8.4650
    -7.7767  -7.7286  -7.6377  -7.6052  -7.0268  -7.0209  -6.9285  -6.9146
    -6.6957  -6.6744  -6.3926  -6.3668  -6.2736  -6.2516  -6.1154  -6.0994
    -6.0668  -6.0395  -5.8751  -5.8685  -5.1470  -5.1408  -4.9264  -4.9109
    -4.7617  -4.7442  -4.5432  -4.5143  -4.3362  -4.2943  -3.9069  -3.8787
    -2.5639  -2.5528  -2.5364  -2.5261  -1.0607  -1.0477  -1.0142  -0.9894
    -0.9522  -0.9340  -0.8893  -0.8804  -0.7935  -0.7709  -0.7524  -0.6415
    -0.5957  -0.5403  -0.5262  -0.5122  -0.4377  -0.4119  -0.2822  -0.2269
     0.5486   0.5658   0.6606   0.7017   0.7702   0.8028   0.8179   0.8340
     4.5060   4.5914   4.6759   4.7466   6.6178   6.6518   6.7810   6.8342
     8.0155   8.6274   8.7998   8.8678   9.0651   9.2991   9.3681   9.6115
     9.7490   9.8592  10.0903

     highest occupied, lowest unoccupied level (ev):     0.8340    4.4416

!    total energy              =   -1102.47218108 Ry
     Harris-Foulkes estimate   =   -1102.47218108 Ry
     estimated scf accuracy    <          2.8E-09 Ry

     total all-electron energy =     -4050.664392 Ry

     The total energy is the sum of the following terms:

     one-electron contribution =    -510.72343868 Ry
     hartree contribution      =     336.39155364 Ry
     xc contribution           =    -214.76250973 Ry
     ewald contribution        =    -434.99107557 Ry
     Dispersion Correction     =      -0.22933120 Ry
     one-center paw contrib.   =    -278.15737954 Ry

     convergence has been achieved in  13 iterations

     Forces acting on atoms (cartesian axes, Ry/au):

     atom    1 type  4   force =     0.00008710   -0.00060927    0.00078112
     atom    2 type  4   force =    -0.00008710   -0.00060927   -0.00078112
     atom    3 type  4   force =    -0.00008710    0.00060927   -0.00078112
     atom    4 type  4   force =     0.00008710    0.00060927    0.00078112
     atom    5 type  4   force =     0.00177764    0.00224048    0.00172545
     atom    6 type  4   force =    -0.00177764    0.00224048   -0.00172545
     atom    7 type  4   force =    -0.00177764   -0.00224048   -0.00172545
     atom    8 type  4   force =     0.00177764   -0.00224048    0.00172545
     atom    9 type  2   force =    -0.00123336    0.00014536   -0.00107287
     atom   10 type  2   force =     0.00123336    0.00014536    0.00107287
     atom   11 type  2   force =     0.00123336   -0.00014536    0.00107287
     atom   12 type  2   force =    -0.00123336   -0.00014536   -0.00107287
     atom   13 type  4   force =    -0.00234831   -0.00146620   -0.00225965
     atom   14 type  4   force =     0.00234831   -0.00146620    0.00225965
     atom   15 type  4   force =     0.00234831    0.00146620    0.00225965
     atom   16 type  4   force =    -0.00234831    0.00146620   -0.00225965
     atom   17 type  1   force =    -0.00097935   -0.00193702   -0.00169251
     atom   18 type  1   force =     0.00097935   -0.00193702    0.00169251
     atom   19 type  1   force =     0.00097935    0.00193702    0.00169251
     atom   20 type  1   force =    -0.00097935    0.00193702   -0.00169251
     atom   21 type  2   force =     0.00067794    0.00186172    0.00031598
     atom   22 type  2   force =    -0.00067794    0.00186172   -0.00031598
     atom   23 type  2   force =    -0.00067794   -0.00186172   -0.00031598
     atom   24 type  2   force =     0.00067794   -0.00186172    0.00031598
     atom   25 type  2   force =     0.00115181    0.00142546    0.00173692
     atom   26 type  2   force =    -0.00115181    0.00142546   -0.00173692
     atom   27 type  2   force =    -0.00115181   -0.00142546   -0.00173692
     atom   28 type  2   force =     0.00115181   -0.00142546    0.00173692
     atom   29 type  4   force =     0.00136549   -0.00214158   -0.00021508
     atom   30 type  4   force =    -0.00136549   -0.00214158    0.00021508
     atom   31 type  4   force =    -0.00136549    0.00214158    0.00021508
     atom   32 type  4   force =     0.00136549    0.00214158   -0.00021508
     atom   33 type  3   force =    -0.00028363   -0.00089008    0.00013942
     atom   34 type  3   force =     0.00028363   -0.00089008   -0.00013942
     atom   35 type  3   force =     0.00028363    0.00089008   -0.00013942
     atom   36 type  3   force =    -0.00028363    0.00089008    0.00013942
     atom   37 type  3   force =    -0.00080104   -0.00022660   -0.00015832
     atom   38 type  3   force =     0.00080104   -0.00022660    0.00015832
     atom   39 type  3   force =     0.00080104    0.00022660    0.00015832
     atom   40 type  3   force =    -0.00080104    0.00022660   -0.00015832
     atom   41 type  3   force =     0.00073602   -0.00128869    0.00141352
     atom   42 type  3   force =    -0.00073602   -0.00128869   -0.00141352
     atom   43 type  3   force =    -0.00073602    0.00128869   -0.00141352
     atom   44 type  3   force =     0.00073602    0.00128869    0.00141352
     atom   45 type  3   force =     0.00209110    0.00064312    0.00169499
     atom   46 type  3   force =    -0.00209110    0.00064312   -0.00169499
     atom   47 type  3   force =    -0.00209110   -0.00064312   -0.00169499
     atom   48 type  3   force =     0.00209110   -0.00064312    0.00169499
     atom   49 type  3   force =    -0.00096868    0.00085815   -0.00179563
     atom   50 type  3   force =     0.00096868    0.00085815    0.00179563
     atom   51 type  3   force =     0.00096868   -0.00085815    0.00179563
     atom   52 type  3   force =    -0.00096868   -0.00085815   -0.00179563

     Total force =     0.016787     Total SCF correction =     0.000104


     Computing stress (Cartesian axis) and pressure

          total   stress  (Ry/bohr**3)                   (kbar)     P=    3.00
   0.00001102   0.00000000   0.00000418          1.62      0.00      0.61
   0.00000000   0.00003902   0.00000000          0.00      5.74      0.00
   0.00000418   0.00000000   0.00001109          0.61      0.00      1.63


     Writing output data file scf.save
 
     init_run     :     14.52s CPU     15.14s WALL (       1 calls)
     electrons    :    364.11s CPU    376.51s WALL (       1 calls)
     forces       :      7.90s CPU      7.96s WALL (       1 calls)
     stress       :     22.52s CPU     22.55s WALL (       1 calls)

     Called by init_run:
     wfcinit      :      9.42s CPU      9.91s WALL (       1 calls)
     potinit      :      1.84s CPU      1.86s WALL (       1 calls)

     Called by electrons:
     c_bands      :    321.92s CPU    333.08s WALL (      13 calls)
     sum_band     :     36.49s CPU     37.47s WALL (      13 calls)
     v_of_rho     :      0.75s CPU      0.85s WALL (      14 calls)
     newd         :      1.69s CPU      1.72s WALL (      14 calls)
     PAW_pot      :      3.00s CPU      3.00s WALL (      14 calls)
     mix_rho      :      0.16s CPU      0.17s WALL (      13 calls)

     Called by c_bands:
     init_us_2    :      2.33s CPU      2.34s WALL (     290 calls)
     cegterg      :    313.47s CPU    324.58s WALL (     130 calls)

     Called by sum_band:
     sum_band:bec :      0.03s CPU      0.03s WALL (     130 calls)
     addusdens    :      1.59s CPU      1.62s WALL (      13 calls)

     Called by *egterg:
     h_psi        :    181.38s CPU    188.71s WALL (     623 calls)
     s_psi        :     30.66s CPU     30.67s WALL (     623 calls)
     g_psi        :      1.12s CPU      1.12s WALL (     483 calls)
     cdiaghg      :     24.33s CPU     24.49s WALL (     613 calls)

     Called by h_psi:
     h_psi:pot    :    180.11s CPU    187.42s WALL (     623 calls)
     h_psi:calbec :     30.53s CPU     30.63s WALL (     623 calls)
     vloc_psi     :    118.95s CPU    126.11s WALL (     623 calls)
     add_vuspsi   :     30.63s CPU     30.67s WALL (     623 calls)

     General routines
     calbec       :     45.55s CPU     45.71s WALL (     803 calls)
     fft          :      0.49s CPU      0.68s WALL (     206 calls)
     fftw         :    127.94s CPU    135.79s WALL (   98616 calls)
 
     Parallel routines
     fft_scatter  :     30.85s CPU     35.05s WALL (   98822 calls)
 
     PWSCF        :  6m53.98s CPU     7m 8.35s WALL

 
   This run was terminated on:   5:52: 8   4Nov2017            

=------------------------------------------------------------------------------=
   JOB DONE.
=------------------------------------------------------------------------------=
