
     Program PWSCF v.6.1 (svn rev. 13369) starts on 10Dec2017 at 21:33:30 

     This program is part of the open-source Quantum ESPRESSO suite
     for quantum simulation of materials; please cite
         "P. Giannozzi et al., J. Phys.:Condens. Matter 21 395502 (2009);
          URL http://www.quantum-espresso.org", 
     in publications or presentations arising from this work. More details at
     http://www.quantum-espresso.org/quote

     Parallel version (MPI), running on     8 processors
     R & G space division:  proc/nbgrp/npool/nimage =       8
     Waiting for input...
     Reading input from standard input

     Current dimensions of program PWSCF are:
     Max number of different atomic species (ntypx) = 10
     Max number of k-points (npk) =  40000
     Max angular momentum in pseudopotentials (lmaxx) =  3
               file C.pbe-n-kjpaw_psl.0.1.UPF: wavefunction(s)  2P renormalized
               file N.pbe-n-kjpaw_psl.0.1.UPF: wavefunction(s)  2P renormalized
               file H.pbe-kjpaw_psl.0.1.UPF: wavefunction(s)  1S renormalized
               file O.pbe-n-kjpaw_psl.0.1.UPF: wavefunction(s)  2P renormalized

     -------------------------------------
     Parameters for Dispersion Correction:
     -------------------------------------
       atom      VdW radius       C_6     

        C          2.744         60.710
        N          2.640         42.670
        H          1.892          4.857
        O          2.536         24.284

     Subspace diagonalization in iterative solution of the eigenvalue problem:
     a serial algorithm will be used

 
     Parallelization info
     --------------------
     sticks:   dense  smooth     PW     G-vecs:    dense   smooth      PW
     Min         688     688    185                55750    55750    7784
     Max         689     689    186                55753    55753    7787
     Sum        5507    5507   1483               446011   446011   62279
 


     bravais-lattice index     =            0
     lattice parameter (alat)  =       9.9139  a.u.
     unit-cell volume          =    3300.9596 (a.u.)^3
     number of atoms/cell      =           50
     number of atomic types    =            4
     number of electrons       =       172.00
     number of Kohn-Sham states=          103
     kinetic-energy cutoff     =     100.0000  Ry
     charge density cutoff     =     400.0000  Ry
     convergence threshold     =      1.0E-08
     mixing beta               =       0.5000
     number of iterations used =            8  plain     mixing
     Exchange-correlation      =  SLA  PW   PBX  PBC ( 1  4  3  4 0 0)

     celldm(1)=   9.913881  celldm(2)=   0.000000  celldm(3)=   0.000000
     celldm(4)=   0.000000  celldm(5)=   0.000000  celldm(6)=   0.000000

     crystal axes: (cart. coord. in units of alat)
               a(1) = (   1.000000   0.000000   0.000000 )  
               a(2) = (   0.082770   1.759711   0.000000 )  
               a(3) = (   0.298158   0.024270   1.925164 )  

     reciprocal axes: (cart. coord. in units 2 pi/alat)
               b(1) = (  1.000000 -0.047036 -0.154281 )  
               b(2) = (  0.000000  0.568275 -0.007164 )  
               b(3) = (  0.000000  0.000000  0.519436 )  


     PseudoPot. # 1 for  C read from file:
     /scratch/ahofstet/pseudo/C.pbe-n-kjpaw_psl.0.1.UPF
     MD5 check sum: 430fe95172b1e11ef3f8ed03bac87931
     Pseudo is Projector augmented-wave + core cor, Zval =  4.0
     Generated using "atomic" code by A. Dal Corso  v.5.0.99 svn rev. 10869
     Shape of augmentation charge: BESSEL
     Using radial grid of 1073 points,  4 beta functions with: 
                l(1) =   0
                l(2) =   0
                l(3) =   1
                l(4) =   1
     Q(r) pseudized with 0 coefficients 


     PseudoPot. # 2 for  N read from file:
     /scratch/ahofstet/pseudo/N.pbe-n-kjpaw_psl.0.1.UPF
     MD5 check sum: f73187c8b701007e77325f868c9291d7
     Pseudo is Projector augmented-wave + core cor, Zval =  5.0
     Generated using "atomic" code by A. Dal Corso  v.5.0.99 svn rev. 10869
     Shape of augmentation charge: PSQ
     Using radial grid of 1085 points,  4 beta functions with: 
                l(1) =   0
                l(2) =   0
                l(3) =   1
                l(4) =   1
     Q(r) pseudized with 0 coefficients 


     PseudoPot. # 3 for  H read from file:
     /scratch/ahofstet/pseudo/H.pbe-kjpaw_psl.0.1.UPF
     MD5 check sum: 94e484f906d9e9773b2f6e52662335b2
     Pseudo is Projector augmented-wave, Zval =  1.0
     Generated using "atomic" code by A. Dal Corso  v.5.0.99 svn rev. 10869
     Shape of augmentation charge: PSQ
     Using radial grid of  929 points,  2 beta functions with: 
                l(1) =   0
                l(2) =   0
     Q(r) pseudized with 0 coefficients 


     PseudoPot. # 4 for  O read from file:
     /scratch/ahofstet/pseudo/O.pbe-n-kjpaw_psl.0.1.UPF
     MD5 check sum: 3f94a2996a3169367d6eb21d9b593f20
     Pseudo is Projector augmented-wave + core cor, Zval =  6.0
     Generated using "atomic" code by A. Dal Corso  v.5.0.99 svn rev. 10869
     Shape of augmentation charge: BESSEL
     Using radial grid of 1095 points,  4 beta functions with: 
                l(1) =   0
                l(2) =   0
                l(3) =   1
                l(4) =   1
     Q(r) pseudized with 0 coefficients 


     atomic species   valence    mass     pseudopotential
        C              4.00    12.01070      C( 1.00)
        N              5.00    14.00670      N( 1.00)
        H              1.00     1.00794      H( 1.00)
        O              6.00    15.99940      O( 1.00)

      2 Sym. Ops., with inversion, found



   Cartesian axes

     site n.     atom                  positions (alat units)
         1           O   tau(   1) = (   0.5352323   1.4700217   1.8522576  )
         2           O   tau(   2) = (   0.8456962   0.3139586   0.0729069  )
         3           O   tau(   3) = (   1.2018699   1.1974854   1.7970016  )
         4           O   tau(   4) = (   0.1790586   0.5864949   0.1281629  )
         5           N   tau(   5) = (   0.6518770   1.4664184   1.3781213  )
         6           N   tau(   6) = (   0.7290515   0.3175618   0.5470432  )
         7           N   tau(   7) = (   0.4544506   1.1072154   1.0238110  )
         8           N   tau(   8) = (   0.9264778   0.6767648   0.9013535  )
         9           N   tau(   9) = (   0.7271365   1.4491032   1.1387126  )
        10           N   tau(  10) = (   0.6537920   0.3348770   0.7864519  )
        11           N   tau(  11) = (   1.1516615   0.9884052   1.3162748  )
        12           N   tau(  12) = (   0.2292670   0.7955750   0.6088897  )
        13           C   tau(  13) = (   0.4690492   1.3076757   1.4430360  )
        14           C   tau(  14) = (   0.9118793   0.4763045   0.4821285  )
        15           N   tau(  15) = (   0.7896465   1.2886124   0.7597378  )
        16           N   tau(  16) = (   0.5912820   0.4953678   1.1654266  )
        17           C   tau(  17) = (   0.3539815   1.1287790   1.2592131  )
        18           C   tau(  18) = (   1.0269470   0.6552013   0.6659513  )
        19           O   tau(  19) = (   0.6662636   0.9748462   0.3310290  )
        20           O   tau(  20) = (   0.7146649   0.8091340   1.5941354  )
        21           C   tau(  21) = (   0.3857666   1.3181663   1.7169734  )
        22           C   tau(  22) = (   0.9951619   0.4658140   0.2081910  )
        23           N   tau(  23) = (   0.9579988   1.4814974   0.8100047  )
        24           N   tau(  24) = (   0.4229297   0.3024828   1.1151598  )
        25           N   tau(  25) = (   0.9276921   1.5802825   1.0347617  )
        26           N   tau(  26) = (   0.4532364   0.2036977   0.8904028  )
        27           C   tau(  27) = (   0.6435125   1.2683245   0.9667613  )
        28           C   tau(  28) = (   0.7374160   0.5156558   0.9584032  )
        29           C   tau(  29) = (   0.4180471   1.6236832   0.3001381  )
        30           C   tau(  30) = (   0.9628814   0.1602970   1.6250264  )
        31           C   tau(  31) = (   0.2002689   1.4648720   0.2034556  )
        32           C   tau(  32) = (   1.1806596   0.3191082   1.7217089  )
        33           H   tau(  33) = (   0.1992985   1.2708873   0.2826334  )
        34           H   tau(  34) = (   1.1816300   0.5130930   1.6425311  )
        35           H   tau(  35) = (   0.4041068   1.6467189   0.5073913  )
        36           H   tau(  36) = (   0.9768217   0.1372614   1.4177732  )
        37           H   tau(  37) = (   1.0771639   0.8704737   1.1767656  )
        38           H   tau(  38) = (   0.3037646   0.9135065   0.7483989  )
        39           H   tau(  39) = (   1.0094288   1.5535243   0.2413941  )
        40           H   tau(  40) = (   0.3714996   0.2304559   1.6837704  )
        41           H   tau(  41) = (   1.0697647   0.9914302   1.4932738  )
        42           H   tau(  42) = (   0.3111638   0.7925501   0.4318907  )
        43           H   tau(  43) = (   0.6039130   1.5300637   0.2551265  )
        44           H   tau(  44) = (   0.7770155   0.2539165   1.6700380  )
        45           H   tau(  45) = (   0.3384517   0.0534227   0.2112835  )
        46           H   tau(  46) = (   1.0424768   1.7305575   1.7138810  )
        47           H   tau(  47) = (   0.7404911   1.0423891   0.1740011  )
        48           H   tau(  48) = (   0.6404374   0.7415911   1.7511634  )
        49           H   tau(  49) = (   0.7238625   1.0927704   0.4664665  )
        50           H   tau(  50) = (   0.6570660   0.6912098   1.4586980  )

     number of k points=    12
                       cart. coord. in units 2pi/alat
        k(    1) = (   0.0000000   0.0000000   0.0000000), wk =   0.1250000
        k(    2) = (   0.0000000   0.0000000  -0.2597181), wk =   0.1250000
        k(    3) = (   0.0000000  -0.2841376   0.0035820), wk =   0.1250000
        k(    4) = (   0.0000000  -0.2841376  -0.2561361), wk =   0.1250000
        k(    5) = (   0.2500000  -0.0117591  -0.0385703), wk =   0.2500000
        k(    6) = (   0.2500000  -0.0117591  -0.2982884), wk =   0.2500000
        k(    7) = (   0.2500000  -0.2958967  -0.0349883), wk =   0.2500000
        k(    8) = (   0.2500000  -0.2958967  -0.2947064), wk =   0.2500000
        k(    9) = (  -0.5000000   0.0235182   0.0771406), wk =   0.1250000
        k(   10) = (  -0.5000000   0.0235182  -0.1825775), wk =   0.1250000
        k(   11) = (  -0.5000000  -0.2606195   0.0807226), wk =   0.1250000
        k(   12) = (  -0.5000000  -0.2606195  -0.1789955), wk =   0.1250000

     Dense  grid:   446011 G-vectors     FFT dimensions: (  64, 120, 125)

     Estimated max dynamical RAM per process >     299.95MB

     Estimated total allocated dynamical RAM >    2399.57MB

     Check: negative/imaginary core charge=   -0.000002    0.000000

     Initial potential from superposition of free atoms

     starting charge  171.99922, renormalised to  172.00000
     Starting wfc are  146 randomized atomic wfcs
     Checking if some PAW data can be deallocated... 

     total cpu time spent up to now is       17.7 secs

     per-process dynamical memory:   293.1 Mb

     Self-consistent Calculation

     iteration #  1     ecut=   100.00 Ry     beta=0.50
     Davidson diagonalization with overlap
     ethr =  1.00E-02,  avg # of iterations =  3.0

     total cpu time spent up to now is       53.4 secs

     total energy              =    -886.42771554 Ry
     Harris-Foulkes estimate   =    -889.10004693 Ry
     estimated scf accuracy    <       4.97886637 Ry

     iteration #  2     ecut=   100.00 Ry     beta=0.50
     Davidson diagonalization with overlap
     ethr =  2.89E-03,  avg # of iterations =  3.5

     total cpu time spent up to now is       78.4 secs

     total energy              =    -887.16240778 Ry
     Harris-Foulkes estimate   =    -887.65780744 Ry
     estimated scf accuracy    <       1.02635439 Ry

     iteration #  3     ecut=   100.00 Ry     beta=0.50
     Davidson diagonalization with overlap
     ethr =  5.97E-04,  avg # of iterations =  5.8

     total cpu time spent up to now is      109.5 secs

     total energy              =    -887.42183427 Ry
     Harris-Foulkes estimate   =    -887.56573784 Ry
     estimated scf accuracy    <       0.35255033 Ry

     iteration #  4     ecut=   100.00 Ry     beta=0.50
     Davidson diagonalization with overlap
     ethr =  2.05E-04,  avg # of iterations =  5.2

     total cpu time spent up to now is      133.4 secs

     total energy              =    -887.47390502 Ry
     Harris-Foulkes estimate   =    -887.49307776 Ry
     estimated scf accuracy    <       0.05220985 Ry

     iteration #  5     ecut=   100.00 Ry     beta=0.50
     Davidson diagonalization with overlap
     ethr =  3.04E-05,  avg # of iterations =  8.2

     total cpu time spent up to now is      171.1 secs

     total energy              =    -887.49048202 Ry
     Harris-Foulkes estimate   =    -887.49472525 Ry
     estimated scf accuracy    <       0.01178978 Ry

     iteration #  6     ecut=   100.00 Ry     beta=0.50
     Davidson diagonalization with overlap
     ethr =  6.85E-06,  avg # of iterations =  3.4

     total cpu time spent up to now is      192.7 secs

     total energy              =    -887.49092292 Ry
     Harris-Foulkes estimate   =    -887.49184610 Ry
     estimated scf accuracy    <       0.00208079 Ry

     iteration #  7     ecut=   100.00 Ry     beta=0.50
     Davidson diagonalization with overlap
     ethr =  1.21E-06,  avg # of iterations =  6.9

     total cpu time spent up to now is      231.7 secs

     total energy              =    -887.49224624 Ry
     Harris-Foulkes estimate   =    -887.49252860 Ry
     estimated scf accuracy    <       0.00098209 Ry

     iteration #  8     ecut=   100.00 Ry     beta=0.50
     Davidson diagonalization with overlap
     ethr =  5.71E-07,  avg # of iterations =  2.0

     total cpu time spent up to now is      251.9 secs

     total energy              =    -887.49212770 Ry
     Harris-Foulkes estimate   =    -887.49232365 Ry
     estimated scf accuracy    <       0.00038352 Ry

     iteration #  9     ecut=   100.00 Ry     beta=0.50
     Davidson diagonalization with overlap
     ethr =  2.23E-07,  avg # of iterations =  4.0

     total cpu time spent up to now is      279.5 secs

     total energy              =    -887.49228626 Ry
     Harris-Foulkes estimate   =    -887.49229157 Ry
     estimated scf accuracy    <       0.00004838 Ry

     iteration # 10     ecut=   100.00 Ry     beta=0.50
     Davidson diagonalization with overlap
     ethr =  2.81E-08,  avg # of iterations =  2.1

     total cpu time spent up to now is      299.9 secs

     total energy              =    -887.49227258 Ry
     Harris-Foulkes estimate   =    -887.49229002 Ry
     estimated scf accuracy    <       0.00003477 Ry

     iteration # 11     ecut=   100.00 Ry     beta=0.50
     Davidson diagonalization with overlap
     ethr =  2.02E-08,  avg # of iterations =  4.0

     total cpu time spent up to now is      325.3 secs

     total energy              =    -887.49228103 Ry
     Harris-Foulkes estimate   =    -887.49228135 Ry
     estimated scf accuracy    <       0.00000101 Ry

     iteration # 12     ecut=   100.00 Ry     beta=0.50
     Davidson diagonalization with overlap
     ethr =  5.87E-10,  avg # of iterations =  4.0

     total cpu time spent up to now is      359.4 secs

     total energy              =    -887.49228150 Ry
     Harris-Foulkes estimate   =    -887.49228163 Ry
     estimated scf accuracy    <       0.00000031 Ry

     iteration # 13     ecut=   100.00 Ry     beta=0.50
     Davidson diagonalization with overlap
     ethr =  1.80E-10,  avg # of iterations =  3.4

     total cpu time spent up to now is      384.5 secs

     total energy              =    -887.49228156 Ry
     Harris-Foulkes estimate   =    -887.49228159 Ry
     estimated scf accuracy    <       0.00000006 Ry

     iteration # 14     ecut=   100.00 Ry     beta=0.50
     Davidson diagonalization with overlap
     ethr =  3.73E-11,  avg # of iterations =  3.1

     total cpu time spent up to now is      407.0 secs

     End of self-consistent calculation

          k = 0.0000 0.0000 0.0000 ( 55737 PWs)   bands (ev):

   -22.5647 -22.5128 -21.3490 -21.3339 -19.7950 -19.7806 -19.1749 -19.1561
   -18.2374 -18.0885 -17.5792 -17.5677 -16.5403 -16.5161 -15.7148 -15.7104
   -14.7307 -14.6727 -12.7042 -12.6867 -11.6559 -11.5906 -10.4965 -10.3693
   -10.1601 -10.1159  -9.2172  -9.1854  -8.5636  -8.4955  -7.8553  -7.7978
    -7.3546  -7.3103  -6.6505  -6.5688  -6.5192  -6.3283  -6.2410  -6.1732
    -5.7209  -5.6825  -5.4981  -5.3536  -5.3234  -5.1876  -4.8684  -4.8201
    -4.3103  -4.2854  -3.6636  -3.5730  -3.3476  -3.2680  -3.2365  -3.2057
    -3.1336  -3.0303  -2.5801  -2.4177  -2.2058  -2.0933  -2.0417  -1.9512
    -1.9100  -1.8597  -1.8339  -1.6756  -1.6123  -1.4737  -1.2380  -1.0011
    -0.9492  -0.8243  -0.7243  -0.6696  -0.5947  -0.5307  -0.2807  -0.2486
    -0.0115   0.0998   0.1725   0.2539   0.6046   0.6909   3.1370   3.1868
     4.5936   4.6890   5.3034   5.3514   6.3668   6.4096   6.7466   7.8213
     7.9538   8.2405   8.2599   8.4538   8.4925   8.5956   8.7650

          k = 0.0000 0.0000-0.2597 ( 55712 PWs)   bands (ev):

   -22.5645 -22.5127 -21.3492 -21.3346 -19.7939 -19.7799 -19.1732 -19.1575
   -18.2418 -18.0864 -17.5847 -17.5590 -16.5446 -16.5154 -15.7170 -15.7116
   -14.7321 -14.6741 -12.6642 -12.6554 -11.7041 -11.6367 -10.4856 -10.3736
   -10.1602 -10.1201  -9.2036  -9.1874  -8.5532  -8.4952  -7.7901  -7.7823
    -7.3929  -7.3324  -6.6590  -6.5855  -6.5415  -6.3249  -6.1832  -6.0907
    -5.7831  -5.7011  -5.5224  -5.4240  -5.3975  -5.2060  -4.7424  -4.7246
    -4.3025  -4.2742  -3.7388  -3.5301  -3.4412  -3.3185  -3.3021  -3.2005
    -3.0771  -2.9653  -2.5629  -2.4332  -2.2374  -2.0887  -2.0243  -1.9539
    -1.9080  -1.8533  -1.7305  -1.6916  -1.5858  -1.5173  -1.2339  -1.0030
    -0.9716  -0.9406  -0.6759  -0.6378  -0.5909  -0.4525  -0.3354  -0.2869
    -0.0225   0.1346   0.1475   0.3090   0.5841   0.7043   3.1210   3.1759
     4.5317   4.6949   5.3531   5.3643   6.3714   6.3976   6.8862   7.5217
     8.0522   8.1515   8.2926   8.3281   8.5982   8.7506   8.8359

          k = 0.0000-0.2841 0.0036 ( 55778 PWs)   bands (ev):

   -22.5620 -22.5156 -21.3453 -21.3377 -19.7928 -19.7826 -19.1676 -19.1634
   -18.2342 -18.0917 -17.5797 -17.5676 -16.5538 -16.5005 -15.7309 -15.6963
   -14.7246 -14.6789 -12.6993 -12.6912 -11.6481 -11.6023 -10.4809 -10.3655
   -10.1517 -10.1384  -9.2138  -9.1978  -8.5559  -8.5008  -7.8468  -7.7982
    -7.3687  -7.2986  -6.6211  -6.5353  -6.5181  -6.3810  -6.2257  -6.2087
    -5.6904  -5.6690  -5.5537  -5.3660  -5.3207  -5.1839  -4.8613  -4.8167
    -4.3450  -4.2468  -3.6806  -3.4720  -3.4441  -3.2371  -3.1791  -3.1600
    -3.1448  -3.1056  -2.5827  -2.4359  -2.3001  -2.0840  -2.0529  -1.9323
    -1.8783  -1.7863  -1.7728  -1.7044  -1.5786  -1.5354  -1.2094  -1.0465
    -1.0152  -0.8484  -0.6713  -0.6454  -0.6193  -0.4832  -0.2776  -0.2496
    -0.1070   0.0969   0.1816   0.3268   0.5746   0.7156   3.0922   3.2080
     4.6007   4.6581   5.3174   5.3512   6.3704   6.4073   7.0154   7.4697
     8.0748   8.0939   8.2277   8.3085   8.5424   8.5844   8.7278

          k = 0.0000-0.2841-0.2561 ( 55736 PWs)   bands (ev):

   -22.5619 -22.5155 -21.3453 -21.3385 -19.7922 -19.7814 -19.1660 -19.1647
   -18.2386 -18.0898 -17.5851 -17.5589 -16.5581 -16.4997 -15.7337 -15.6968
   -14.7281 -14.6784 -12.6640 -12.6558 -11.6969 -11.6407 -10.5013 -10.3667
   -10.1742 -10.1041  -9.2061  -9.1746  -8.5504  -8.5004  -7.7905  -7.7873
    -7.4031  -7.3239  -6.6588  -6.5471  -6.5111  -6.3623  -6.2483  -6.0594
    -5.7776  -5.6930  -5.5231  -5.4511  -5.3905  -5.2166  -4.7534  -4.7198
    -4.3377  -4.1985  -3.7147  -3.6013  -3.4032  -3.3471  -3.2895  -3.1485
    -3.0655  -2.9860  -2.5641  -2.4304  -2.2246  -2.0634  -2.0438  -1.9620
    -1.9093  -1.8559  -1.7790  -1.7044  -1.5679  -1.5648  -1.1819  -1.1224
    -0.9840  -0.7859  -0.6886  -0.6558  -0.5782  -0.4387  -0.3098  -0.2955
    -0.0587   0.1326   0.1633   0.3068   0.5595   0.7289   3.0458   3.2267
     4.5607   4.6467   5.3520   5.3752   6.3493   6.4234   7.1164   7.6108
     7.7560   7.9750   8.0641   8.4042   8.6110   8.6418   8.8718

          k = 0.2500-0.0118-0.0386 ( 55711 PWs)   bands (ev):

   -22.5599 -22.5092 -21.3464 -21.3322 -19.8008 -19.7828 -19.1768 -19.1607
   -18.2197 -18.1040 -17.5771 -17.5690 -16.5632 -16.5127 -15.7283 -15.7096
   -14.7186 -14.6649 -12.6802 -12.6561 -11.6680 -11.6071 -10.4913 -10.3658
   -10.1731 -10.1203  -9.2292  -9.1965  -8.5643  -8.4933  -7.8289  -7.8067
    -7.4477  -7.3171  -6.7419  -6.5651  -6.5410  -6.3950  -6.2542  -6.1350
    -5.7720  -5.6592  -5.5894  -5.4021  -5.3603  -5.2229  -4.7967  -4.7802
    -4.2734  -4.1441  -3.7365  -3.4926  -3.3651  -3.3171  -3.2442  -3.1947
    -3.1079  -3.0141  -2.5384  -2.4128  -2.2014  -2.1082  -1.9648  -1.8795
    -1.8617  -1.8138  -1.7014  -1.6546  -1.5410  -1.4999  -1.1663  -1.0023
    -0.8257  -0.7897  -0.6714  -0.6304  -0.5413  -0.5044  -0.3058  -0.2696
    -0.0334   0.1545   0.1725   0.2808   0.5219   0.6215   3.0501   3.1826
     4.6633   4.7359   5.2856   5.3232   6.3537   6.3709   7.0197   7.8486
     8.1341   8.2412   8.3426   8.4225   8.6003   8.6330   8.6984

          k = 0.2500-0.0118-0.2983 ( 55744 PWs)   bands (ev):

   -22.5599 -22.5092 -21.3465 -21.3323 -19.8007 -19.7827 -19.1756 -19.1620
   -18.2203 -18.1027 -17.5852 -17.5613 -16.5647 -16.5116 -15.7288 -15.7103
   -14.7193 -14.6630 -12.6742 -12.6538 -11.6725 -11.6225 -10.4841 -10.3702
   -10.1536 -10.1249  -9.2185  -9.2042  -8.5634  -8.4952  -7.8446  -7.8265
    -7.4356  -7.3054  -6.7476  -6.5786  -6.5301  -6.3883  -6.2396  -6.1356
    -5.7259  -5.7102  -5.5813  -5.4057  -5.3557  -5.2085  -4.8078  -4.7732
    -4.2902  -4.2249  -3.6897  -3.5717  -3.3193  -3.2564  -3.2457  -3.2172
    -3.0849  -2.9698  -2.5576  -2.4016  -2.1920  -2.0897  -2.0089  -1.9023
    -1.8501  -1.8066  -1.6923  -1.6259  -1.5627  -1.5189  -1.1802  -0.9880
    -0.8816  -0.8287  -0.6431  -0.6260  -0.5709  -0.4328  -0.2962  -0.2633
    -0.0406   0.1544   0.1853   0.2804   0.5007   0.6329   3.0586   3.1780
     4.6133   4.7633   5.2912   5.3456   6.3319   6.3532   7.1343   7.6477
     8.1114   8.2496   8.2647   8.3990   8.4629   8.6327   8.6743

          k = 0.2500-0.2959-0.0350 ( 55716 PWs)   bands (ev):

   -22.5576 -22.5116 -21.3428 -21.3359 -19.7965 -19.7871 -19.1706 -19.1668
   -18.2180 -18.1050 -17.5772 -17.5690 -16.5609 -16.5163 -15.7313 -15.7058
   -14.7127 -14.6708 -12.6809 -12.6553 -11.6591 -11.6181 -10.4903 -10.3617
   -10.1594 -10.1374  -9.2231  -9.2022  -8.5661  -8.4902  -7.8551  -7.7881
    -7.4047  -7.3582  -6.6965  -6.5654  -6.5197  -6.4662  -6.2650  -6.1148
    -5.7469  -5.6672  -5.6076  -5.3805  -5.3768  -5.2541  -4.7993  -4.7719
    -4.2368  -4.1595  -3.6551  -3.5977  -3.3733  -3.3261  -3.2277  -3.1526
    -3.1215  -2.9986  -2.5460  -2.4278  -2.2107  -2.0432  -1.9953  -1.9425
    -1.8194  -1.7804  -1.7028  -1.6440  -1.6022  -1.4895  -1.1555  -1.0382
    -0.8891  -0.7381  -0.6804  -0.6125  -0.5513  -0.4419  -0.3139  -0.2599
    -0.0398   0.1438   0.1777   0.2882   0.5155   0.6262   3.0527   3.1554
     4.6413   4.7552   5.2757   5.3398   6.2897   6.4407   7.1407   7.7218
     8.0740   8.1159   8.3340   8.3850   8.4088   8.7441   8.8221

          k = 0.2500-0.2959-0.2947 ( 55753 PWs)   bands (ev):

   -22.5576 -22.5116 -21.3429 -21.3360 -19.7964 -19.7870 -19.1703 -19.1673
   -18.2187 -18.1036 -17.5854 -17.5613 -16.5616 -16.5161 -15.7320 -15.7062
   -14.7141 -14.6682 -12.6735 -12.6547 -11.6804 -11.6125 -10.4929 -10.3644
   -10.1762 -10.1013  -9.2257  -9.1976  -8.5663  -8.4916  -7.8599  -7.8096
    -7.4038  -7.3440  -6.7080  -6.5548  -6.5173  -6.4563  -6.2492  -6.1357
    -5.7200  -5.6953  -5.5989  -5.3967  -5.3639  -5.2359  -4.7951  -4.7710
    -4.3038  -4.1851  -3.7318  -3.4791  -3.4304  -3.3208  -3.1751  -3.1516
    -3.0804  -2.9705  -2.5634  -2.4071  -2.1982  -2.0444  -1.9966  -1.9270
    -1.8792  -1.7918  -1.6957  -1.6642  -1.5932  -1.4998  -1.1515  -1.0262
    -0.9466  -0.7680  -0.6768  -0.5676  -0.5520  -0.4259  -0.2887  -0.2677
    -0.0411   0.1499   0.1897   0.2796   0.4979   0.6363   3.0414   3.1706
     4.6252   4.7489   5.2992   5.3464   6.2828   6.3978   7.2789   7.6320
     7.7954   8.1303   8.2252   8.4173   8.5154   8.6530   8.8907

          k =-0.5000 0.0235 0.0771 ( 55750 PWs)   bands (ev):

   -22.5552 -22.5056 -21.3439 -21.3305 -19.8067 -19.7851 -19.1787 -19.1653
   -18.1920 -18.1298 -17.5801 -17.5642 -16.5804 -16.5156 -15.7382 -15.7119
   -14.6947 -14.6694 -12.6546 -12.6258 -11.6806 -11.6232 -10.4908 -10.3572
   -10.1872 -10.1222  -9.2364  -9.2178  -8.5698  -8.4878  -7.8108  -7.8054
    -7.5041  -7.3609  -6.8234  -6.5671  -6.5360  -6.4846  -6.2467  -6.0990
    -5.7463  -5.7275  -5.6722  -5.4461  -5.3818  -5.2480  -4.7396  -4.7281
    -4.2343  -4.0646  -3.7400  -3.4326  -3.3931  -3.3750  -3.3133  -3.1579
    -3.1145  -2.9592  -2.5056  -2.4184  -2.2130  -1.9612  -1.9430  -1.8692
    -1.8133  -1.7711  -1.6044  -1.6000  -1.4976  -1.4884  -1.0777  -1.0427
    -0.7774  -0.7003  -0.6526  -0.5881  -0.4445  -0.3994  -0.3395  -0.2735
    -0.0355   0.1604   0.2116   0.2850   0.4519   0.5188   2.9907   3.1575
     4.7319   4.7870   5.2707   5.3041   6.3259   6.3601   7.5729   7.7160
     7.8380   8.3175   8.3836   8.5022   8.5907   8.6480   8.8847

          k =-0.5000 0.0235-0.1826 ( 55750 PWs)   bands (ev):

   -22.5553 -22.5056 -21.3438 -21.3300 -19.8074 -19.7858 -19.1779 -19.1666
   -18.1901 -18.1274 -17.5804 -17.5691 -16.5774 -16.5152 -15.7368 -15.7123
   -14.6943 -14.6646 -12.6817 -12.6537 -11.6365 -11.6130 -10.4893 -10.3586
   -10.1394 -10.1366  -9.2325  -9.2235  -8.5774  -8.4896  -7.9185  -7.8603
    -7.4492  -7.3057  -6.8336  -6.5541  -6.5298  -6.4440  -6.2306  -6.2208
    -5.7474  -5.6565  -5.6493  -5.3477  -5.3298  -5.2042  -4.8867  -4.8221
    -4.3115  -4.1549  -3.7127  -3.4489  -3.2955  -3.2534  -3.2375  -3.1641
    -3.0878  -2.9774  -2.5506  -2.3781  -2.1513  -2.0362  -1.9539  -1.9477
    -1.7997  -1.7066  -1.6826  -1.5872  -1.5187  -1.4977  -1.0985  -1.0410
    -0.7768  -0.7301  -0.6177  -0.5685  -0.4721  -0.4527  -0.2552  -0.2281
    -0.0483   0.1968   0.1985   0.2339   0.4319   0.5315   3.0138   3.1704
     4.6996   4.8431   5.2519   5.3020   6.2884   6.3096   7.6224   7.8087
     7.9785   8.0556   8.2663   8.3372   8.4476   8.5915   8.6892

          k =-0.5000-0.2606 0.0807 ( 55780 PWs)   bands (ev):

   -22.5532 -22.5076 -21.3404 -21.3341 -19.7996 -19.7923 -19.1728 -19.1711
   -18.1937 -18.1268 -17.5801 -17.5642 -16.5701 -16.5295 -15.7267 -15.7203
   -14.7107 -14.6536 -12.6574 -12.6230 -11.6690 -11.6350 -10.4941 -10.3658
   -10.1605 -10.1420  -9.2255  -9.2169  -8.5699  -8.4893  -7.8396  -7.7948
    -7.4645  -7.3902  -6.7662  -6.6013  -6.5649  -6.5056  -6.2393  -6.0808
    -5.7438  -5.7159  -5.6566  -5.4296  -5.3900  -5.3021  -4.7575  -4.7262
    -4.1908  -4.0631  -3.6434  -3.6092  -3.3481  -3.2894  -3.2709  -3.2499
    -3.1211  -2.9595  -2.5034  -2.4353  -2.1309  -1.9945  -1.9858  -1.9254
    -1.7721  -1.7668  -1.6398  -1.5799  -1.5111  -1.4784  -1.1470  -1.0032
    -0.7761  -0.6548  -0.6321  -0.5589  -0.5249  -0.3432  -0.3167  -0.2808
     0.0307   0.1589   0.1977   0.2293   0.4181   0.5511   3.0158   3.1106
     4.6939   4.8385   5.2668   5.3065   6.2367   6.4541   7.4781   7.6921
     7.9055   8.2200   8.2551   8.3483   8.6294   8.7654   8.8309

          k =-0.5000-0.2606-0.1790 ( 55768 PWs)   bands (ev):

   -22.5533 -22.5076 -21.3405 -21.3334 -19.8000 -19.7933 -19.1724 -19.1720
   -18.1921 -18.1242 -17.5804 -17.5691 -16.5671 -16.5290 -15.7259 -15.7202
   -14.7108 -14.6482 -12.6807 -12.6550 -11.6619 -11.5870 -10.4755 -10.3706
   -10.1811 -10.0963  -9.2445  -9.2213  -8.5750  -8.4896  -7.9160  -7.8484
    -7.4159  -7.3481  -6.7714  -6.5962  -6.5081  -6.4947  -6.2357  -6.2229
    -5.7086  -5.6762  -5.6291  -5.3417  -5.3366  -5.2668  -4.8654  -4.8175
    -4.2584  -4.2276  -3.6496  -3.4067  -3.3813  -3.2448  -3.1793  -3.1639
    -3.0911  -3.0025  -2.5744  -2.3828  -2.1980  -2.0278  -1.9674  -1.8835
    -1.8284  -1.7360  -1.6038  -1.5763  -1.5413  -1.5079  -1.1634  -1.0061
    -0.7578  -0.7412  -0.6521  -0.5804  -0.4457  -0.3916  -0.2642  -0.2411
    -0.0270   0.1819   0.2039   0.2429   0.3969   0.5595   3.0506   3.1118
     4.6954   4.8640   5.2365   5.3192   6.1986   6.3919   7.5901   7.6897
     7.8787   7.8823   8.4134   8.4282   8.4737   8.4997   8.8646

     highest occupied, lowest unoccupied level (ev):     0.7289    2.9907

!    total energy              =    -887.49228157 Ry
     Harris-Foulkes estimate   =    -887.49228158 Ry
     estimated scf accuracy    <          9.1E-09 Ry

     total all-electron energy =     -3371.925991 Ry

     The total energy is the sum of the following terms:

     one-electron contribution =    -479.71305001 Ry
     hartree contribution      =     306.80013962 Ry
     xc contribution           =    -182.64511767 Ry
     ewald contribution        =    -278.89843557 Ry
     Dispersion Correction     =      -0.21900826 Ry
     one-center paw contrib.   =    -252.81680968 Ry

     convergence has been achieved in  14 iterations

     Forces acting on atoms (cartesian axes, Ry/au):

     atom    1 type  4   force =     0.00001440   -0.00095211   -0.00115801
     atom    2 type  4   force =    -0.00001440    0.00095211    0.00115801
     atom    3 type  4   force =     0.00266439    0.00191118    0.00128706
     atom    4 type  4   force =    -0.00266439   -0.00191118   -0.00128706
     atom    5 type  2   force =    -0.00709119   -0.00044273    0.00694142
     atom    6 type  2   force =     0.00709119    0.00044273   -0.00694142
     atom    7 type  2   force =     0.00520835    0.00946290   -0.00539033
     atom    8 type  2   force =    -0.00520835   -0.00946290    0.00539033
     atom    9 type  2   force =     0.00655074   -0.00941826   -0.00451816
     atom   10 type  2   force =    -0.00655074    0.00941826    0.00451816
     atom   11 type  2   force =     0.00219252    0.00148788   -0.00205892
     atom   12 type  2   force =    -0.00219252   -0.00148788    0.00205892
     atom   13 type  1   force =     0.00129056    0.00434785   -0.00373189
     atom   14 type  1   force =    -0.00129056   -0.00434785    0.00373189
     atom   15 type  2   force =     0.00181933    0.00537070   -0.00290644
     atom   16 type  2   force =    -0.00181933   -0.00537070    0.00290644
     atom   17 type  1   force =    -0.00312686    0.00225763   -0.00055515
     atom   18 type  1   force =     0.00312686   -0.00225763    0.00055515
     atom   19 type  4   force =     0.00084309    0.00010578   -0.00082372
     atom   20 type  4   force =    -0.00084309   -0.00010578    0.00082372
     atom   21 type  1   force =     0.00078876   -0.00073584    0.00311749
     atom   22 type  1   force =    -0.00078876    0.00073584   -0.00311749
     atom   23 type  2   force =    -0.00502260   -0.00499084   -0.00169567
     atom   24 type  2   force =     0.00502260    0.00499084    0.00169567
     atom   25 type  2   force =    -0.00028871   -0.00310051    0.00172538
     atom   26 type  2   force =     0.00028871    0.00310051   -0.00172538
     atom   27 type  1   force =    -0.00368965   -0.00729807    0.00792811
     atom   28 type  1   force =     0.00368965    0.00729807   -0.00792811
     atom   29 type  1   force =     0.02288177   -0.00508882   -0.00197381
     atom   30 type  1   force =    -0.02288177    0.00508882    0.00197381
     atom   31 type  1   force =    -0.02825915    0.00445475    0.00186680
     atom   32 type  1   force =     0.02825915   -0.00445475   -0.00186680
     atom   33 type  3   force =     0.00164398    0.00005492   -0.00060529
     atom   34 type  3   force =    -0.00164398   -0.00005492    0.00060529
     atom   35 type  3   force =    -0.00163392   -0.00014250   -0.00003406
     atom   36 type  3   force =     0.00163392    0.00014250    0.00003406
     atom   37 type  3   force =    -0.00013122    0.00066624    0.00069194
     atom   38 type  3   force =     0.00013122   -0.00066624   -0.00069194
     atom   39 type  3   force =     0.02331833   -0.00839464   -0.00645855
     atom   40 type  3   force =    -0.02331833    0.00839464    0.00645855
     atom   41 type  3   force =     0.00101150    0.00034566   -0.00126614
     atom   42 type  3   force =    -0.00101150   -0.00034566    0.00126614
     atom   43 type  3   force =    -0.02058730    0.00800043    0.00628000
     atom   44 type  3   force =     0.02058730   -0.00800043   -0.00628000
     atom   45 type  3   force =    -0.00136360    0.00015761    0.00087482
     atom   46 type  3   force =     0.00136360   -0.00015761   -0.00087482
     atom   47 type  3   force =     0.00008463    0.00008753   -0.00010397
     atom   48 type  3   force =    -0.00008463   -0.00008753    0.00010397
     atom   49 type  3   force =     0.00010083    0.00000309   -0.00025378
     atom   50 type  3   force =    -0.00010083   -0.00000309    0.00025378

     Total force =     0.081130     Total SCF correction =     0.000205


     Computing stress (Cartesian axis) and pressure

          total   stress  (Ry/bohr**3)                   (kbar)     P=  -10.50
  -0.00011561  -0.00000424   0.00002031        -17.01     -0.62      2.99
  -0.00000424  -0.00007938   0.00000718         -0.62    -11.68      1.06
   0.00002031   0.00000718  -0.00001923          2.99      1.06     -2.83


     Writing output data file scf.save
 
     init_run     :     16.58s CPU     17.08s WALL (       1 calls)
     electrons    :    372.61s CPU    389.49s WALL (       1 calls)
     forces       :      8.55s CPU      8.61s WALL (       1 calls)
     stress       :     31.75s CPU     31.76s WALL (       1 calls)

     Called by init_run:
     wfcinit      :      9.93s CPU     10.37s WALL (       1 calls)
     potinit      :      2.38s CPU      2.40s WALL (       1 calls)

     Called by electrons:
     c_bands      :    324.91s CPU    340.69s WALL (      14 calls)
     sum_band     :     40.77s CPU     41.61s WALL (      14 calls)
     v_of_rho     :      0.96s CPU      1.05s WALL (      15 calls)
     newd         :      1.96s CPU      2.00s WALL (      15 calls)
     PAW_pot      :      3.66s CPU      3.66s WALL (      15 calls)
     mix_rho      :      0.21s CPU      0.23s WALL (      14 calls)

     Called by c_bands:
     init_us_2    :      3.91s CPU      3.92s WALL (     372 calls)
     cegterg      :    311.54s CPU    327.27s WALL (     168 calls)

     Called by sum_band:
     sum_band:bec :      0.03s CPU      0.03s WALL (     168 calls)
     addusdens    :      2.05s CPU      2.08s WALL (      14 calls)

     Called by *egterg:
     h_psi        :    196.69s CPU    207.66s WALL (     885 calls)
     s_psi        :     27.41s CPU     27.41s WALL (     885 calls)
     g_psi        :      1.74s CPU      1.74s WALL (     705 calls)
     cdiaghg      :     24.50s CPU     24.50s WALL (     873 calls)

     Called by h_psi:
     h_psi:pot    :    194.67s CPU    205.61s WALL (     885 calls)
     h_psi:calbec :     24.83s CPU     24.99s WALL (     885 calls)
     vloc_psi     :    142.47s CPU    153.25s WALL (     885 calls)
     add_vuspsi   :     27.37s CPU     27.37s WALL (     885 calls)

     General routines
     calbec       :     36.72s CPU     36.92s WALL (    1113 calls)
     fft          :      0.63s CPU      0.77s WALL (     219 calls)
     fftw         :    152.30s CPU    163.16s WALL (  113846 calls)
 
     Parallel routines
     fft_scatter  :     39.17s CPU     45.70s WALL (  114065 calls)
 
     PWSCF        :  7m14.84s CPU     7m33.49s WALL

 
   This run was terminated on:  21:41: 4  10Dec2017            

=------------------------------------------------------------------------------=
   JOB DONE.
=------------------------------------------------------------------------------=
