
     Program PWSCF v.6.1 (svn rev. 13369) starts on 10Dec2017 at  9: 6:34 

     This program is part of the open-source Quantum ESPRESSO suite
     for quantum simulation of materials; please cite
         "P. Giannozzi et al., J. Phys.:Condens. Matter 21 395502 (2009);
          URL http://www.quantum-espresso.org", 
     in publications or presentations arising from this work. More details at
     http://www.quantum-espresso.org/quote

     Parallel version (MPI), running on     8 processors
     R & G space division:  proc/nbgrp/npool/nimage =       8
     Waiting for input...
     Reading input from standard input

     Current dimensions of program PWSCF are:
     Max number of different atomic species (ntypx) = 10
     Max number of k-points (npk) =  40000
     Max angular momentum in pseudopotentials (lmaxx) =  3
               file C.pbe-n-kjpaw_psl.0.1.UPF: wavefunction(s)  2P renormalized
               file N.pbe-n-kjpaw_psl.0.1.UPF: wavefunction(s)  2P renormalized
               file H.pbe-kjpaw_psl.0.1.UPF: wavefunction(s)  1S renormalized
               file O.pbe-n-kjpaw_psl.0.1.UPF: wavefunction(s)  2P renormalized

     -------------------------------------
     Parameters for Dispersion Correction:
     -------------------------------------
       atom      VdW radius       C_6     

        C          2.744         60.710
        N          2.640         42.670
        H          1.892          4.857
        O          2.536         24.284

     Subspace diagonalization in iterative solution of the eigenvalue problem:
     a serial algorithm will be used

 
     Parallelization info
     --------------------
     sticks:   dense  smooth     PW     G-vecs:    dense   smooth      PW
     Min         936     936    245               150524   150524   20205
     Max         937     937    247               150527   150527   20208
     Sum        7495    7495   1967              1204203  1204203  161645
 


     bravais-lattice index     =            0
     lattice parameter (alat)  =      11.3669  a.u.
     unit-cell volume          =    8914.4219 (a.u.)^3
     number of atoms/cell      =          132
     number of atomic types    =            4
     number of electrons       =       440.00
     number of Kohn-Sham states=          264
     kinetic-energy cutoff     =     100.0000  Ry
     charge density cutoff     =     400.0000  Ry
     convergence threshold     =      1.0E-08
     mixing beta               =       0.5000
     number of iterations used =            8  plain     mixing
     Exchange-correlation      =  SLA  PW   PBX  PBC ( 1  4  3  4 0 0)

     celldm(1)=  11.366892  celldm(2)=   0.000000  celldm(3)=   0.000000
     celldm(4)=   0.000000  celldm(5)=   0.000000  celldm(6)=   0.000000

     crystal axes: (cart. coord. in units of alat)
               a(1) = (   1.000000   0.000000   0.000000 )  
               a(2) = (   0.000000   1.822580   0.000000 )  
               a(3) = (   0.000000   0.000000   3.330285 )  

     reciprocal axes: (cart. coord. in units 2 pi/alat)
               b(1) = (  1.000000  0.000000  0.000000 )  
               b(2) = (  0.000000  0.548673  0.000000 )  
               b(3) = (  0.000000  0.000000  0.300275 )  


     PseudoPot. # 1 for  C read from file:
     /scratch/ahofstet/pseudo/C.pbe-n-kjpaw_psl.0.1.UPF
     MD5 check sum: 430fe95172b1e11ef3f8ed03bac87931
     Pseudo is Projector augmented-wave + core cor, Zval =  4.0
     Generated using "atomic" code by A. Dal Corso  v.5.0.99 svn rev. 10869
     Shape of augmentation charge: BESSEL
     Using radial grid of 1073 points,  4 beta functions with: 
                l(1) =   0
                l(2) =   0
                l(3) =   1
                l(4) =   1
     Q(r) pseudized with 0 coefficients 


     PseudoPot. # 2 for  N read from file:
     /scratch/ahofstet/pseudo/N.pbe-n-kjpaw_psl.0.1.UPF
     MD5 check sum: f73187c8b701007e77325f868c9291d7
     Pseudo is Projector augmented-wave + core cor, Zval =  5.0
     Generated using "atomic" code by A. Dal Corso  v.5.0.99 svn rev. 10869
     Shape of augmentation charge: PSQ
     Using radial grid of 1085 points,  4 beta functions with: 
                l(1) =   0
                l(2) =   0
                l(3) =   1
                l(4) =   1
     Q(r) pseudized with 0 coefficients 


     PseudoPot. # 3 for  H read from file:
     /scratch/ahofstet/pseudo/H.pbe-kjpaw_psl.0.1.UPF
     MD5 check sum: 94e484f906d9e9773b2f6e52662335b2
     Pseudo is Projector augmented-wave, Zval =  1.0
     Generated using "atomic" code by A. Dal Corso  v.5.0.99 svn rev. 10869
     Shape of augmentation charge: PSQ
     Using radial grid of  929 points,  2 beta functions with: 
                l(1) =   0
                l(2) =   0
     Q(r) pseudized with 0 coefficients 


     PseudoPot. # 4 for  O read from file:
     /scratch/ahofstet/pseudo/O.pbe-n-kjpaw_psl.0.1.UPF
     MD5 check sum: 3f94a2996a3169367d6eb21d9b593f20
     Pseudo is Projector augmented-wave + core cor, Zval =  6.0
     Generated using "atomic" code by A. Dal Corso  v.5.0.99 svn rev. 10869
     Shape of augmentation charge: BESSEL
     Using radial grid of 1095 points,  4 beta functions with: 
                l(1) =   0
                l(2) =   0
                l(3) =   1
                l(4) =   1
     Q(r) pseudized with 0 coefficients 


     atomic species   valence    mass     pseudopotential
        C              4.00    12.01070      C( 1.00)
        N              5.00    14.00670      N( 1.00)
        H              1.00     1.00794      H( 1.00)
        O              6.00    15.99940      O( 1.00)

     No symmetry found
          (note:  3 additional sym.ops. were found but ignored
           their fractional translations are incommensurate with FFT grid)


   Cartesian axes

     site n.     atom                  positions (alat units)
         1           O   tau(   1) = (   0.5319952   1.3747716   0.1162470  )
         2           O   tau(   2) = (   0.9680048   0.4478082   1.7813897  )
         3           O   tau(   3) = (   0.4680048   0.4634817   1.5488958  )
         4           O   tau(   4) = (   0.0319952   1.3590981   3.2140385  )
         5           O   tau(   5) = (   0.8004333   0.7082789   3.2026957  )
         6           O   tau(   6) = (   0.6995667   1.1143009   1.5375530  )
         7           O   tau(   7) = (   0.1995667   1.6195689   1.7927325  )
         8           O   tau(   8) = (   0.3004333   0.2030110   0.1275897  )
         9           O   tau(   9) = (   0.5889860   0.8881336   0.4513652  )
        10           O   tau(  10) = (   0.9110140   0.9344463   2.1165080  )
        11           O   tau(  11) = (   0.4110140   1.7994235   1.2137775  )
        12           O   tau(  12) = (   0.0889860   0.0231564   2.8789202  )
        13           O   tau(  13) = (   0.1831563   1.3384907   0.4945956  )
        14           O   tau(  14) = (   0.3168437   0.4840892   2.1597383  )
        15           O   tau(  15) = (   0.8168437   0.4272007   1.1705472  )
        16           O   tau(  16) = (   0.6831563   1.3953791   2.8356899  )
        17           O   tau(  17) = (   0.0846529   0.0809979   0.6876205  )
        18           O   tau(  18) = (   0.4153471   1.7415819   2.3527632  )
        19           O   tau(  19) = (   0.9153471   0.9922879   0.9775223  )
        20           O   tau(  20) = (   0.5846529   0.8302920   2.6426650  )
        21           N   tau(  21) = (   0.6893910   1.0657671   3.2896847  )
        22           N   tau(  22) = (   0.8106090   0.7568128   1.6245420  )
        23           N   tau(  23) = (   0.3106090   0.1544772   1.7057434  )
        24           N   tau(  24) = (   0.1893910   1.6681027   0.0406007  )
        25           C   tau(  25) = (   0.5288578   1.1735767   0.0806745  )
        26           C   tau(  26) = (   0.9711422   0.6490032   1.7458172  )
        27           C   tau(  27) = (   0.4711422   0.2622867   1.5844683  )
        28           C   tau(  28) = (   0.0288578   1.5602931   3.2496110  )
        29           H   tau(  29) = (   0.8180802   1.1553266   3.2188702  )
        30           H   tau(  30) = (   0.6819198   0.6672533   1.5537275  )
        31           H   tau(  31) = (   0.1819198   0.2440367   1.7765580  )
        32           H   tau(  32) = (   0.3180802   1.5785432   0.1114152  )
        33           C   tau(  33) = (   0.6698444   0.8359912   3.2916435  )
        34           C   tau(  34) = (   0.8301556   0.9865886   1.6265007  )
        35           C   tau(  35) = (   0.3301556   1.7472811   1.7037847  )
        36           C   tau(  36) = (   0.1698444   0.0752987   0.0386420  )
        37           C   tau(  37) = (   0.3627150   1.0027073   0.1655715  )
        38           C   tau(  38) = (   0.1372850   0.8198726   1.8307142  )
        39           C   tau(  39) = (   0.6372850   0.0914174   1.4995713  )
        40           C   tau(  40) = (   0.8627150   1.7311625   3.1647140  )
        41           H   tau(  41) = (   0.1955483   1.0382645   0.1025661  )
        42           H   tau(  42) = (   0.3044517   0.7843154   1.7677088  )
        43           H   tau(  43) = (   0.8044517   0.1269745   1.5625767  )
        44           H   tau(  44) = (   0.6955483   1.6956053   3.2277194  )
        45           C   tau(  45) = (   0.4667202   0.7774252   0.0991888  )
        46           C   tau(  46) = (   0.0332798   1.0451547   1.7643315  )
        47           C   tau(  47) = (   0.5332798   1.6887151   1.5659539  )
        48           C   tau(  48) = (   0.9667202   0.1338647   3.2310967  )
        49           H   tau(  49) = (   0.3585990   0.6605704   3.3406321  )
        50           H   tau(  50) = (   0.1414010   1.1620094   1.6754894  )
        51           H   tau(  51) = (   0.6414010   1.5718603   1.6547961  )
        52           H   tau(  52) = (   0.8585990   0.2507195  -0.0103467  )
        53           C   tau(  53) = (   0.3730342   0.9902786   0.4285586  )
        54           C   tau(  54) = (   0.1269658   0.8323013   2.0937013  )
        55           C   tau(  55) = (   0.6269658   0.0789886   1.2365841  )
        56           C   tau(  56) = (   0.8730342   1.7435912   2.9017268  )
        57           C   tau(  57) = (   0.5346116   0.6849053   0.3348442  )
        58           C   tau(  58) = (   0.9653884   1.1376745   1.9999869  )
        59           C   tau(  59) = (   0.4653884   1.5961952   1.3302986  )
        60           C   tau(  60) = (   0.0346116   0.2263846   2.9954413  )
        61           H   tau(  61) = (   0.6763357   0.5703225   0.3354763  )
        62           H   tau(  62) = (   0.8236643   1.2522573   2.0006190  )
        63           H   tau(  63) = (   0.3236643   1.4816124   1.3296664  )
        64           H   tau(  64) = (   0.1763357   0.3409674   2.9948092  )
        65           C   tau(  65) = (   0.2164610   0.8025934   0.5026208  )
        66           C   tau(  66) = (   0.2835390   1.0199864   2.1677635  )
        67           C   tau(  67) = (   0.7835390   1.7138833   1.1625220  )
        68           C   tau(  68) = (   0.7164610   0.1086965   2.8276647  )
        69           H   tau(  69) = (   0.0558659   0.8292998   0.5793987  )
        70           H   tau(  70) = (   0.4441341   0.9932801   2.2445414  )
        71           H   tau(  71) = (   0.9441341   1.7405897   1.0857441  )
        72           H   tau(  72) = (   0.5558659   0.0819901   2.7508868  )
        73           C   tau(  73) = (   0.3195702   0.6136842   0.4461903  )
        74           C   tau(  74) = (   0.1804298   1.2088957   2.1113330  )
        75           C   tau(  75) = (   0.6804298   1.5249741   1.2189524  )
        76           C   tau(  76) = (   0.8195702   0.2976057   2.8840951  )
        77           H   tau(  77) = (   0.2628662   0.4427977   0.4591716  )
        78           H   tau(  78) = (   0.2371338   1.3797821   2.1243143  )
        79           H   tau(  79) = (   0.7371338   1.3540876   1.2059712  )
        80           H   tau(  80) = (   0.7628662   0.4684922   2.8711139  )
        81           C   tau(  81) = (   0.3615252   1.2055091   0.5466889  )
        82           C   tau(  82) = (   0.1384748   0.6170707   2.2118316  )
        83           C   tau(  83) = (   0.6384748   0.2942192   1.1184539  )
        84           C   tau(  84) = (   0.8615252   1.5283606   2.7835966  )
        85           C   tau(  85) = (   0.5010489   1.3097676   0.6913538  )
        86           C   tau(  86) = (   0.9989511   0.5128123   2.3564965  )
        87           C   tau(  87) = (   0.4989511   0.3984776   0.9737889  )
        88           C   tau(  88) = (   0.0010489   1.4241022   2.6389316  )
        89           H   tau(  89) = (   0.6513369   1.2394812   0.7613486  )
        90           H   tau(  90) = (   0.8486631   0.5830987   2.4264913  )
        91           H   tau(  91) = (   0.3486631   0.3281913   0.9037941  )
        92           H   tau(  92) = (   0.1513369   1.4943886   2.5689368  )
        93           C   tau(  93) = (   0.4090115   1.5253728   0.7287569  )
        94           C   tau(  94) = (   0.0909885   0.2972070   2.3938996  )
        95           C   tau(  95) = (   0.5909885   0.6140829   0.9363859  )
        96           C   tau(  96) = (   0.9090115   1.2084969   2.6015286  )
        97           H   tau(  97) = (   0.4718111   1.6538162   0.8379165  )
        98           H   tau(  98) = (   0.0281889   0.1687637   2.5030593  )
        99           H   tau(  99) = (   0.5281889   0.7425262   0.8272262  )
       100           H   tau( 100) = (   0.9718111   1.0800536   2.4923689  )
       101           C   tau( 101) = (   0.2136134   1.5353090   0.6090624  )
       102           C   tau( 102) = (   0.2863866   0.2872708   2.2742051  )
       103           C   tau( 103) = (   0.7863866   0.6240191   1.0560804  )
       104           C   tau( 104) = (   0.7136134   1.1985607   2.7212231  )
       105           C   tau( 105) = (   0.0456680   1.7021796   0.5846313  )
       106           C   tau( 106) = (   0.4543320   0.1204003   2.2497740  )
       107           C   tau( 107) = (   0.9543320   0.7908897   1.0805115  )
       108           C   tau( 108) = (   0.5456680   1.0316902   2.7456542  )
       109           C   tau( 109) = (   0.8479409   1.7118499   0.4686661  )
       110           C   tau( 110) = (   0.6520591   0.1107300   2.1338089  )
       111           C   tau( 111) = (   0.1520591   0.8005599   1.1964766  )
       112           C   tau( 112) = (   0.3479409   1.0220199   2.8616193  )
       113           H   tau( 113) = (   0.7754060   1.5787657   0.3710062  )
       114           H   tau( 114) = (   0.7245940   0.2438142   2.0361489  )
       115           H   tau( 115) = (   0.2245940   0.6674758   1.2941365  )
       116           H   tau( 116) = (   0.2754060   1.1551041   2.9592793  )
       117           C   tau( 117) = (   0.7641718   0.1100858   0.4963456  )
       118           C   tau( 118) = (   0.7358282   1.7124941   2.1614883  )
       119           C   tau( 119) = (   0.2358282   1.0213757   1.1687972  )
       120           C   tau( 120) = (   0.2641718   0.8012042   2.8339399  )
       121           H   tau( 121) = (   0.6105273   0.1746260   0.4274527  )
       122           H   tau( 122) = (   0.8894727   1.6479538   2.0925955  )
       123           H   tau( 123) = (   0.3894727   1.0859159   1.2376900  )
       124           H   tau( 124) = (   0.1105273   0.7366639   2.9028327  )
       125           C   tau( 125) = (   0.9107013   0.2180359   0.6313356  )
       126           C   tau( 126) = (   0.5892987   1.6045440   2.2964784  )
       127           C   tau( 127) = (   0.0892987   1.1293258   1.0338071  )
       128           C   tau( 128) = (   0.4107013   0.6932540   2.6989498  )
       129           H   tau( 129) = (   0.9133978   0.3821628   0.7060528  )
       130           H   tau( 130) = (   0.5866022   1.4404170   2.3711956  )
       131           H   tau( 131) = (   0.0866022   1.2934527   0.9590899  )
       132           H   tau( 132) = (   0.4133978   0.5291271   2.6242326  )

     number of k points=     4
                       cart. coord. in units 2pi/alat
        k(    1) = (   0.0000000   0.0000000   0.0000000), wk =   0.3333333
        k(    2) = (   0.0000000  -0.2743364   0.0000000), wk =   0.3333333
        k(    3) = (   0.3333333   0.0000000   0.0000000), wk =   0.6666667
        k(    4) = (   0.3333333  -0.2743364   0.0000000), wk =   0.6666667

     Dense  grid:  1204203 G-vectors     FFT dimensions: (  75, 135, 243)

     Estimated max dynamical RAM per process >    1338.77MB

     Estimated total allocated dynamical RAM >   10710.16MB

     Check: negative/imaginary core charge=   -0.000002    0.000000

     Initial potential from superposition of free atoms

     starting charge  439.99686, renormalised to  440.00000
     Starting wfc are  396 randomized atomic wfcs
     Checking if some PAW data can be deallocated... 

     total cpu time spent up to now is       53.0 secs

     per-process dynamical memory:   752.8 Mb

     Self-consistent Calculation

     iteration #  1     ecut=   100.00 Ry     beta=0.50
     Davidson diagonalization with overlap
     ethr =  1.00E-02,  avg # of iterations =  4.0

     total cpu time spent up to now is      203.8 secs

     total energy              =   -2175.42983162 Ry
     Harris-Foulkes estimate   =   -2182.40660047 Ry
     estimated scf accuracy    <      13.27423465 Ry

     iteration #  2     ecut=   100.00 Ry     beta=0.50
     Davidson diagonalization with overlap
     ethr =  3.02E-03,  avg # of iterations =  2.8

     total cpu time spent up to now is      280.6 secs

     total energy              =   -2175.92852447 Ry
     Harris-Foulkes estimate   =   -2177.02468570 Ry
     estimated scf accuracy    <       2.16084376 Ry

     iteration #  3     ecut=   100.00 Ry     beta=0.50
     Davidson diagonalization with overlap
     ethr =  4.91E-04,  avg # of iterations =  5.0

     total cpu time spent up to now is      443.8 secs

     total energy              =   -2177.50374631 Ry
     Harris-Foulkes estimate   =   -2178.19566056 Ry
     estimated scf accuracy    <       1.75318177 Ry

     iteration #  4     ecut=   100.00 Ry     beta=0.50
     Davidson diagonalization with overlap
     ethr =  3.98E-04,  avg # of iterations =  1.8

     total cpu time spent up to now is      516.1 secs

     total energy              =   -2177.30899547 Ry
     Harris-Foulkes estimate   =   -2177.62097442 Ry
     estimated scf accuracy    <       0.49147385 Ry

     iteration #  5     ecut=   100.00 Ry     beta=0.50
     Davidson diagonalization with overlap
     ethr =  1.12E-04,  avg # of iterations =  6.0

     total cpu time spent up to now is      683.7 secs

     total energy              =   -2177.67228886 Ry
     Harris-Foulkes estimate   =   -2177.82532652 Ry
     estimated scf accuracy    <       0.49403944 Ry

     iteration #  6     ecut=   100.00 Ry     beta=0.50
     Davidson diagonalization with overlap
     ethr =  1.12E-04,  avg # of iterations =  1.0

     total cpu time spent up to now is      754.4 secs

     total energy              =   -2177.56659252 Ry
     Harris-Foulkes estimate   =   -2177.68647785 Ry
     estimated scf accuracy    <       0.22376364 Ry

     iteration #  7     ecut=   100.00 Ry     beta=0.50
     Davidson diagonalization with overlap
     ethr =  5.09E-05,  avg # of iterations =  8.5

     total cpu time spent up to now is      904.0 secs

     total energy              =   -2177.66486804 Ry
     Harris-Foulkes estimate   =   -2177.67311690 Ry
     estimated scf accuracy    <       0.02877505 Ry

     iteration #  8     ecut=   100.00 Ry     beta=0.50
     Davidson diagonalization with overlap
     ethr =  6.54E-06,  avg # of iterations =  2.0

     total cpu time spent up to now is      978.0 secs

     total energy              =   -2177.65729559 Ry
     Harris-Foulkes estimate   =   -2177.66594945 Ry
     estimated scf accuracy    <       0.01380799 Ry

     iteration #  9     ecut=   100.00 Ry     beta=0.50
     Davidson diagonalization with overlap
     ethr =  3.14E-06,  avg # of iterations =  7.2

     total cpu time spent up to now is     1133.0 secs

     total energy              =   -2177.66452647 Ry
     Harris-Foulkes estimate   =   -2177.66691653 Ry
     estimated scf accuracy    <       0.00646100 Ry

     iteration # 10     ecut=   100.00 Ry     beta=0.50
     Davidson diagonalization with overlap
     ethr =  1.47E-06,  avg # of iterations =  1.0

     total cpu time spent up to now is     1203.8 secs

     total energy              =   -2177.66352110 Ry
     Harris-Foulkes estimate   =   -2177.66474834 Ry
     estimated scf accuracy    <       0.00232044 Ry

     iteration # 11     ecut=   100.00 Ry     beta=0.50
     Davidson diagonalization with overlap
     ethr =  5.27E-07,  avg # of iterations =  4.2

     total cpu time spent up to now is     1337.6 secs

     total energy              =   -2177.66503182 Ry
     Harris-Foulkes estimate   =   -2177.66522177 Ry
     estimated scf accuracy    <       0.00082880 Ry

     iteration # 12     ecut=   100.00 Ry     beta=0.50
     Davidson diagonalization with overlap
     ethr =  1.88E-07,  avg # of iterations =  1.0

     total cpu time spent up to now is     1408.5 secs

     total energy              =   -2177.66482772 Ry
     Harris-Foulkes estimate   =   -2177.66504427 Ry
     estimated scf accuracy    <       0.00051350 Ry

     iteration # 13     ecut=   100.00 Ry     beta=0.50
     Davidson diagonalization with overlap
     ethr =  1.17E-07,  avg # of iterations =  3.8

     total cpu time spent up to now is     1510.7 secs

     total energy              =   -2177.66495726 Ry
     Harris-Foulkes estimate   =   -2177.66496046 Ry
     estimated scf accuracy    <       0.00000948 Ry

     iteration # 14     ecut=   100.00 Ry     beta=0.50
     Davidson diagonalization with overlap
     ethr =  2.15E-09,  avg # of iterations =  4.0

     total cpu time spent up to now is     1658.4 secs

     total energy              =   -2177.66496340 Ry
     Harris-Foulkes estimate   =   -2177.66496447 Ry
     estimated scf accuracy    <       0.00000232 Ry

     iteration # 15     ecut=   100.00 Ry     beta=0.50
     Davidson diagonalization with overlap
     ethr =  5.28E-10,  avg # of iterations =  2.0

     total cpu time spent up to now is     1731.8 secs

     total energy              =   -2177.66496340 Ry
     Harris-Foulkes estimate   =   -2177.66496357 Ry
     estimated scf accuracy    <       0.00000036 Ry

     iteration # 16     ecut=   100.00 Ry     beta=0.50
     Davidson diagonalization with overlap
     ethr =  8.08E-11,  avg # of iterations =  4.0

     total cpu time spent up to now is     1891.2 secs

     total energy              =   -2177.66496387 Ry
     Harris-Foulkes estimate   =   -2177.66496418 Ry
     estimated scf accuracy    <       0.00000103 Ry

     iteration # 17     ecut=   100.00 Ry     beta=0.50
     Davidson diagonalization with overlap
     ethr =  8.08E-11,  avg # of iterations =  1.0

     total cpu time spent up to now is     1962.0 secs

     total energy              =   -2177.66496368 Ry
     Harris-Foulkes estimate   =   -2177.66496389 Ry
     estimated scf accuracy    <       0.00000053 Ry

     iteration # 18     ecut=   100.00 Ry     beta=0.50
     Davidson diagonalization with overlap
     ethr =  8.08E-11,  avg # of iterations =  4.0

     total cpu time spent up to now is     2088.1 secs

     total energy              =   -2177.66496386 Ry
     Harris-Foulkes estimate   =   -2177.66496385 Ry
     estimated scf accuracy    <       0.00000002 Ry

     iteration # 19     ecut=   100.00 Ry     beta=0.50
     Davidson diagonalization with overlap
     ethr =  4.75E-12,  avg # of iterations =  4.0

     total cpu time spent up to now is     2234.9 secs

     total energy              =   -2177.66496385 Ry
     Harris-Foulkes estimate   =   -2177.66496388 Ry
     estimated scf accuracy    <       0.00000011 Ry

     iteration # 20     ecut=   100.00 Ry     beta=0.50
     Davidson diagonalization with overlap
     ethr =  4.75E-12,  avg # of iterations =  7.0

     total cpu time spent up to now is     2342.0 secs

     total energy              =   -2177.66496385 Ry
     Harris-Foulkes estimate   =   -2177.66496385 Ry
     estimated scf accuracy    <       0.00000002 Ry

     iteration # 21     ecut=   100.00 Ry     beta=0.50
     Davidson diagonalization with overlap
     ethr =  4.72E-12,  avg # of iterations =  3.2

     total cpu time spent up to now is     2428.4 secs

     End of self-consistent calculation

          k = 0.0000 0.0000 0.0000 (150481 PWs)   bands (ev):

   -21.1159 -21.1138 -21.1030 -21.1008 -20.9204 -20.9204 -20.9077 -20.9076
   -20.2856 -20.2851 -20.2231 -20.2226 -19.9447 -19.9446 -19.8517 -19.8515
   -19.5469 -19.5469 -19.5309 -19.5309 -17.0937 -17.0937 -16.9303 -16.9303
   -13.7581 -13.7570 -13.7561 -13.7545 -13.2815 -13.2771 -13.2669 -13.2630
   -13.1075 -13.1074 -13.0768 -13.0762 -12.8954 -12.8950 -12.8877 -12.8875
   -12.6674 -12.6606 -12.6605 -12.6551 -12.1853 -12.1798 -12.1480 -12.1411
   -10.7588 -10.7478 -10.7426 -10.7318  -9.8212  -9.8167  -9.7681  -9.7642
    -8.9600  -8.9305  -8.9223  -8.9032  -8.4871  -8.4867  -8.4582  -8.4563
    -8.4088  -8.3961  -8.3500  -8.3153  -8.1627  -8.1593  -8.0884  -8.0601
    -7.6426  -7.6398  -7.6225  -7.6195  -7.2022  -7.1993  -7.1730  -7.1676
    -7.0502  -7.0223  -6.9974  -6.9785  -6.7495  -6.7463  -6.6574  -6.6277
    -6.4867  -6.4788  -6.4781  -6.4644  -6.2559  -6.2537  -6.1546  -6.1529
    -5.9991  -5.9980  -5.9404  -5.9321  -5.3509  -5.3374  -5.0377  -5.0085
    -4.8917  -4.8640  -4.8332  -4.8240  -4.7900  -4.7573  -4.7487  -4.6261
    -4.5846  -4.4925  -4.4484  -4.4353  -4.4198  -4.4054  -4.3023  -4.1831
    -4.1495  -4.1096  -4.1006  -4.0211  -3.9074  -3.8990  -3.8841  -3.8501
    -3.8076  -3.7728  -3.6958  -3.6700  -3.6032  -3.5757  -3.5515  -3.5352
    -3.5232  -3.4867  -3.4765  -3.4122  -3.4103  -3.3732  -3.3600  -3.3384
    -3.1227  -3.0992  -3.0549  -3.0457  -2.9733  -2.9587  -2.9307  -2.8654
    -2.8400  -2.8378  -2.7756  -2.7726  -2.6957  -2.6399  -2.5348  -2.5213
    -2.5154  -2.4654  -2.4476  -2.4309  -2.3326  -2.3198  -2.3031  -2.2912
    -2.1321  -2.1234  -2.0434  -2.0133  -2.0003  -1.9926  -1.9736  -1.9721
    -1.9253  -1.9151  -1.8852  -1.8745  -1.7037  -1.6988  -1.6749  -1.6654
    -0.5997  -0.5963  -0.5505  -0.5377  -0.4147  -0.3167  -0.2953  -0.2523
    -0.2408  -0.2189  -0.1558  -0.0898  -0.0175   0.0375   0.0903   0.1026
     0.1168   0.1198   0.1719   0.2617   0.2638   0.3160   0.4426   0.4615
     0.5317   0.5483   0.5591   0.5853   0.6394   0.6497   0.6966   0.7370
     1.9095   1.9162   2.1907   2.2038   4.6697   4.7207   4.7220   4.7658
     5.1648   5.2027   5.2356   5.3484   5.7097   5.7447   5.7579   5.7980
     6.0738   6.0845   6.0943   6.1072   6.6570   6.6604   6.7830   6.7909
     6.8990   6.9357   6.9537   7.1299   7.2419   7.3007   7.3810   7.3851
     7.6170   7.7675   7.7787   7.7959   7.8927   8.0631   8.0728   8.1201
     8.1692   8.1841   8.3741   8.4492   8.4596   8.4598   8.5140   8.5924

          k = 0.0000-0.2743 0.0000 (150462 PWs)   bands (ev):

   -21.1096 -21.1096 -21.1074 -21.1074 -20.9140 -20.9140 -20.9140 -20.9140
   -20.2824 -20.2824 -20.2261 -20.2261 -19.9466 -19.9466 -19.8493 -19.8493
   -19.5443 -19.5443 -19.5334 -19.5334 -17.0931 -17.0931 -16.9313 -16.9312
   -13.7548 -13.7548 -13.7521 -13.7521 -13.2802 -13.2802 -13.2693 -13.2693
   -13.0919 -13.0919 -13.0910 -13.0910 -12.9084 -12.9084 -12.9052 -12.9052
   -12.6659 -12.6659 -12.6555 -12.6555 -12.1350 -12.1350 -12.1323 -12.1323
   -10.7645 -10.7645 -10.7629 -10.7629  -9.8667  -9.8667  -9.7664  -9.7663
    -8.9384  -8.9384  -8.9323  -8.9323  -8.4670  -8.4670  -8.4472  -8.4472
    -8.3895  -8.3895  -8.2641  -8.2641  -8.1241  -8.1241  -8.0525  -8.0525
    -7.7032  -7.7032  -7.6684  -7.6684  -7.1873  -7.1873  -7.1728  -7.1728
    -6.9386  -6.9386  -6.9312  -6.9311  -6.6270  -6.6270  -6.5999  -6.5999
    -6.5566  -6.5566  -6.5364  -6.5364  -6.3528  -6.3528  -6.3378  -6.3378
    -5.9699  -5.9699  -5.9299  -5.9299  -5.5301  -5.5301  -4.9750  -4.9750
    -4.9124  -4.9124  -4.8253  -4.8253  -4.6787  -4.6787  -4.6018  -4.6018
    -4.5840  -4.5840  -4.4939  -4.4939  -4.4312  -4.4312  -4.1091  -4.1091
    -3.9760  -3.9760  -3.9450  -3.9450  -3.8790  -3.8790  -3.8420  -3.8420
    -3.7761  -3.7761  -3.7280  -3.7280  -3.5406  -3.5406  -3.5289  -3.5289
    -3.4891  -3.4891  -3.4799  -3.4799  -3.4297  -3.4297  -3.3966  -3.3966
    -3.1879  -3.1879  -3.1275  -3.1275  -3.0164  -3.0164  -2.9320  -2.9320
    -2.8380  -2.8380  -2.7995  -2.7995  -2.6119  -2.6119  -2.5451  -2.5451
    -2.4722  -2.4722  -2.4240  -2.4240  -2.3533  -2.3533  -2.3409  -2.3409
    -2.0884  -2.0884  -2.0674  -2.0674  -2.0042  -2.0042  -1.9661  -1.9661
    -1.9218  -1.9218  -1.8825  -1.8824  -1.7627  -1.7627  -1.6201  -1.6201
    -0.6165  -0.6164  -0.4931  -0.4930  -0.3621  -0.3621  -0.2637  -0.2636
    -0.2230  -0.2230  -0.0664  -0.0664   0.0685   0.0685   0.0925   0.0925
     0.1827   0.1827   0.2349   0.2349   0.2774   0.2774   0.3280   0.3280
     0.4811   0.4811   0.5512   0.5512   0.6791   0.6791   0.7158   0.7158
     2.0488   2.0488   2.0592   2.0592   4.6011   4.6011   4.8250   4.8250
     5.2123   5.2123   5.2613   5.2613   5.7513   5.7513   5.7929   5.7929
     6.0384   6.0384   6.1065   6.1065   6.6721   6.6721   6.6998   6.6998
     7.0358   7.0359   7.1227   7.1227   7.1809   7.1809   7.3811   7.3811
     7.5872   7.5872   7.7571   7.7571   7.8720   7.8720   8.1686   8.1686
     8.2157   8.2157   8.3786   8.3786   8.4764   8.4764   8.6826   8.6827

          k = 0.3333 0.0000 0.0000 (150576 PWs)   bands (ev):

   -21.1132 -21.1121 -21.1025 -21.1014 -20.9197 -20.9197 -20.9086 -20.9085
   -20.2661 -20.2656 -20.2348 -20.2344 -19.9243 -19.9242 -19.8776 -19.8775
   -19.5440 -19.5440 -19.5363 -19.5363 -17.0513 -17.0513 -16.9696 -16.9696
   -13.7700 -13.7687 -13.7676 -13.7668 -13.2837 -13.2792 -13.2787 -13.2747
   -13.1166 -13.1135 -13.0757 -13.0746 -12.9206 -12.9128 -12.8869 -12.8798
   -12.6732 -12.6710 -12.6677 -12.6662 -12.1652 -12.1651 -12.1438 -12.1433
   -10.7765 -10.7660 -10.7638 -10.7534  -9.8274  -9.8233  -9.8055  -9.8032
    -8.9262  -8.9099  -8.9091  -8.8950  -8.4437  -8.4377  -8.4324  -8.4254
    -8.3542  -8.3188  -8.2632  -8.2492  -8.1499  -8.1462  -8.0858  -8.0596
    -7.7034  -7.6888  -7.6520  -7.6386  -7.1712  -7.1692  -7.1142  -7.1086
    -6.9784  -6.9680  -6.9578  -6.9381  -6.6801  -6.6776  -6.6271  -6.5951
    -6.5259  -6.5196  -6.4225  -6.4101  -6.2825  -6.2774  -6.2161  -6.2055
    -6.0493  -6.0141  -6.0090  -5.9858  -5.3598  -5.3578  -5.2623  -5.2503
    -4.8867  -4.8788  -4.7973  -4.7758  -4.7116  -4.6998  -4.6524  -4.6266
    -4.4963  -4.4710  -4.4622  -4.4364  -4.3782  -4.3178  -4.3008  -4.1682
    -4.1531  -4.1301  -4.0285  -3.9640  -3.8916  -3.8840  -3.8526  -3.8508
    -3.8017  -3.7950  -3.7748  -3.7383  -3.6289  -3.6195  -3.5732  -3.5640
    -3.4949  -3.4875  -3.4644  -3.4631  -3.4028  -3.3860  -3.3697  -3.3385
    -3.1700  -3.1184  -3.1174  -3.0573  -2.9936  -2.9656  -2.9430  -2.9429
    -2.8875  -2.8578  -2.7762  -2.7747  -2.6929  -2.6717  -2.5531  -2.5417
    -2.5191  -2.4897  -2.4407  -2.4284  -2.3952  -2.3871  -2.3768  -2.3447
    -2.1347  -2.1149  -2.0637  -2.0426  -2.0080  -2.0009  -1.9567  -1.9534
    -1.9112  -1.8958  -1.8839  -1.8643  -1.6616  -1.6582  -1.6540  -1.6512
    -0.5616  -0.5603  -0.5291  -0.5184  -0.3143  -0.2881  -0.2684  -0.2406
    -0.1826  -0.1791  -0.1258  -0.0765  -0.0152   0.0321   0.0642   0.0972
     0.1867   0.1904   0.2459   0.2742   0.2872   0.2889   0.4043   0.4323
     0.4898   0.5107   0.5400   0.5637   0.6561   0.6938   0.7085   0.7300
     1.9878   1.9920   2.2366   2.2411   4.6461   4.6616   4.6977   4.7252
     4.9570   4.9798   5.0619   5.0910   5.5965   5.6116   5.6265   5.6359
     5.8925   5.9091   5.9132   5.9185   6.3557   6.3714   6.5957   6.6088
     7.2165   7.2358   7.3481   7.4037   7.4312   7.5532   7.5602   7.6926
     7.7692   7.7724   7.8310   7.9579   7.9968   8.0914   8.1268   8.2264
     8.3146   8.3190   8.4030   8.4119   8.4496   8.5306   8.6256   8.6486

          k = 0.3333-0.2743 0.0000 (150570 PWs)   bands (ev):

   -21.1079 -21.1079 -21.1068 -21.1068 -20.9141 -20.9141 -20.9140 -20.9140
   -20.2643 -20.2643 -20.2361 -20.2361 -19.9254 -19.9254 -19.8766 -19.8766
   -19.5426 -19.5426 -19.5374 -19.5374 -17.0510 -17.0510 -16.9701 -16.9700
   -13.7669 -13.7669 -13.7654 -13.7654 -13.2876 -13.2876 -13.2843 -13.2843
   -13.0977 -13.0977 -13.0968 -13.0968 -12.8926 -12.8926 -12.8875 -12.8875
   -12.6720 -12.6720 -12.6677 -12.6677 -12.1652 -12.1652 -12.1605 -12.1605
   -10.7490 -10.7490 -10.7449 -10.7449  -9.8371  -9.8371  -9.7890  -9.7890
    -8.9477  -8.9477  -8.9344  -8.9344  -8.4425  -8.4425  -8.4233  -8.4233
    -8.3380  -8.3380  -8.2945  -8.2945  -8.1031  -8.1031  -8.0918  -8.0918
    -7.6764  -7.6764  -7.6629  -7.6629  -7.1508  -7.1508  -7.1425  -7.1425
    -6.9064  -6.9064  -6.8889  -6.8889  -6.6428  -6.6428  -6.6359  -6.6359
    -6.5238  -6.5238  -6.5161  -6.5161  -6.2476  -6.2476  -6.2457  -6.2457
    -6.0053  -6.0053  -5.9621  -5.9621  -5.3913  -5.3913  -5.1692  -5.1692
    -4.8991  -4.8991  -4.8402  -4.8402  -4.7169  -4.7169  -4.6324  -4.6324
    -4.5573  -4.5573  -4.5229  -4.5229  -4.4037  -4.4037  -4.2189  -4.2189
    -4.0075  -4.0075  -3.9643  -3.9643  -3.9220  -3.9220  -3.8598  -3.8598
    -3.7619  -3.7619  -3.6857  -3.6857  -3.6391  -3.6391  -3.5661  -3.5661
    -3.4628  -3.4628  -3.4451  -3.4451  -3.3918  -3.3918  -3.3695  -3.3695
    -3.1797  -3.1797  -3.1403  -3.1403  -2.9676  -2.9676  -2.9357  -2.9357
    -2.8485  -2.8485  -2.8136  -2.8136  -2.6495  -2.6495  -2.6292  -2.6292
    -2.4658  -2.4658  -2.4222  -2.4222  -2.3839  -2.3839  -2.3493  -2.3493
    -2.0962  -2.0962  -2.0821  -2.0821  -1.9938  -1.9938  -1.9734  -1.9734
    -1.9168  -1.9168  -1.9127  -1.9127  -1.7092  -1.7092  -1.6420  -1.6420
    -0.5564  -0.5564  -0.4798  -0.4798  -0.2943  -0.2943  -0.2576  -0.2576
    -0.1749  -0.1749  -0.0945  -0.0944   0.0582   0.0582   0.1064   0.1065
     0.1757   0.1757   0.2391   0.2391   0.3511   0.3511   0.3652   0.3652
     0.5115   0.5115   0.5515   0.5515   0.6740   0.6740   0.6941   0.6941
     2.0958   2.0958   2.1005   2.1005   4.6192   4.6192   4.7187   4.7187
     5.0241   5.0241   5.0427   5.0427   5.6194   5.6194   5.6434   5.6434
     5.8655   5.8655   5.9257   5.9257   6.4809   6.4809   6.4959   6.4959
     7.2888   7.2888   7.3097   7.3097   7.4641   7.4641   7.6145   7.6145
     7.8257   7.8257   7.8874   7.8874   7.9901   7.9901   8.1512   8.1512
     8.1884   8.1884   8.3910   8.3910   8.5035   8.5035   8.6613   8.6613

     highest occupied, lowest unoccupied level (ev):     2.2411    4.6011

!    total energy              =   -2177.66496385 Ry
     Harris-Foulkes estimate   =   -2177.66496385 Ry
     estimated scf accuracy    <          3.7E-09 Ry

     total all-electron energy =     -8376.700316 Ry

     The total energy is the sum of the following terms:

     one-electron contribution =   -1283.53213249 Ry
     hartree contribution      =     815.33639443 Ry
     xc contribution           =    -465.77420146 Ry
     ewald contribution        =    -593.85134660 Ry
     Dispersion Correction     =      -0.61482725 Ry
     one-center paw contrib.   =    -649.22885048 Ry

     convergence has been achieved in  21 iterations

     Forces acting on atoms (cartesian axes, Ry/au):

     atom    1 type  4   force =    -0.00112682   -0.00082551   -0.00115200
     atom    2 type  4   force =     0.00112604    0.00082495   -0.00115168
     atom    3 type  4   force =     0.00112671   -0.00082457    0.00115070
     atom    4 type  4   force =    -0.00112599    0.00082509    0.00115119
     atom    5 type  4   force =    -0.00142346    0.00065470    0.00184860
     atom    6 type  4   force =     0.00142288   -0.00065639    0.00185088
     atom    7 type  4   force =     0.00142423    0.00065366   -0.00185164
     atom    8 type  4   force =    -0.00142213   -0.00065288   -0.00184933
     atom    9 type  4   force =     0.00525886   -0.00289061    0.00636981
     atom   10 type  4   force =    -0.00525915    0.00288827    0.00636887
     atom   11 type  4   force =    -0.00525865   -0.00288906   -0.00636896
     atom   12 type  4   force =     0.00525917    0.00288861   -0.00636984
     atom   13 type  4   force =     0.00190096    0.00058700    0.00224310
     atom   14 type  4   force =    -0.00190224   -0.00058627    0.00224252
     atom   15 type  4   force =    -0.00190059    0.00058633   -0.00224250
     atom   16 type  4   force =     0.00190245   -0.00058564   -0.00224387
     atom   17 type  4   force =    -0.00260842   -0.00122172   -0.00337562
     atom   18 type  4   force =     0.00261039    0.00122162   -0.00337636
     atom   19 type  4   force =     0.00260935   -0.00122253    0.00337766
     atom   20 type  4   force =    -0.00261014    0.00122312    0.00337585
     atom   21 type  2   force =    -0.00193562   -0.00237034    0.00316919
     atom   22 type  2   force =     0.00193550    0.00236951    0.00316883
     atom   23 type  2   force =     0.00193552   -0.00236787   -0.00316911
     atom   24 type  2   force =    -0.00193542    0.00236904   -0.00316891
     atom   25 type  1   force =     0.00114669    0.00055555   -0.00143052
     atom   26 type  1   force =    -0.00115293   -0.00055511   -0.00142089
     atom   27 type  1   force =    -0.00114765    0.00057671    0.00142236
     atom   28 type  1   force =     0.00115243   -0.00057775    0.00143143
     atom   29 type  3   force =     0.00141637    0.00059130    0.00157906
     atom   30 type  3   force =    -0.00141634   -0.00059137    0.00157904
     atom   31 type  3   force =    -0.00141602    0.00059147   -0.00157911
     atom   32 type  3   force =     0.00141632   -0.00059146   -0.00157911
     atom   33 type  1   force =     0.00320023    0.00137790   -0.00302108
     atom   34 type  1   force =    -0.00318946   -0.00137768   -0.00303608
     atom   35 type  1   force =    -0.00320034    0.00140063    0.00303468
     atom   36 type  1   force =     0.00319015   -0.00140083    0.00302165
     atom   37 type  1   force =    -0.00471460    0.00008366   -0.00084972
     atom   38 type  1   force =     0.00472977   -0.00008409   -0.00085135
     atom   39 type  1   force =     0.00471535    0.00006963    0.00085142
     atom   40 type  1   force =    -0.00473049   -0.00006836    0.00084958
     atom   41 type  3   force =     0.00142195    0.00018538   -0.00090805
     atom   42 type  3   force =    -0.00142116   -0.00018565   -0.00090824
     atom   43 type  3   force =    -0.00142188    0.00018535    0.00090816
     atom   44 type  3   force =     0.00142126   -0.00018535    0.00090823
     atom   45 type  1   force =    -0.00314727   -0.00156382    0.00052970
     atom   46 type  1   force =     0.00314811    0.00156286    0.00051004
     atom   47 type  1   force =     0.00314667   -0.00155764   -0.00050882
     atom   48 type  1   force =    -0.00314840    0.00155796   -0.00052915
     atom   49 type  3   force =     0.00167313    0.00144338    0.00030524
     atom   50 type  3   force =    -0.00167291   -0.00144342    0.00030494
     atom   51 type  3   force =    -0.00167293    0.00144329   -0.00030492
     atom   52 type  3   force =     0.00167306   -0.00144347   -0.00030526
     atom   53 type  1   force =    -0.00342355   -0.00093981    0.00113747
     atom   54 type  1   force =     0.00342835    0.00094093    0.00111765
     atom   55 type  1   force =     0.00342294   -0.00095474   -0.00111690
     atom   56 type  1   force =    -0.00342864    0.00095685   -0.00113660
     atom   57 type  1   force =     0.00125600   -0.00219347    0.00043663
     atom   58 type  1   force =    -0.00124544    0.00219332    0.00043479
     atom   59 type  1   force =    -0.00125688   -0.00217729   -0.00043446
     atom   60 type  1   force =     0.00124574    0.00217903   -0.00043671
     atom   61 type  3   force =    -0.00254933    0.00127553   -0.00011415
     atom   62 type  3   force =     0.00254951   -0.00127566   -0.00011414
     atom   63 type  3   force =     0.00254939    0.00127572    0.00011419
     atom   64 type  3   force =    -0.00254975   -0.00127607    0.00011414
     atom   65 type  1   force =     0.00881827    0.00000910   -0.00671100
     atom   66 type  1   force =    -0.00880524   -0.00001028   -0.00669884
     atom   67 type  1   force =    -0.00881955    0.00001188    0.00669778
     atom   68 type  1   force =     0.00880642   -0.00001017    0.00671163
     atom   69 type  3   force =    -0.00730059    0.00167468   -0.00011571
     atom   70 type  3   force =     0.00730116   -0.00167493   -0.00011520
     atom   71 type  3   force =     0.00730065    0.00167502    0.00011558
     atom   72 type  3   force =    -0.00730113   -0.00167483    0.00011537
     atom   73 type  1   force =    -0.00104466    0.00315145   -0.00025647
     atom   74 type  1   force =     0.00104191   -0.00315264   -0.00025341
     atom   75 type  1   force =     0.00104527    0.00314989    0.00025300
     atom   76 type  1   force =    -0.00104243   -0.00315015    0.00025618
     atom   77 type  3   force =    -0.00129471    0.00055089   -0.00072129
     atom   78 type  3   force =     0.00129511   -0.00055075   -0.00072115
     atom   79 type  3   force =     0.00129491    0.00055106    0.00072121
     atom   80 type  3   force =    -0.00129494   -0.00055119    0.00072130
     atom   81 type  1   force =    -0.00305260   -0.00064894   -0.00318822
     atom   82 type  1   force =     0.00305130    0.00065025   -0.00317594
     atom   83 type  1   force =     0.00305205   -0.00066515    0.00317529
     atom   84 type  1   force =    -0.00305169    0.00066285    0.00318796
     atom   85 type  1   force =    -0.00011132    0.00959263   -0.00200687
     atom   86 type  1   force =     0.00010493   -0.00959214   -0.00200815
     atom   87 type  1   force =     0.00011096    0.00959789    0.00200766
     atom   88 type  1   force =    -0.00010591   -0.00959830    0.00200708
     atom   89 type  3   force =     0.00190498    0.00010175   -0.00127103
     atom   90 type  3   force =    -0.00190452   -0.00010158   -0.00127080
     atom   91 type  3   force =    -0.00190494    0.00010159    0.00127108
     atom   92 type  3   force =     0.00190462   -0.00010135    0.00127097
     atom   93 type  1   force =    -0.01184622   -0.00496286    0.00242694
     atom   94 type  1   force =     0.01183251    0.00496214    0.00241037
     atom   95 type  1   force =     0.01184595   -0.00496567   -0.00241068
     atom   96 type  1   force =    -0.01183321    0.00496579   -0.00242597
     atom   97 type  3   force =     0.00059551    0.00096477   -0.00098987
     atom   98 type  3   force =    -0.00059560   -0.00096479   -0.00098968
     atom   99 type  3   force =    -0.00059534    0.00096491    0.00098976
     atom  100 type  3   force =     0.00059562   -0.00096503    0.00098983
     atom  101 type  1   force =     0.00860305   -0.00407054    0.00616701
     atom  102 type  1   force =    -0.00860682    0.00407126    0.00615606
     atom  103 type  1   force =    -0.00860312   -0.00405081   -0.00615606
     atom  104 type  1   force =     0.00860674    0.00405241   -0.00616599
     atom  105 type  1   force =    -0.00850818    0.00446350   -0.00591891
     atom  106 type  1   force =     0.00850909   -0.00446481   -0.00590371
     atom  107 type  1   force =     0.00850860    0.00445060    0.00590449
     atom  108 type  1   force =    -0.00850765   -0.00445052    0.00591692
     atom  109 type  1   force =     0.01224776    0.00469450   -0.00301383
     atom  110 type  1   force =    -0.01225102   -0.00469518   -0.00302957
     atom  111 type  1   force =    -0.01224894    0.00470894    0.00302925
     atom  112 type  1   force =     0.01225100   -0.00470890    0.00301458
     atom  113 type  3   force =    -0.00090959   -0.00062185    0.00141442
     atom  114 type  3   force =     0.00090938    0.00062189    0.00141471
     atom  115 type  3   force =     0.00090936   -0.00062208   -0.00141493
     atom  116 type  3   force =    -0.00090916    0.00062187   -0.00141466
     atom  117 type  1   force =    -0.00093125   -0.00952788    0.00267377
     atom  118 type  1   force =     0.00094397    0.00952823    0.00265821
     atom  119 type  1   force =     0.00093212   -0.00954648   -0.00265851
     atom  120 type  1   force =    -0.00094505    0.00954661   -0.00267385
     atom  121 type  3   force =    -0.00157885    0.00087908   -0.00001656
     atom  122 type  3   force =     0.00157909   -0.00087921   -0.00001653
     atom  123 type  3   force =     0.00157872    0.00087891    0.00001628
     atom  124 type  3   force =    -0.00157905   -0.00087904    0.00001683
     atom  125 type  1   force =     0.00289320    0.00018031    0.00273959
     atom  126 type  1   force =    -0.00288822   -0.00018051    0.00272885
     atom  127 type  1   force =    -0.00289240    0.00017215   -0.00272925
     atom  128 type  1   force =     0.00288861   -0.00017203   -0.00274045
     atom  129 type  3   force =     0.00019852   -0.00010633   -0.00040737
     atom  130 type  3   force =    -0.00019846    0.00010620   -0.00040710
     atom  131 type  3   force =    -0.00019847   -0.00010620    0.00040744
     atom  132 type  3   force =     0.00019853    0.00010623    0.00040767

     Total force =     0.071574     Total SCF correction =     0.000113


     Computing stress (Cartesian axis) and pressure

          total   stress  (Ry/bohr**3)                   (kbar)     P=   -5.30
  -0.00003654   0.00000000   0.00000000         -5.38      0.00      0.00
   0.00000000  -0.00005818   0.00000000          0.00     -8.56      0.00
   0.00000000   0.00000000  -0.00001346          0.00      0.00     -1.98


     Writing output data file scf.save
 
     init_run     :     50.34s CPU     52.33s WALL (       1 calls)
     electrons    :   2283.72s CPU   2375.55s WALL (       1 calls)
     forces       :     24.59s CPU     24.96s WALL (       1 calls)
     stress       :    182.87s CPU    183.28s WALL (       1 calls)

     Called by init_run:
     wfcinit      :     40.81s CPU     42.61s WALL (       1 calls)
     potinit      :      3.37s CPU      3.39s WALL (       1 calls)

     Called by electrons:
     c_bands      :   2057.00s CPU   2133.35s WALL (      21 calls)
     sum_band     :    199.51s CPU    212.01s WALL (      21 calls)
     v_of_rho     :      3.91s CPU      4.29s WALL (      22 calls)
     newd         :      9.19s CPU     11.82s WALL (      22 calls)
     PAW_pot      :     12.82s CPU     12.82s WALL (      22 calls)
     mix_rho      :      1.20s CPU      1.28s WALL (      21 calls)

     Called by c_bands:
     init_us_2    :     11.53s CPU     11.60s WALL (     180 calls)
     cegterg      :   2008.09s CPU   2084.39s WALL (      84 calls)

     Called by sum_band:
     sum_band:bec :      0.12s CPU      0.12s WALL (      84 calls)
     addusdens    :      9.75s CPU     12.28s WALL (      21 calls)

     Called by *egterg:
     h_psi        :   1080.30s CPU   1140.45s WALL (     398 calls)
     s_psi        :    233.71s CPU    233.71s WALL (     398 calls)
     g_psi        :      6.89s CPU      6.89s WALL (     310 calls)
     cdiaghg      :    119.10s CPU    119.18s WALL (     394 calls)

     Called by h_psi:
     h_psi:pot    :   1072.71s CPU   1132.74s WALL (     398 calls)
     h_psi:calbec :    222.31s CPU    222.70s WALL (     398 calls)
     vloc_psi     :    616.67s CPU    676.28s WALL (     398 calls)
     add_vuspsi   :    233.73s CPU    233.76s WALL (     398 calls)

     General routines
     calbec       :    316.70s CPU    317.27s WALL (     502 calls)
     fft          :      4.24s CPU      4.86s WALL (     310 calls)
     fftw         :    661.15s CPU    730.45s WALL (  155946 calls)
 
     Parallel routines
     fft_scatter  :    105.25s CPU    169.36s WALL (  156256 calls)
 
     PWSCF        : 42m32.43s CPU    44m38.18s WALL

 
   This run was terminated on:   9:51:12  10Dec2017            

=------------------------------------------------------------------------------=
   JOB DONE.
=------------------------------------------------------------------------------=
