
     Program PWSCF v.6.1 (svn rev. 13369) starts on 18Dec2017 at 10:58:51 

     This program is part of the open-source Quantum ESPRESSO suite
     for quantum simulation of materials; please cite
         "P. Giannozzi et al., J. Phys.:Condens. Matter 21 395502 (2009);
          URL http://www.quantum-espresso.org", 
     in publications or presentations arising from this work. More details at
     http://www.quantum-espresso.org/quote

     Parallel version (MPI), running on     8 processors
     R & G space division:  proc/nbgrp/npool/nimage =       8
     Waiting for input...
     Reading input from standard input

     Current dimensions of program PWSCF are:
     Max number of different atomic species (ntypx) = 10
     Max number of k-points (npk) =  40000
     Max angular momentum in pseudopotentials (lmaxx) =  3
               file C.pbe-n-kjpaw_psl.0.1.UPF: wavefunction(s)  2P renormalized
               file N.pbe-n-kjpaw_psl.0.1.UPF: wavefunction(s)  2P renormalized
               file H.pbe-kjpaw_psl.0.1.UPF: wavefunction(s)  1S renormalized
               file O.pbe-n-kjpaw_psl.0.1.UPF: wavefunction(s)  2P renormalized

     -------------------------------------
     Parameters for Dispersion Correction:
     -------------------------------------
       atom      VdW radius       C_6     

        C          2.744         60.710
        N          2.640         42.670
        H          1.892          4.857
        O          2.536         24.284

     Subspace diagonalization in iterative solution of the eigenvalue problem:
     a serial algorithm will be used

 
     Parallelization info
     --------------------
     sticks:   dense  smooth     PW     G-vecs:    dense   smooth      PW
     Min         605     605    159                86531    86531   11613
     Max         606     606    160                86538    86538   11618
     Sum        4845    4845   1273               692267   692267   92917
 


     bravais-lattice index     =            0
     lattice parameter (alat)  =      11.7428  a.u.
     unit-cell volume          =    5123.6509 (a.u.)^3
     number of atoms/cell      =           88
     number of atomic types    =            4
     number of electrons       =       240.00
     number of Kohn-Sham states=          144
     kinetic-energy cutoff     =     100.0000  Ry
     charge density cutoff     =     400.0000  Ry
     convergence threshold     =      1.0E-08
     mixing beta               =       0.5000
     number of iterations used =            8  plain     mixing
     Exchange-correlation      =  SLA  PW   PBX  PBC ( 1  4  3  4 0 0)

     celldm(1)=  11.742758  celldm(2)=   0.000000  celldm(3)=   0.000000
     celldm(4)=   0.000000  celldm(5)=   0.000000  celldm(6)=   0.000000

     crystal axes: (cart. coord. in units of alat)
               a(1) = (   1.000000   0.000000   0.000000 )  
               a(2) = (   0.000000   1.101545   0.000000 )  
               a(3) = (   0.000000   0.000000   2.872546 )  

     reciprocal axes: (cart. coord. in units 2 pi/alat)
               b(1) = (  1.000000  0.000000  0.000000 )  
               b(2) = (  0.000000  0.907816  0.000000 )  
               b(3) = (  0.000000  0.000000  0.348123 )  


     PseudoPot. # 1 for  C read from file:
     /scratch/ahofstet/pseudo/C.pbe-n-kjpaw_psl.0.1.UPF
     MD5 check sum: 430fe95172b1e11ef3f8ed03bac87931
     Pseudo is Projector augmented-wave + core cor, Zval =  4.0
     Generated using "atomic" code by A. Dal Corso  v.5.0.99 svn rev. 10869
     Shape of augmentation charge: BESSEL
     Using radial grid of 1073 points,  4 beta functions with: 
                l(1) =   0
                l(2) =   0
                l(3) =   1
                l(4) =   1
     Q(r) pseudized with 0 coefficients 


     PseudoPot. # 2 for  N read from file:
     /scratch/ahofstet/pseudo/N.pbe-n-kjpaw_psl.0.1.UPF
     MD5 check sum: f73187c8b701007e77325f868c9291d7
     Pseudo is Projector augmented-wave + core cor, Zval =  5.0
     Generated using "atomic" code by A. Dal Corso  v.5.0.99 svn rev. 10869
     Shape of augmentation charge: PSQ
     Using radial grid of 1085 points,  4 beta functions with: 
                l(1) =   0
                l(2) =   0
                l(3) =   1
                l(4) =   1
     Q(r) pseudized with 0 coefficients 


     PseudoPot. # 3 for  H read from file:
     /scratch/ahofstet/pseudo/H.pbe-kjpaw_psl.0.1.UPF
     MD5 check sum: 94e484f906d9e9773b2f6e52662335b2
     Pseudo is Projector augmented-wave, Zval =  1.0
     Generated using "atomic" code by A. Dal Corso  v.5.0.99 svn rev. 10869
     Shape of augmentation charge: PSQ
     Using radial grid of  929 points,  2 beta functions with: 
                l(1) =   0
                l(2) =   0
     Q(r) pseudized with 0 coefficients 


     PseudoPot. # 4 for  O read from file:
     /scratch/ahofstet/pseudo/O.pbe-n-kjpaw_psl.0.1.UPF
     MD5 check sum: 3f94a2996a3169367d6eb21d9b593f20
     Pseudo is Projector augmented-wave + core cor, Zval =  6.0
     Generated using "atomic" code by A. Dal Corso  v.5.0.99 svn rev. 10869
     Shape of augmentation charge: BESSEL
     Using radial grid of 1095 points,  4 beta functions with: 
                l(1) =   0
                l(2) =   0
                l(3) =   1
                l(4) =   1
     Q(r) pseudized with 0 coefficients 


     atomic species   valence    mass     pseudopotential
        C              4.00    12.01070      C( 1.00)
        N              5.00    14.00670      N( 1.00)
        H              1.00     1.00794      H( 1.00)
        O              6.00    15.99940      O( 1.00)

      2 Sym. Ops. (no inversion) found ( 1 have fractional translation)
          (note:  2 additional sym.ops. were found but ignored
           their fractional translations are incommensurate with FFT grid)


   Cartesian axes

     site n.     atom                  positions (alat units)
         1           C   tau(   1) = (   0.8876117   0.1604330   0.9251813  )
         2           C   tau(   2) = (   0.8876117   0.3903394   2.3614542  )
         3           C   tau(   3) = (   0.3876117   0.7112055   0.5110916  )
         4           C   tau(   4) = (   0.3876117   0.9411119   1.9473646  )
         5           C   tau(   5) = (   0.9490968   0.3671913   0.8100757  )
         6           C   tau(   6) = (   0.9490968   0.1835812   2.2463487  )
         7           C   tau(   7) = (   0.4490968   0.9179637   0.6261972  )
         8           C   tau(   8) = (   0.4490968   0.7343536   2.0624701  )
         9           C   tau(   9) = (   0.9167367   0.5643039   0.9594818  )
        10           C   tau(  10) = (   0.9167367   1.0880134   2.3957547  )
        11           C   tau(  11) = (   0.4167367   0.0135314   0.4767911  )
        12           C   tau(  12) = (   0.4167367   0.5372410   1.9130641  )
        13           C   tau(  13) = (   0.7012762   0.5488067   1.0890516  )
        14           C   tau(  14) = (   0.7012762   1.1035106   2.5253245  )
        15           C   tau(  15) = (   0.2012762  -0.0019657   0.3472213  )
        16           C   tau(  16) = (   0.2012762   0.5527382   1.7834943  )
        17           C   tau(  17) = (   0.7410838   0.4939558   1.3237614  )
        18           C   tau(  18) = (   0.7410838   0.0568166   2.7600343  )
        19           C   tau(  19) = (   0.2410838   1.0447283   0.1125115  )
        20           C   tau(  20) = (   0.2410838   0.6075891   1.5487845  )
        21           C   tau(  21) = (   0.7722035   0.2580236   1.3883841  )
        22           C   tau(  22) = (   0.7722035   0.2927488   2.8246570  )
        23           C   tau(  23) = (   0.2722035   0.8087961   0.0478889  )
        24           C   tau(  24) = (   0.2722035   0.8435213   1.4841618  )
        25           C   tau(  25) = (   0.6660861   0.0897935   1.2399235  )
        26           C   tau(  26) = (   0.6660861   0.4609790   2.6761964  )
        27           C   tau(  27) = (   0.1660861   0.6405659   0.1963494  )
        28           C   tau(  28) = (   0.1660861   1.0117514   1.6326223  )
        29           C   tau(  29) = (   0.5646519   0.3684297   0.9904013  )
        30           C   tau(  30) = (   0.5646519   0.1823427   2.4266742  )
        31           C   tau(  31) = (   0.0646519   0.9192022   0.4458717  )
        32           C   tau(  32) = (   0.0646519   0.7331152   1.8821446  )
        33           N   tau(  33) = (   0.6857756   0.1679547   1.0185183  )
        34           N   tau(  34) = (   0.6857756   0.3828178   2.4547912  )
        35           N   tau(  35) = (   0.1857756   0.7187271   0.4177547  )
        36           N   tau(  36) = (   0.1857756   0.9335902   1.8540276  )
        37           O   tau(  37) = (   0.0078088   0.0026411   0.9432272  )
        38           O   tau(  38) = (   0.0078088   0.5481314   2.3795001  )
        39           O   tau(  39) = (   0.5078088   0.5534135   0.4930458  )
        40           O   tau(  40) = (   0.5078088   1.0989038   1.9293187  )
        41           O   tau(  41) = (   0.7577361   0.6374963   1.4580434  )
        42           O   tau(  42) = (   0.7577361   1.0148211   0.0217704  )
        43           O   tau(  43) = (   0.2577361   0.0867238   2.8507754  )
        44           O   tau(  44) = (   0.2577361   0.4640486   1.4145025  )
        45           H   tau(  45) = (   0.8459020   0.3881202   0.6671672  )
        46           H   tau(  46) = (   0.8459020   0.1626522   2.1034401  )
        47           H   tau(  47) = (   0.3459020   0.9388927   0.7691058  )
        48           H   tau(  48) = (   0.3459020   0.7134247   2.2053787  )
        49           H   tau(  49) = (   0.1163289   0.3537705   0.7549509  )
        50           H   tau(  50) = (   0.1163289   0.1970020   2.1912238  )
        51           H   tau(  51) = (   0.6163289   0.9045429   0.6813220  )
        52           H   tau(  52) = (   0.6163289   0.7477744   2.1175950  )
        53           H   tau(  53) = (   0.9142193   0.7131557   0.8642086  )
        54           H   tau(  54) = (   0.9142193   0.9391616   2.3004815  )
        55           H   tau(  55) = (   0.4142193   0.1623833   0.5720643  )
        56           H   tau(  56) = (   0.4142193   0.3883892   2.0083373  )
        57           H   tau(  57) = (   0.0538563   0.5791673   1.0702939  )
        58           H   tau(  58) = (   0.0538563  -0.0283948   2.5065669  )
        59           H   tau(  59) = (   0.5538563   1.1299397   0.3659790  )
        60           H   tau(  60) = (   0.5538563   0.5223776   1.8022519  )
        61           H   tau(  61) = (   0.6196651   0.7056363   1.0873455  )
        62           H   tau(  62) = (   0.6196651   0.9466811   2.5236184  )
        63           H   tau(  63) = (   0.1196651   0.1548638   0.3489275  )
        64           H   tau(  64) = (   0.1196651   0.3959086   1.7852004  )
        65           H   tau(  65) = (   0.7246827   0.2385838   1.5578006  )
        66           H   tau(  66) = (   0.7246827   0.3121886   0.1215277  )
        67           H   tau(  67) = (   0.2246827   0.7893563   2.7510182  )
        68           H   tau(  68) = (   0.2246827   0.8629611   1.3147453  )
        69           H   tau(  69) = (   0.9484897   0.2349849   1.3811074  )
        70           H   tau(  70) = (   0.9484897   0.3157876   2.8173803  )
        71           H   tau(  71) = (   0.4484897   0.7857573   0.0551655  )
        72           H   tau(  72) = (   0.4484897   0.8665600   1.4914385  )
        73           H   tau(  73) = (   0.4939975   0.0735556   1.2764101  )
        74           H   tau(  74) = (   0.4939975   0.4772168   2.7126830  )
        75           H   tau(  75) = (  -0.0060025   0.6243281   0.1598628  )
        76           H   tau(  76) = (  -0.0060025   1.0279893   1.5961358  )
        77           H   tau(  77) = (   0.7423949   1.0317253   1.2572674  )
        78           H   tau(  78) = (   0.7423949   0.6205921   2.6935403  )
        79           H   tau(  79) = (   0.2423949   0.4809528   0.1790055  )
        80           H   tau(  80) = (   0.2423949   0.0698196   1.6152784  )
        81           H   tau(  81) = (   0.5339437   0.3987455   0.8190750  )
        82           H   tau(  82) = (   0.5339437   0.1520270   2.2553480  )
        83           H   tau(  83) = (   0.0339437   0.9495179   0.6171979  )
        84           H   tau(  84) = (   0.0339437   0.7027994   2.0534708  )
        85           H   tau(  85) = (   0.4113527   0.3492276   1.0742832  )
        86           H   tau(  86) = (   0.4113527   0.2015449   2.5105561  )
        87           H   tau(  87) = (   0.9113527   0.9000000   0.3619898  )
        88           H   tau(  88) = (   0.9113527   0.7523173   1.7982627  )

     number of k points=     4
                       cart. coord. in units 2pi/alat
        k(    1) = (   0.0000000   0.0000000   0.0000000), wk =   0.2222222
        k(    2) = (   0.0000000   0.3026053   0.0000000), wk =   0.4444444
        k(    3) = (   0.3333333   0.0000000   0.0000000), wk =   0.4444444
        k(    4) = (   0.3333333   0.3026053   0.0000000), wk =   0.8888889

     Dense  grid:   692267 G-vectors     FFT dimensions: (  75,  90, 216)

     Estimated max dynamical RAM per process >     443.76MB

     Estimated total allocated dynamical RAM >    3550.12MB

     Check: negative/imaginary core charge=   -0.000002    0.000000

     Initial potential from superposition of free atoms

     starting charge  239.99821, renormalised to  240.00000
     Starting wfc are  220 randomized atomic wfcs
     Checking if some PAW data can be deallocated... 

     total cpu time spent up to now is       17.7 secs

     per-process dynamical memory:   288.3 Mb

     Self-consistent Calculation

     iteration #  1     ecut=   100.00 Ry     beta=0.50
     Davidson diagonalization with overlap
     ethr =  1.00E-02,  avg # of iterations =  4.0

     total cpu time spent up to now is       62.2 secs

     total energy              =   -1087.15646415 Ry
     Harris-Foulkes estimate   =   -1091.58691749 Ry
     estimated scf accuracy    <       8.67568605 Ry

     iteration #  2     ecut=   100.00 Ry     beta=0.50
     Davidson diagonalization with overlap
     ethr =  3.61E-03,  avg # of iterations =  2.0

     total cpu time spent up to now is       84.2 secs

     total energy              =   -1087.61404691 Ry
     Harris-Foulkes estimate   =   -1088.15173343 Ry
     estimated scf accuracy    <       1.13317452 Ry

     iteration #  3     ecut=   100.00 Ry     beta=0.50
     Davidson diagonalization with overlap
     ethr =  4.72E-04,  avg # of iterations =  5.0

     total cpu time spent up to now is      131.2 secs

     total energy              =   -1088.50911591 Ry
     Harris-Foulkes estimate   =   -1089.03970767 Ry
     estimated scf accuracy    <       1.54044105 Ry

     iteration #  4     ecut=   100.00 Ry     beta=0.50
     Davidson diagonalization with overlap
     ethr =  4.72E-04,  avg # of iterations =  1.0

     total cpu time spent up to now is      151.7 secs

     total energy              =   -1088.24480127 Ry
     Harris-Foulkes estimate   =   -1088.58989274 Ry
     estimated scf accuracy    <       0.51086240 Ry

     iteration #  5     ecut=   100.00 Ry     beta=0.50
     Davidson diagonalization with overlap
     ethr =  2.13E-04,  avg # of iterations =  4.5

     total cpu time spent up to now is      197.1 secs

     total energy              =   -1088.56981533 Ry
     Harris-Foulkes estimate   =   -1088.84778624 Ry
     estimated scf accuracy    <       0.78796962 Ry

     iteration #  6     ecut=   100.00 Ry     beta=0.50
     Davidson diagonalization with overlap
     ethr =  2.13E-04,  avg # of iterations =  1.0

     total cpu time spent up to now is      217.4 secs

     total energy              =   -1088.44804206 Ry
     Harris-Foulkes estimate   =   -1088.59448895 Ry
     estimated scf accuracy    <       0.29397774 Ry

     iteration #  7     ecut=   100.00 Ry     beta=0.50
     Davidson diagonalization with overlap
     ethr =  1.22E-04,  avg # of iterations =  5.5

     total cpu time spent up to now is      256.4 secs

     total energy              =   -1088.60779267 Ry
     Harris-Foulkes estimate   =   -1088.61844123 Ry
     estimated scf accuracy    <       0.05356343 Ry

     iteration #  8     ecut=   100.00 Ry     beta=0.50
     Davidson diagonalization with overlap
     ethr =  2.23E-05,  avg # of iterations =  2.5

     total cpu time spent up to now is      277.7 secs

     total energy              =   -1088.59239332 Ry
     Harris-Foulkes estimate   =   -1088.60864738 Ry
     estimated scf accuracy    <       0.03428610 Ry

     iteration #  9     ecut=   100.00 Ry     beta=0.50
     Davidson diagonalization with overlap
     ethr =  1.43E-05,  avg # of iterations =  4.0

     total cpu time spent up to now is      308.6 secs

     total energy              =   -1088.60223457 Ry
     Harris-Foulkes estimate   =   -1088.60236888 Ry
     estimated scf accuracy    <       0.00050485 Ry

     iteration # 10     ecut=   100.00 Ry     beta=0.50
     Davidson diagonalization with overlap
     c_bands:  1 eigenvalues not converged
     ethr =  2.10E-07,  avg # of iterations = 11.0

     total cpu time spent up to now is      355.6 secs

     total energy              =   -1088.60242385 Ry
     Harris-Foulkes estimate   =   -1088.60256427 Ry
     estimated scf accuracy    <       0.00032358 Ry

     iteration # 11     ecut=   100.00 Ry     beta=0.50
     Davidson diagonalization with overlap
     ethr =  1.35E-07,  avg # of iterations =  2.5

     total cpu time spent up to now is      376.6 secs

     total energy              =   -1088.60238789 Ry
     Harris-Foulkes estimate   =   -1088.60243913 Ry
     estimated scf accuracy    <       0.00008509 Ry

     iteration # 12     ecut=   100.00 Ry     beta=0.50
     Davidson diagonalization with overlap
     ethr =  3.55E-08,  avg # of iterations =  4.0

     total cpu time spent up to now is      419.1 secs

     total energy              =   -1088.60245153 Ry
     Harris-Foulkes estimate   =   -1088.60249720 Ry
     estimated scf accuracy    <       0.00010722 Ry

     iteration # 13     ecut=   100.00 Ry     beta=0.50
     Davidson diagonalization with overlap
     ethr =  3.55E-08,  avg # of iterations =  1.0

     total cpu time spent up to now is      439.4 secs

     total energy              =   -1088.60243585 Ry
     Harris-Foulkes estimate   =   -1088.60245618 Ry
     estimated scf accuracy    <       0.00002904 Ry

     iteration # 14     ecut=   100.00 Ry     beta=0.50
     Davidson diagonalization with overlap
     ethr =  1.21E-08,  avg # of iterations =  4.0

     total cpu time spent up to now is      483.7 secs

     total energy              =   -1088.60246160 Ry
     Harris-Foulkes estimate   =   -1088.60248534 Ry
     estimated scf accuracy    <       0.00006552 Ry

     iteration # 15     ecut=   100.00 Ry     beta=0.50
     Davidson diagonalization with overlap
     ethr =  1.21E-08,  avg # of iterations =  1.0

     total cpu time spent up to now is      503.9 secs

     total energy              =   -1088.60245158 Ry
     Harris-Foulkes estimate   =   -1088.60246344 Ry
     estimated scf accuracy    <       0.00002471 Ry

     iteration # 16     ecut=   100.00 Ry     beta=0.50
     Davidson diagonalization with overlap
     ethr =  1.03E-08,  avg # of iterations =  3.0

     total cpu time spent up to now is      540.6 secs

     total energy              =   -1088.60246472 Ry
     Harris-Foulkes estimate   =   -1088.60246635 Ry
     estimated scf accuracy    <       0.00000430 Ry

     iteration # 17     ecut=   100.00 Ry     beta=0.50
     Davidson diagonalization with overlap
     ethr =  1.79E-09,  avg # of iterations =  1.0

     total cpu time spent up to now is      560.9 secs

     total energy              =   -1088.60246417 Ry
     Harris-Foulkes estimate   =   -1088.60246488 Ry
     estimated scf accuracy    <       0.00000150 Ry

     iteration # 18     ecut=   100.00 Ry     beta=0.50
     Davidson diagonalization with overlap
     ethr =  6.27E-10,  avg # of iterations =  4.0

     total cpu time spent up to now is      599.1 secs

     total energy              =   -1088.60246506 Ry
     Harris-Foulkes estimate   =   -1088.60246515 Ry
     estimated scf accuracy    <       0.00000027 Ry

     iteration # 19     ecut=   100.00 Ry     beta=0.50
     Davidson diagonalization with overlap
     ethr =  1.12E-10,  avg # of iterations =  1.0

     total cpu time spent up to now is      619.4 secs

     total energy              =   -1088.60246504 Ry
     Harris-Foulkes estimate   =   -1088.60246507 Ry
     estimated scf accuracy    <       0.00000010 Ry

     iteration # 20     ecut=   100.00 Ry     beta=0.50
     Davidson diagonalization with overlap
     ethr =  4.37E-11,  avg # of iterations =  3.2

     total cpu time spent up to now is      653.0 secs

     End of self-consistent calculation

          k = 0.0000 0.0000 0.0000 ( 86595 PWs)   bands (ev):

   -19.8171 -19.8159 -19.6579 -19.6551 -19.5377 -19.5322 -19.5208 -19.5169
   -17.3262 -17.3215 -17.3016 -17.2969 -13.7173 -13.7074 -13.6825 -13.6719
   -12.9269 -12.9184 -12.9160 -12.9113 -11.9964 -11.9848 -11.9700 -11.9546
   -10.3715 -10.3091 -10.2224 -10.1539  -9.9504  -9.8994  -9.8851  -9.8398
    -8.5652  -8.5515  -8.4678  -8.4584  -7.7169  -7.6246  -7.6203  -7.5371
    -6.1617  -6.1610  -5.9119  -5.7884  -5.7741  -5.7521  -5.6655  -5.6570
    -5.5951  -5.5775  -5.4986  -5.4737  -5.2372  -5.1943  -5.1366  -5.1001
    -5.0778  -5.0421  -4.8571  -4.8230  -4.7450  -4.7350  -4.5305  -4.4979
    -4.2379  -4.1585  -4.1463  -4.1175  -3.9768  -3.9192  -3.8099  -3.6917
    -3.6027  -3.5179  -3.4864  -3.4854  -3.2906  -3.2218  -3.2029  -3.1484
    -3.1261  -2.9828  -2.9624  -2.9104  -2.8978  -2.8496  -2.7261  -2.6017
    -2.5657  -2.5408  -2.5280  -2.4720  -2.2289  -2.2101  -2.1611  -2.1115
    -1.8405  -1.8401  -1.8382  -1.7582  -1.6981  -1.6730  -1.6650  -1.6541
    -1.5553  -1.5348  -1.4852  -1.4768   0.1344   0.1835   0.2696   0.3150
     0.4640   0.5297   0.6274   0.6695   0.6908   0.7164   0.7437   0.8252
     4.2296   4.3080   4.8690   4.9504   5.1695   5.2327   5.3087   5.3267
     6.2658   6.4823   6.7170   7.2079   7.3656   7.4191   7.6414   7.9160
     7.9719   8.2518   8.2770   8.2793   8.2976   8.4777   8.4863   8.6537

          k = 0.0000 0.3026 0.0000 ( 86447 PWs)   bands (ev):

   -19.8150 -19.8144 -19.6556 -19.6542 -19.5333 -19.5294 -19.5248 -19.5217
   -17.3248 -17.3140 -17.3125 -17.3016 -13.7360 -13.7195 -13.7029 -13.6853
   -12.9874 -12.9830 -12.8499 -12.8484 -12.0200 -12.0059 -11.9737 -11.9599
   -10.2638 -10.2350 -10.1858 -10.1523  -9.9222  -9.9013  -9.8988  -9.8673
    -8.4862  -8.4791  -8.4314  -8.4296  -7.6502  -7.6052  -7.5357  -7.4841
    -6.0868  -6.0311  -5.9646  -5.8504  -5.8136  -5.8061  -5.7247  -5.6970
    -5.5797  -5.5584  -5.5417  -5.4835  -5.4212  -5.3747  -5.2452  -5.1975
    -5.1766  -5.1439  -4.9166  -4.8626  -4.6961  -4.6934  -4.5214  -4.4886
    -4.2654  -4.2187  -4.1338  -4.1239  -4.0421  -3.9772  -3.8901  -3.8286
    -3.4971  -3.4662  -3.4387  -3.4024  -3.3793  -3.2692  -3.1874  -3.1650
    -3.1148  -3.0421  -3.0245  -2.9444  -2.8749  -2.8675  -2.6772  -2.6212
    -2.5718  -2.5658  -2.4862  -2.4451  -2.2604  -2.2553  -2.1876  -2.1837
    -1.8812  -1.8223  -1.8029  -1.7604  -1.7075  -1.6994  -1.6487  -1.6048
    -1.5091  -1.5013  -1.4689  -1.4600   0.3138   0.3422   0.3842   0.4286
     0.5570   0.5896   0.6598   0.7032   0.7407   0.7692   0.9136   0.9263
     4.2240   4.2629   4.9231   4.9377   5.3351   5.3823   5.4026   5.4041
     6.4054   6.6959   6.7867   7.0833   7.2623   7.3367   7.4203   7.5186
     7.9931   8.0937   8.1304   8.3222   8.3437   8.4415   8.5162   8.6197

          k = 0.3333 0.0000 0.0000 ( 86532 PWs)   bands (ev):

   -19.7769 -19.7762 -19.6966 -19.6957 -19.5313 -19.5293 -19.5230 -19.5211
   -17.3217 -17.3193 -17.3094 -17.3070 -13.6959 -13.6903 -13.6781 -13.6730
   -12.9212 -12.9173 -12.9162 -12.9139 -12.0246 -12.0187 -12.0125 -12.0021
   -10.3230 -10.2907 -10.2458 -10.2143  -9.8803  -9.8574  -9.8471  -9.8247
    -8.5601  -8.5461  -8.5088  -8.5075  -7.6972  -7.6500  -7.6476  -7.6023
    -6.0946  -6.0819  -5.9708  -5.9295  -5.7405  -5.7113  -5.6504  -5.6423
    -5.4636  -5.4246  -5.3914  -5.3824  -5.1975  -5.1626  -5.1375  -5.1153
    -5.0537  -5.0225  -4.9383  -4.9198  -4.6778  -4.6710  -4.5791  -4.5217
    -4.1721  -4.1587  -4.1548  -4.1464  -3.8775  -3.8442  -3.8169  -3.7728
    -3.5731  -3.5611  -3.5363  -3.4843  -3.2233  -3.2191  -3.2148  -3.1880
    -3.0738  -3.0469  -2.9989  -2.9454  -2.9319  -2.9083  -2.7588  -2.7343
    -2.6036  -2.5983  -2.5885  -2.5167  -2.2269  -2.1845  -2.1764  -2.1723
    -1.8940  -1.8038  -1.8006  -1.7989  -1.6595  -1.6517  -1.6334  -1.6222
    -1.5585  -1.5054  -1.5001  -1.4824   0.1942   0.2117   0.2592   0.2797
     0.5129   0.5689   0.6325   0.6381   0.6925   0.6965   0.7153   0.7785
     4.4180   4.4630   4.7353   4.7703   5.1699   5.2105   5.2377   5.2563
     6.5567   6.7604   6.9182   7.0381   7.3553   7.3838   7.4666   7.6775
     7.8363   7.8763   7.9506   8.0718   8.4054   8.4158   8.4624   8.5900

          k = 0.3333 0.3026 0.0000 ( 86499 PWs)   bands (ev):

   -19.7750 -19.7747 -19.6948 -19.6944 -19.5324 -19.5282 -19.5247 -19.5205
   -17.3314 -17.3253 -17.3066 -17.3004 -13.7196 -13.7110 -13.6899 -13.6815
   -12.9525 -12.9512 -12.8834 -12.8820 -12.0441 -12.0377 -12.0207 -12.0130
   -10.2413 -10.2301 -10.1979 -10.1782  -9.8844  -9.8707  -9.8384  -9.8212
    -8.4976  -8.4933  -8.4485  -8.4473  -7.6489  -7.6184  -7.5702  -7.5502
    -6.0549  -6.0070  -5.9611  -5.8868  -5.8303  -5.8116  -5.7179  -5.7037
    -5.5057  -5.4725  -5.4283  -5.4264  -5.3398  -5.3349  -5.2817  -5.2364
    -5.0631  -5.0281  -4.9081  -4.8945  -4.6541  -4.6485  -4.5429  -4.5170
    -4.2667  -4.2290  -4.1516  -4.1462  -4.0626  -4.0111  -3.8537  -3.7933
    -3.5250  -3.5029  -3.4239  -3.3728  -3.2881  -3.2777  -3.2170  -3.2061
    -3.1419  -3.0725  -3.0596  -2.9947  -2.9299  -2.9026  -2.7730  -2.7639
    -2.6338  -2.6133  -2.4674  -2.4672  -2.2575  -2.2313  -2.1894  -2.1833
    -1.8512  -1.8148  -1.7931  -1.7666  -1.7049  -1.6725  -1.6507  -1.6320
    -1.5013  -1.5005  -1.4604  -1.4546   0.3485   0.3865   0.3916   0.4281
     0.5196   0.5525   0.6930   0.7090   0.7824   0.8173   0.8672   0.8702
     4.4192   4.4405   4.7621   4.7673   5.2115   5.2187   5.4334   5.4465
     6.5895   6.7651   6.9101   7.0800   7.3237   7.3759   7.5105   7.5270
     7.7879   7.8407   8.0582   8.0959   8.1971   8.2231   8.4893   8.5202

     highest occupied, lowest unoccupied level (ev):     0.9263    4.2240

!    total energy              =   -1088.60246507 Ry
     Harris-Foulkes estimate   =   -1088.60246507 Ry
     estimated scf accuracy    <          5.0E-09 Ry

     total all-electron energy =     -4133.023864 Ry

     The total energy is the sum of the following terms:

     one-electron contribution =    -604.61561033 Ry
     hartree contribution      =     394.39628318 Ry
     xc contribution           =    -245.36883367 Ry
     ewald contribution        =    -310.51590075 Ry
     Dispersion Correction     =      -0.41746250 Ry
     one-center paw contrib.   =    -322.08094099 Ry

     convergence has been achieved in  20 iterations

     Forces acting on atoms (cartesian axes, Ry/au):

     atom    1 type  1   force =     0.00145313    0.00174791   -0.00629093
     atom    2 type  1   force =     0.00145313   -0.00174791   -0.00629093
     atom    3 type  1   force =     0.00147291    0.00174776    0.00628985
     atom    4 type  1   force =     0.00147291   -0.00174776    0.00628985
     atom    5 type  1   force =    -0.00201275   -0.00483719   -0.00494011
     atom    6 type  1   force =    -0.00201275    0.00483719   -0.00494011
     atom    7 type  1   force =    -0.00202346   -0.00483722    0.00494016
     atom    8 type  1   force =    -0.00202346    0.00483722    0.00494016
     atom    9 type  1   force =    -0.00066564    0.00015124    0.00147397
     atom   10 type  1   force =    -0.00066564   -0.00015124    0.00147397
     atom   11 type  1   force =    -0.00064405    0.00015133   -0.00147338
     atom   12 type  1   force =    -0.00064405   -0.00015133   -0.00147338
     atom   13 type  1   force =     0.00220754   -0.00041056   -0.00045151
     atom   14 type  1   force =     0.00220754    0.00041056   -0.00045151
     atom   15 type  1   force =     0.00221552   -0.00041091    0.00045201
     atom   16 type  1   force =     0.00221552    0.00041091    0.00045201
     atom   17 type  1   force =    -0.00072911   -0.00946007    0.00165206
     atom   18 type  1   force =    -0.00072911    0.00946007    0.00165206
     atom   19 type  1   force =    -0.00073225   -0.00946029   -0.00165181
     atom   20 type  1   force =    -0.00073225    0.00946029   -0.00165181
     atom   21 type  1   force =     0.00239364    0.00802311    0.00219886
     atom   22 type  1   force =     0.00239364   -0.00802311    0.00219886
     atom   23 type  1   force =     0.00241491    0.00802328   -0.00219870
     atom   24 type  1   force =     0.00241491   -0.00802328   -0.00219870
     atom   25 type  1   force =     0.00067687   -0.00848826    0.00103274
     atom   26 type  1   force =     0.00067687    0.00848826    0.00103274
     atom   27 type  1   force =     0.00066767   -0.00848813   -0.00103202
     atom   28 type  1   force =     0.00066767    0.00848813   -0.00103202
     atom   29 type  1   force =     0.00244539   -0.00098189   -0.00638203
     atom   30 type  1   force =     0.00244539    0.00098189   -0.00638203
     atom   31 type  1   force =     0.00243578   -0.00098154    0.00638164
     atom   32 type  1   force =     0.00243578    0.00098154    0.00638164
     atom   33 type  2   force =    -0.00190579    0.00036907   -0.00250278
     atom   34 type  2   force =    -0.00190579   -0.00036907   -0.00250278
     atom   35 type  2   force =    -0.00190555    0.00036867    0.00250338
     atom   36 type  2   force =    -0.00190555   -0.00036867    0.00250338
     atom   37 type  4   force =     0.00233746    0.00357125    0.00778312
     atom   38 type  4   force =     0.00233746   -0.00357125    0.00778312
     atom   39 type  4   force =     0.00233902    0.00357199   -0.00778309
     atom   40 type  4   force =     0.00233902   -0.00357199   -0.00778309
     atom   41 type  4   force =     0.00208821    0.00443989    0.00812178
     atom   42 type  4   force =     0.00208821   -0.00443989    0.00812178
     atom   43 type  4   force =     0.00208819    0.00444002   -0.00812222
     atom   44 type  4   force =     0.00208819   -0.00444002   -0.00812222
     atom   45 type  3   force =     0.00084431    0.00068778    0.00066783
     atom   46 type  3   force =     0.00084431   -0.00068778    0.00066783
     atom   47 type  3   force =     0.00084412    0.00068782   -0.00066758
     atom   48 type  3   force =     0.00084412   -0.00068782   -0.00066758
     atom   49 type  3   force =    -0.00172252    0.00039885    0.00064794
     atom   50 type  3   force =    -0.00172252   -0.00039885    0.00064794
     atom   51 type  3   force =    -0.00172231    0.00039888   -0.00064818
     atom   52 type  3   force =    -0.00172231   -0.00039888   -0.00064818
     atom   53 type  3   force =    -0.00014691   -0.00342866   -0.00001964
     atom   54 type  3   force =    -0.00014691    0.00342866   -0.00001964
     atom   55 type  3   force =    -0.00014700   -0.00342860    0.00001963
     atom   56 type  3   force =    -0.00014700    0.00342860    0.00001963
     atom   57 type  3   force =     0.00049209   -0.00227426    0.00087086
     atom   58 type  3   force =     0.00049209    0.00227426    0.00087086
     atom   59 type  3   force =     0.00049222   -0.00227415   -0.00087135
     atom   60 type  3   force =     0.00049222    0.00227415   -0.00087135
     atom   61 type  3   force =    -0.00117374   -0.00089987   -0.00186248
     atom   62 type  3   force =    -0.00117374    0.00089987   -0.00186248
     atom   63 type  3   force =    -0.00117375   -0.00090006    0.00186236
     atom   64 type  3   force =    -0.00117375    0.00090006    0.00186236
     atom   65 type  3   force =    -0.00052132    0.00081379   -0.00056724
     atom   66 type  3   force =    -0.00052132   -0.00081379   -0.00056724
     atom   67 type  3   force =    -0.00052118    0.00081382    0.00056734
     atom   68 type  3   force =    -0.00052118   -0.00081382    0.00056734
     atom   69 type  3   force =    -0.00079397    0.00050753    0.00029482
     atom   70 type  3   force =    -0.00079397   -0.00050753    0.00029482
     atom   71 type  3   force =    -0.00079223    0.00050736   -0.00029473
     atom   72 type  3   force =    -0.00079223   -0.00050736   -0.00029473
     atom   73 type  3   force =     0.00105782   -0.00026649    0.00013684
     atom   74 type  3   force =     0.00105782    0.00026649    0.00013684
     atom   75 type  3   force =     0.00105650   -0.00026662   -0.00013705
     atom   76 type  3   force =     0.00105650    0.00026662   -0.00013705
     atom   77 type  3   force =    -0.00177673    0.00944973   -0.00164138
     atom   78 type  3   force =    -0.00177673   -0.00944973   -0.00164138
     atom   79 type  3   force =    -0.00177683    0.00944970    0.00164134
     atom   80 type  3   force =    -0.00177683   -0.00944970    0.00164134
     atom   81 type  3   force =     0.00059964    0.00046562    0.00207293
     atom   82 type  3   force =     0.00059964   -0.00046562    0.00207293
     atom   83 type  3   force =     0.00059998    0.00046561   -0.00207308
     atom   84 type  3   force =     0.00059998   -0.00046561   -0.00207308
     atom   85 type  3   force =    -0.00516803    0.00334159    0.00017068
     atom   86 type  3   force =    -0.00516803   -0.00334159    0.00017068
     atom   87 type  3   force =    -0.00516780    0.00334161   -0.00017085
     atom   88 type  3   force =    -0.00516780   -0.00334161   -0.00017085

     Total force =     0.054498     Total SCF correction =     0.000138


     Computing stress (Cartesian axis) and pressure

          total   stress  (Ry/bohr**3)                   (kbar)     P=   -5.95
  -0.00003839   0.00000000  -0.00000000         -5.65      0.00     -0.00
   0.00000000  -0.00009469   0.00000000          0.00    -13.93      0.00
  -0.00000000   0.00000000   0.00001172         -0.00      0.00      1.72


     Writing output data file scf.save
 
     init_run     :     16.44s CPU     17.05s WALL (       1 calls)
     electrons    :    611.21s CPU    635.33s WALL (       1 calls)
     forces       :      8.87s CPU      8.99s WALL (       1 calls)
     stress       :     29.80s CPU     29.97s WALL (       1 calls)

     Called by init_run:
     wfcinit      :     11.56s CPU     12.05s WALL (       1 calls)
     potinit      :      1.81s CPU      1.83s WALL (       1 calls)

     Called by electrons:
     c_bands      :    540.27s CPU    560.02s WALL (      20 calls)
     sum_band     :     56.82s CPU     59.96s WALL (      20 calls)
     v_of_rho     :      2.06s CPU      2.22s WALL (      21 calls)
     newd         :      4.08s CPU      5.15s WALL (      21 calls)
     PAW_pot      :      7.26s CPU      7.27s WALL (      21 calls)
     mix_rho      :      0.54s CPU      0.57s WALL (      20 calls)

     Called by c_bands:
     init_us_2    :      3.05s CPU      3.09s WALL (     172 calls)
     cegterg      :    527.46s CPU    547.16s WALL (      80 calls)

     Called by sum_band:
     sum_band:bec :      0.03s CPU      0.03s WALL (      80 calls)
     addusdens    :      4.18s CPU      5.18s WALL (      20 calls)

     Called by *egterg:
     h_psi        :    290.43s CPU    305.63s WALL (     345 calls)
     s_psi        :     56.16s CPU     56.17s WALL (     345 calls)
     g_psi        :      1.53s CPU      1.53s WALL (     261 calls)
     cdiaghg      :     25.18s CPU     25.18s WALL (     341 calls)

     Called by h_psi:
     h_psi:pot    :    288.54s CPU    303.71s WALL (     345 calls)
     h_psi:calbec :     60.00s CPU     60.15s WALL (     345 calls)
     vloc_psi     :    172.57s CPU    187.60s WALL (     345 calls)
     add_vuspsi   :     55.97s CPU     55.96s WALL (     345 calls)

     General routines
     calbec       :     86.55s CPU     86.76s WALL (     445 calls)
     fft          :      2.64s CPU      2.89s WALL (     297 calls)
     fftw         :    186.72s CPU    203.35s WALL (   81098 calls)
 
     Parallel routines
     fft_scatter  :     51.21s CPU     64.06s WALL (   81395 calls)
 
     PWSCF        : 11m10.16s CPU    11m54.11s WALL

 
   This run was terminated on:  11:10:45  18Dec2017            

=------------------------------------------------------------------------------=
   JOB DONE.
=------------------------------------------------------------------------------=
