
     Program PWSCF v.6.1 (svn rev. 13369) starts on 17Dec2017 at 11:28:52 

     This program is part of the open-source Quantum ESPRESSO suite
     for quantum simulation of materials; please cite
         "P. Giannozzi et al., J. Phys.:Condens. Matter 21 395502 (2009);
          URL http://www.quantum-espresso.org", 
     in publications or presentations arising from this work. More details at
     http://www.quantum-espresso.org/quote

     Parallel version (MPI), running on     8 processors
     R & G space division:  proc/nbgrp/npool/nimage =       8
     Waiting for input...
     Reading input from standard input

     Current dimensions of program PWSCF are:
     Max number of different atomic species (ntypx) = 10
     Max number of k-points (npk) =  40000
     Max angular momentum in pseudopotentials (lmaxx) =  3
               file C.pbe-n-kjpaw_psl.0.1.UPF: wavefunction(s)  2P renormalized
               file N.pbe-n-kjpaw_psl.0.1.UPF: wavefunction(s)  2P renormalized
               file H.pbe-kjpaw_psl.0.1.UPF: wavefunction(s)  1S renormalized
               file O.pbe-n-kjpaw_psl.0.1.UPF: wavefunction(s)  2P renormalized

     -------------------------------------
     Parameters for Dispersion Correction:
     -------------------------------------
       atom      VdW radius       C_6     

        C          2.744         60.710
        N          2.640         42.670
        H          1.892          4.857
        O          2.536         24.284

     Subspace diagonalization in iterative solution of the eigenvalue problem:
     a serial algorithm will be used

 
     Parallelization info
     --------------------
     sticks:   dense  smooth     PW     G-vecs:    dense   smooth      PW
     Min         817     817    219                83987    83987   11713
     Max         818     818    220                83990    83990   11720
     Sum        6537    6537   1759               671907   671907   93733
 


     bravais-lattice index     =            0
     lattice parameter (alat)  =      10.0344  a.u.
     unit-cell volume          =    4974.2234 (a.u.)^3
     number of atoms/cell      =           80
     number of atomic types    =            4
     number of electrons       =       264.00
     number of Kohn-Sham states=          158
     kinetic-energy cutoff     =     100.0000  Ry
     charge density cutoff     =     400.0000  Ry
     convergence threshold     =      1.0E-08
     mixing beta               =       0.5000
     number of iterations used =            8  plain     mixing
     Exchange-correlation      =  SLA  PW   PBX  PBC ( 1  4  3  4 0 0)

     celldm(1)=  10.034446  celldm(2)=   0.000000  celldm(3)=   0.000000
     celldm(4)=   0.000000  celldm(5)=   0.000000  celldm(6)=   0.000000

     crystal axes: (cart. coord. in units of alat)
               a(1) = (   1.000000   0.000000   0.000000 )  
               a(2) = (   0.000000   2.041168   0.000000 )  
               a(3) = (   0.000000   0.000000   2.411940 )  

     reciprocal axes: (cart. coord. in units 2 pi/alat)
               b(1) = (  1.000000  0.000000  0.000000 )  
               b(2) = (  0.000000  0.489916  0.000000 )  
               b(3) = (  0.000000  0.000000  0.414604 )  


     PseudoPot. # 1 for  C read from file:
     /scratch/ahofstet/pseudo/C.pbe-n-kjpaw_psl.0.1.UPF
     MD5 check sum: 430fe95172b1e11ef3f8ed03bac87931
     Pseudo is Projector augmented-wave + core cor, Zval =  4.0
     Generated using "atomic" code by A. Dal Corso  v.5.0.99 svn rev. 10869
     Shape of augmentation charge: BESSEL
     Using radial grid of 1073 points,  4 beta functions with: 
                l(1) =   0
                l(2) =   0
                l(3) =   1
                l(4) =   1
     Q(r) pseudized with 0 coefficients 


     PseudoPot. # 2 for  N read from file:
     /scratch/ahofstet/pseudo/N.pbe-n-kjpaw_psl.0.1.UPF
     MD5 check sum: f73187c8b701007e77325f868c9291d7
     Pseudo is Projector augmented-wave + core cor, Zval =  5.0
     Generated using "atomic" code by A. Dal Corso  v.5.0.99 svn rev. 10869
     Shape of augmentation charge: PSQ
     Using radial grid of 1085 points,  4 beta functions with: 
                l(1) =   0
                l(2) =   0
                l(3) =   1
                l(4) =   1
     Q(r) pseudized with 0 coefficients 


     PseudoPot. # 3 for  H read from file:
     /scratch/ahofstet/pseudo/H.pbe-kjpaw_psl.0.1.UPF
     MD5 check sum: 94e484f906d9e9773b2f6e52662335b2
     Pseudo is Projector augmented-wave, Zval =  1.0
     Generated using "atomic" code by A. Dal Corso  v.5.0.99 svn rev. 10869
     Shape of augmentation charge: PSQ
     Using radial grid of  929 points,  2 beta functions with: 
                l(1) =   0
                l(2) =   0
     Q(r) pseudized with 0 coefficients 


     PseudoPot. # 4 for  O read from file:
     /scratch/ahofstet/pseudo/O.pbe-n-kjpaw_psl.0.1.UPF
     MD5 check sum: 3f94a2996a3169367d6eb21d9b593f20
     Pseudo is Projector augmented-wave + core cor, Zval =  6.0
     Generated using "atomic" code by A. Dal Corso  v.5.0.99 svn rev. 10869
     Shape of augmentation charge: BESSEL
     Using radial grid of 1095 points,  4 beta functions with: 
                l(1) =   0
                l(2) =   0
                l(3) =   1
                l(4) =   1
     Q(r) pseudized with 0 coefficients 


     atomic species   valence    mass     pseudopotential
        C              4.00    12.01070      C( 1.00)
        N              5.00    14.00670      N( 1.00)
        H              1.00     1.00794      H( 1.00)
        O              6.00    15.99940      O( 1.00)

      2 Sym. Ops. (no inversion) found ( 1 have fractional translation)
          (note:  2 additional sym.ops. were found but ignored
           their fractional translations are incommensurate with FFT grid)


   Cartesian axes

     site n.     atom                  positions (alat units)
         1           O   tau(   1) = (   0.1104675   0.5234411   0.1720408  )
         2           O   tau(   2) = (   0.3895325   1.5177265   1.3780106  )
         3           O   tau(   3) = (   0.6104675   0.4971427   2.2398990  )
         4           O   tau(   4) = (   0.8895325   1.5440249   1.0339291  )
         5           O   tau(   5) = (   0.1000422   0.9295953   0.0655495  )
         6           O   tau(   6) = (   0.3999578   1.1115723   1.2715194  )
         7           O   tau(   7) = (   0.6000422   0.0909885   2.3463902  )
         8           O   tau(   8) = (   0.8999578   1.9501791   1.1404204  )
         9           O   tau(   9) = (   0.1403904   0.2715400   0.5382732  )
        10           O   tau(  10) = (   0.3596096   1.7696276   1.7442430  )
        11           O   tau(  11) = (   0.6403904   0.7490438   1.8736666  )
        12           O   tau(  12) = (   0.8596096   1.2921238   0.6676967  )
        13           O   tau(  13) = (   0.2725107   0.7956127   0.6587737  )
        14           O   tau(  14) = (   0.2274893   1.2455550   1.8647436  )
        15           O   tau(  15) = (   0.7725107   0.2249711   1.7531660  )
        16           O   tau(  16) = (   0.7274893   1.8161965   0.5471961  )
        17           O   tau(  17) = (   0.2491819   0.6707695   1.0671563  )
        18           O   tau(  18) = (   0.2508181   1.3703982   2.2731262  )
        19           O   tau(  19) = (   0.7491819   0.3498143   1.3447834  )
        20           O   tau(  20) = (   0.7508181   1.6913533   0.1388135  )
        21           C   tau(  21) = (   1.0091869   0.7562338   0.1871589  )
        22           C   tau(  22) = (   0.4908131   1.2849338   1.3931288  )
        23           C   tau(  23) = (   0.5091869   0.2643500   2.2247808  )
        24           C   tau(  24) = (  -0.0091869   1.7768176   1.0188109  )
        25           C   tau(  25) = (   0.7823225   0.7613866   0.3551689  )
        26           C   tau(  26) = (   0.7176775   1.2797811   1.5611388  )
        27           C   tau(  27) = (   0.2823225   0.2591972   2.0567708  )
        28           C   tau(  28) = (   0.2176775   1.7819704   0.8508010  )
        29           C   tau(  29) = (   0.7552290   0.4928993   0.4553570  )
        30           C   tau(  30) = (   0.7447710   1.5482683   1.6613268  )
        31           C   tau(  31) = (   0.2552290   0.5276845   1.9565828  )
        32           C   tau(  32) = (   0.2447710   1.5134831   0.7506129  )
        33           C   tau(  33) = (  -0.0197259   0.3485836   0.3417956  )
        34           C   tau(  34) = (   0.5197259   1.6925841   1.5477654  )
        35           C   tau(  35) = (   0.4802741   0.6720002   2.0701442  )
        36           C   tau(  36) = (   1.0197259   1.3691674   0.8641743  )
        37           C   tau(  37) = (   0.7887612   0.4560886   0.7399964  )
        38           C   tau(  38) = (   0.7112388   1.5850790   1.9459663  )
        39           C   tau(  39) = (   0.2887612   0.5644952   1.6719433  )
        40           C   tau(  40) = (   0.2112388   1.4766724   0.4659734  )
        41           C   tau(  41) = (   0.0728678   0.3935219   0.7693796  )
        42           C   tau(  42) = (   0.4271322   1.6476457   1.9753495  )
        43           C   tau(  43) = (   0.5728678   0.6270619   1.6425601  )
        44           C   tau(  44) = (   0.9271322   1.4141057   0.4365903  )
        45           C   tau(  45) = (   0.2151703   0.6407569   0.8189043  )
        46           C   tau(  46) = (   0.2848297   1.4004107   2.0248742  )
        47           C   tau(  47) = (   0.7151703   0.3798269   1.5930354  )
        48           C   tau(  48) = (   0.7848297   1.6613407   0.3870656  )
        49           H   tau(  49) = (   0.8089597   0.9026996   0.5036154  )
        50           H   tau(  50) = (   0.6910403   1.1384680   1.7095853  )
        51           H   tau(  51) = (   0.3089597   0.1178842   1.9083243  )
        52           H   tau(  52) = (   0.1910403   1.9232834   0.7023544  )
        53           H   tau(  53) = (   0.6156386   0.8199282   0.2449237  )
        54           H   tau(  54) = (   0.8843614   1.2212394   1.4508936  )
        55           H   tau(  55) = (   0.1156386   0.2006556   2.1670160  )
        56           H   tau(  56) = (   0.3843614   1.8405120   0.9610462  )
        57           H   tau(  57) = (   0.5770247   0.4111672   0.3926183  )
        58           H   tau(  58) = (   0.9229753   1.6300004   1.5985882  )
        59           H   tau(  59) = (   0.0770247   0.6094166   2.0193215  )
        60           H   tau(  60) = (   0.4229753   1.4317510   0.8133516  )
        61           H   tau(  61) = (  -0.0647435   0.1847785   0.2256126  )
        62           H   tau(  62) = (   0.5647435   1.8563891   1.4315824  )
        63           H   tau(  63) = (   0.4352565   0.8358053   2.1863272  )
        64           H   tau(  64) = (   1.0647435   1.2053623   0.9803573  )
        65           H   tau(  65) = (   0.7308027   0.6212299   0.8505790  )
        66           H   tau(  66) = (   0.7691973   1.4199377   2.0565488  )
        67           H   tau(  67) = (   0.2308027   0.3993539   1.5613608  )
        68           H   tau(  68) = (   0.2691973   1.6418138   0.3553909  )
        69           H   tau(  69) = (   0.6816299   0.2918860   0.8051877  )
        70           H   tau(  70) = (   0.8183701   1.7492816   2.0111576  )
        71           H   tau(  71) = (   0.1816299   0.7286978   1.6067520  )
        72           H   tau(  72) = (   0.3183701   1.3124698   0.4007821  )
        73           H   tau(  73) = (   0.3192812   0.8395921   1.1081835  )
        74           H   tau(  74) = (   0.1807188   1.2015755   2.3141533  )
        75           H   tau(  75) = (   0.8192812   0.1809917   1.3037563  )
        76           H   tau(  76) = (   0.6807188   1.8601759   0.0977864  )
        77           H   tau(  77) = (   0.1067114   0.2602377   0.9228936  )
        78           H   tau(  78) = (   0.3932886   1.7809300   2.1288634  )
        79           H   tau(  79) = (   0.6067114   0.7603462   1.4890462  )
        80           H   tau(  80) = (   0.8932886   1.2808215   0.2830763  )

     number of k points=    12
                       cart. coord. in units 2pi/alat
        k(    1) = (   0.0000000   0.0000000   0.0000000), wk =   0.1250000
        k(    2) = (   0.0000000   0.0000000  -0.2073020), wk =   0.1250000
        k(    3) = (   0.0000000  -0.2449578   0.0000000), wk =   0.1250000
        k(    4) = (   0.0000000  -0.2449578  -0.2073020), wk =   0.1250000
        k(    5) = (   0.2500000   0.0000000   0.0000000), wk =   0.2500000
        k(    6) = (   0.2500000   0.0000000  -0.2073020), wk =   0.2500000
        k(    7) = (   0.2500000  -0.2449578   0.0000000), wk =   0.2500000
        k(    8) = (   0.2500000  -0.2449578  -0.2073020), wk =   0.2500000
        k(    9) = (  -0.5000000   0.0000000   0.0000000), wk =   0.1250000
        k(   10) = (  -0.5000000   0.0000000  -0.2073020), wk =   0.1250000
        k(   11) = (  -0.5000000  -0.2449578   0.0000000), wk =   0.1250000
        k(   12) = (  -0.5000000  -0.2449578  -0.2073020), wk =   0.1250000

     Dense  grid:   671907 G-vectors     FFT dimensions: (  64, 135, 160)

     Estimated max dynamical RAM per process >     665.94MB

     Estimated total allocated dynamical RAM >    5327.53MB

     Check: negative/imaginary core charge=   -0.000003    0.000000

     Initial potential from superposition of free atoms

     starting charge  263.99850, renormalised to  264.00000
     Starting wfc are  224 randomized atomic wfcs
     Checking if some PAW data can be deallocated... 

     total cpu time spent up to now is       35.1 secs

     per-process dynamical memory:   525.7 Mb

     Self-consistent Calculation

     iteration #  1     ecut=   100.00 Ry     beta=0.50
     Davidson diagonalization with overlap
     ethr =  1.00E-02,  avg # of iterations =  3.5

     total cpu time spent up to now is      143.5 secs

     total energy              =   -1386.22224319 Ry
     Harris-Foulkes estimate   =   -1390.25281732 Ry
     estimated scf accuracy    <       7.68261988 Ry

     iteration #  2     ecut=   100.00 Ry     beta=0.50
     Davidson diagonalization with overlap
     ethr =  2.91E-03,  avg # of iterations =  2.8

     total cpu time spent up to now is      206.4 secs

     total energy              =   -1387.16497169 Ry
     Harris-Foulkes estimate   =   -1387.64826155 Ry
     estimated scf accuracy    <       1.05445985 Ry

     iteration #  3     ecut=   100.00 Ry     beta=0.50
     Davidson diagonalization with overlap
     ethr =  3.99E-04,  avg # of iterations =  6.6

     total cpu time spent up to now is      325.1 secs

     total energy              =   -1387.63981530 Ry
     Harris-Foulkes estimate   =   -1387.87348229 Ry
     estimated scf accuracy    <       0.58458165 Ry

     iteration #  4     ecut=   100.00 Ry     beta=0.50
     Davidson diagonalization with overlap
     ethr =  2.21E-04,  avg # of iterations =  2.4

     total cpu time spent up to now is      382.0 secs

     total energy              =   -1387.63116896 Ry
     Harris-Foulkes estimate   =   -1387.69677723 Ry
     estimated scf accuracy    <       0.12208516 Ry

     iteration #  5     ecut=   100.00 Ry     beta=0.50
     Davidson diagonalization with overlap
     ethr =  4.62E-05,  avg # of iterations =  5.6

     total cpu time spent up to now is      503.9 secs

     total energy              =   -1387.71315705 Ry
     Harris-Foulkes estimate   =   -1387.76762995 Ry
     estimated scf accuracy    <       0.17343421 Ry

     iteration #  6     ecut=   100.00 Ry     beta=0.50
     Davidson diagonalization with overlap
     ethr =  4.62E-05,  avg # of iterations =  1.0

     total cpu time spent up to now is      557.0 secs

     total energy              =   -1387.67827185 Ry
     Harris-Foulkes estimate   =   -1387.71899357 Ry
     estimated scf accuracy    <       0.07487984 Ry

     iteration #  7     ecut=   100.00 Ry     beta=0.50
     Davidson diagonalization with overlap
     ethr =  2.84E-05,  avg # of iterations =  5.8

     total cpu time spent up to now is      664.9 secs

     total energy              =   -1387.71429589 Ry
     Harris-Foulkes estimate   =   -1387.71880315 Ry
     estimated scf accuracy    <       0.01459504 Ry

     iteration #  8     ecut=   100.00 Ry     beta=0.50
     Davidson diagonalization with overlap
     ethr =  5.53E-06,  avg # of iterations =  1.8

     total cpu time spent up to now is      719.8 secs

     total energy              =   -1387.71150856 Ry
     Harris-Foulkes estimate   =   -1387.71476132 Ry
     estimated scf accuracy    <       0.00650500 Ry

     iteration #  9     ecut=   100.00 Ry     beta=0.50
     Davidson diagonalization with overlap
     ethr =  2.46E-06,  avg # of iterations =  5.6

     total cpu time spent up to now is      824.8 secs

     total energy              =   -1387.71450142 Ry
     Harris-Foulkes estimate   =   -1387.71466278 Ry
     estimated scf accuracy    <       0.00073032 Ry

     iteration # 10     ecut=   100.00 Ry     beta=0.50
     Davidson diagonalization with overlap
     ethr =  2.77E-07,  avg # of iterations =  1.0

     total cpu time spent up to now is      878.1 secs

     total energy              =   -1387.71429284 Ry
     Harris-Foulkes estimate   =   -1387.71451699 Ry
     estimated scf accuracy    <       0.00041997 Ry

     iteration # 11     ecut=   100.00 Ry     beta=0.50
     Davidson diagonalization with overlap
     ethr =  1.59E-07,  avg # of iterations =  4.0

     total cpu time spent up to now is      966.3 secs

     total energy              =   -1387.71445676 Ry
     Harris-Foulkes estimate   =   -1387.71446649 Ry
     estimated scf accuracy    <       0.00004567 Ry

     iteration # 12     ecut=   100.00 Ry     beta=0.50
     Davidson diagonalization with overlap
     ethr =  1.73E-08,  avg # of iterations =  1.0

     total cpu time spent up to now is     1019.4 secs

     total energy              =   -1387.71443991 Ry
     Harris-Foulkes estimate   =   -1387.71445786 Ry
     estimated scf accuracy    <       0.00002949 Ry

     iteration # 13     ecut=   100.00 Ry     beta=0.50
     Davidson diagonalization with overlap
     ethr =  1.12E-08,  avg # of iterations =  4.0

     total cpu time spent up to now is     1109.8 secs

     total energy              =   -1387.71445353 Ry
     Harris-Foulkes estimate   =   -1387.71445597 Ry
     estimated scf accuracy    <       0.00000949 Ry

     iteration # 14     ecut=   100.00 Ry     beta=0.50
     Davidson diagonalization with overlap
     ethr =  3.60E-09,  avg # of iterations =  1.0

     total cpu time spent up to now is     1163.0 secs

     total energy              =   -1387.71445073 Ry
     Harris-Foulkes estimate   =   -1387.71445367 Ry
     estimated scf accuracy    <       0.00000553 Ry

     iteration # 15     ecut=   100.00 Ry     beta=0.50
     Davidson diagonalization with overlap
     ethr =  2.09E-09,  avg # of iterations =  4.0

     total cpu time spent up to now is     1246.0 secs

     total energy              =   -1387.71445301 Ry
     Harris-Foulkes estimate   =   -1387.71445321 Ry
     estimated scf accuracy    <       0.00000069 Ry

     iteration # 16     ecut=   100.00 Ry     beta=0.50
     Davidson diagonalization with overlap
     ethr =  2.62E-10,  avg # of iterations =  1.0

     total cpu time spent up to now is     1299.2 secs

     total energy              =   -1387.71445285 Ry
     Harris-Foulkes estimate   =   -1387.71445303 Ry
     estimated scf accuracy    <       0.00000037 Ry

     iteration # 17     ecut=   100.00 Ry     beta=0.50
     Davidson diagonalization with overlap
     ethr =  1.39E-10,  avg # of iterations =  4.0

     total cpu time spent up to now is     1385.3 secs

     total energy              =   -1387.71445300 Ry
     Harris-Foulkes estimate   =   -1387.71445301 Ry
     estimated scf accuracy    <       0.00000004 Ry

     iteration # 18     ecut=   100.00 Ry     beta=0.50
     Davidson diagonalization with overlap
     ethr =  1.37E-11,  avg # of iterations =  1.2

     total cpu time spent up to now is     1438.7 secs

     total energy              =   -1387.71445299 Ry
     Harris-Foulkes estimate   =   -1387.71445300 Ry
     estimated scf accuracy    <       0.00000002 Ry

     iteration # 19     ecut=   100.00 Ry     beta=0.50
     Davidson diagonalization with overlap
     ethr =  6.46E-12,  avg # of iterations =  4.0

     total cpu time spent up to now is     1531.3 secs

     End of self-consistent calculation

          k = 0.0000 0.0000 0.0000 ( 83979 PWs)   bands (ev):

   -21.3471 -21.3229 -21.2596 -21.2528 -20.8419 -20.8228 -20.8067 -20.7831
   -19.9470 -19.9135 -19.8936 -19.8805 -18.8646 -18.8477 -18.8108 -18.7924
   -18.5682 -18.5595 -18.5418 -18.5219 -13.6154 -13.5905 -13.5616 -13.5452
   -12.4765 -12.4151 -12.3899 -12.3700 -11.3435 -11.3197 -11.2571 -11.2433
    -9.8937  -9.8661  -9.7441  -9.7078  -8.4249  -8.2307  -8.1894  -8.1031
    -8.0764  -8.0145  -7.8893  -7.8385  -7.4275  -7.3044  -7.2527  -7.2014
    -6.6641  -6.6059  -6.5725  -6.5465  -6.0722  -6.0188  -5.8831  -5.7554
    -5.5307  -5.4671  -5.3962  -5.3288  -5.2670  -5.2308  -5.2294  -5.0410
    -5.0133  -4.9894  -4.8561  -4.8537  -4.4301  -4.3604  -4.3068  -4.3051
    -4.2897  -4.2637  -4.2075  -4.1755  -4.1422  -4.0833  -4.0627  -3.9491
    -3.7605  -3.7555  -3.7468  -3.6101  -3.2249  -3.1451  -3.1214  -3.0235
    -2.8726  -2.7671  -2.7098  -2.5479  -2.5155  -2.4823  -2.3402  -2.2909
    -1.9266  -1.9012  -1.8574  -1.7492  -1.7147  -1.6595  -1.6351  -1.5913
    -1.3809  -1.3644  -1.3547  -1.3468  -1.1714  -1.1236  -1.1217  -1.0973
    -0.9689  -0.9569  -0.9417  -0.9137  -0.8815  -0.8791  -0.8155  -0.8132
    -0.5376  -0.5239  -0.4461  -0.4035  -0.0146   0.0298   0.1481   0.1902
     0.4657   0.5041   0.6113   0.6549   5.5021   5.5342   5.5971   5.6267
     5.6706   5.6986   5.7154   5.7339   6.2905   6.9400   7.1013   7.2009
     7.3605   7.8617   7.9623   8.0276   8.1716   8.3648   8.7509   8.7726
     8.8672   8.9108   8.9864   9.1503   9.1862   9.2792

          k = 0.0000 0.0000-0.2073 ( 83922 PWs)   bands (ev):

   -21.3350 -21.3350 -21.2569 -21.2569 -20.8200 -20.8200 -20.8070 -20.8070
   -19.9213 -19.9213 -19.8960 -19.8960 -18.8382 -18.8382 -18.8219 -18.8219
   -18.5542 -18.5542 -18.5388 -18.5388 -13.6015 -13.6015 -13.5556 -13.5556
   -12.4355 -12.4355 -12.3897 -12.3897 -11.3345 -11.3345 -11.2478 -11.2478
    -9.8242  -9.8242  -9.7906  -9.7906  -8.2666  -8.2666  -8.1514  -8.1514
    -8.0297  -8.0297  -7.9593  -7.9593  -7.3444  -7.3444  -7.2283  -7.2283
    -6.6265  -6.6265  -6.5473  -6.5473  -5.9880  -5.9880  -5.8936  -5.8936
    -5.4778  -5.4778  -5.4354  -5.4354  -5.2024  -5.2024  -5.1100  -5.1100
    -5.0031  -5.0031  -4.8707  -4.8707  -4.4254  -4.4254  -4.3451  -4.3451
    -4.2229  -4.2229  -4.1521  -4.1521  -4.1051  -4.1051  -4.0090  -4.0090
    -3.7931  -3.7931  -3.6695  -3.6695  -3.1834  -3.1834  -3.0996  -3.0996
    -2.7725  -2.7725  -2.6285  -2.6285  -2.4697  -2.4697  -2.3783  -2.3783
    -1.9208  -1.9208  -1.7709  -1.7709  -1.7117  -1.7117  -1.5993  -1.5993
    -1.3714  -1.3714  -1.3525  -1.3525  -1.1516  -1.1516  -1.1117  -1.1117
    -0.9743  -0.9743  -0.9010  -0.9010  -0.8715  -0.8715  -0.8280  -0.8280
    -0.5363  -0.5363  -0.4273  -0.4273   0.0061   0.0061   0.1780   0.1780
     0.4807   0.4807   0.6356   0.6356   5.5344   5.5344   5.5741   5.5741
     5.7034   5.7034   5.7244   5.7244   6.5342   6.5342   7.1471   7.1471
     7.7411   7.7411   8.0069   8.0069   8.1391   8.1391   8.7676   8.7676
     8.9535   8.9535   9.1182   9.1182   9.3298   9.3299

          k = 0.0000-0.2450 0.0000 ( 83882 PWs)   bands (ev):

   -21.3356 -21.3356 -21.2556 -21.2556 -20.8360 -20.8360 -20.7913 -20.7913
   -19.9304 -19.9304 -19.8868 -19.8868 -18.8564 -18.8564 -18.8015 -18.8015
   -18.5646 -18.5646 -18.5309 -18.5309 -13.6036 -13.6036 -13.5532 -13.5532
   -12.4471 -12.4471 -12.3783 -12.3783 -11.2989 -11.2989 -11.2841 -11.2841
    -9.8801  -9.8801  -9.7254  -9.7254  -8.3376  -8.3376  -8.1554  -8.1553
    -8.0456  -8.0456  -7.8444  -7.8444  -7.3659  -7.3659  -7.2247  -7.2247
    -6.6551  -6.6551  -6.5441  -6.5441  -6.0605  -6.0605  -5.7995  -5.7995
    -5.5154  -5.5154  -5.3477  -5.3477  -5.2434  -5.2434  -5.1451  -5.1451
    -4.9484  -4.9484  -4.8508  -4.8508  -4.4110  -4.4110  -4.3358  -4.3358
    -4.2628  -4.2628  -4.2001  -4.2001  -4.1301  -4.1301  -4.0554  -4.0554
    -3.8020  -3.8020  -3.6276  -3.6276  -3.1804  -3.1804  -3.0509  -3.0509
    -2.8573  -2.8573  -2.5775  -2.5775  -2.4286  -2.4286  -2.3494  -2.3494
    -1.8822  -1.8822  -1.8256  -1.8256  -1.6858  -1.6858  -1.6646  -1.6646
    -1.4013  -1.4013  -1.3602  -1.3602  -1.1493  -1.1493  -1.0743  -1.0743
    -0.9558  -0.9558  -0.9363  -0.9363  -0.8532  -0.8532  -0.8160  -0.8160
    -0.5326  -0.5326  -0.4224  -0.4224   0.0071   0.0071   0.1473   0.1473
     0.5192   0.5192   0.6184   0.6184   5.5308   5.5308   5.6146   5.6146
     5.6702   5.6702   5.7319   5.7319   6.5889   6.5889   7.0308   7.0308
     7.5241   7.5241   8.1099   8.1099   8.4544   8.4544   8.7473   8.7473
     8.8252   8.8252   8.9962   8.9963   9.3060   9.3060

          k = 0.0000-0.2450-0.2073 ( 83908 PWs)   bands (ev):

   -21.3343 -21.3343 -21.2577 -21.2577 -20.8212 -20.8212 -20.8058 -20.8058
   -19.9121 -19.9121 -19.9052 -19.9052 -18.8315 -18.8315 -18.8287 -18.8287
   -18.5510 -18.5510 -18.5418 -18.5418 -13.5991 -13.5991 -13.5584 -13.5584
   -12.4211 -12.4211 -12.4038 -12.4038 -11.2965 -11.2965 -11.2871 -11.2871
    -9.8265  -9.8265  -9.7873  -9.7873  -8.2436  -8.2436  -8.1836  -8.1836
    -8.0040  -8.0040  -7.9812  -7.9812  -7.2952  -7.2952  -7.2721  -7.2721
    -6.6277  -6.6277  -6.5522  -6.5522  -5.9769  -5.9769  -5.8984  -5.8984
    -5.4701  -5.4701  -5.4384  -5.4384  -5.1804  -5.1804  -5.1080  -5.1080
    -4.9509  -4.9509  -4.9244  -4.9244  -4.3693  -4.3693  -4.3124  -4.3124
    -4.3048  -4.3048  -4.2176  -4.2176  -4.0874  -4.0874  -4.0500  -4.0500
    -3.7770  -3.7770  -3.6858  -3.6858  -3.1283  -3.1283  -3.1220  -3.1220
    -2.7793  -2.7793  -2.5989  -2.5989  -2.4470  -2.4470  -2.3652  -2.3652
    -1.8765  -1.8765  -1.8157  -1.8157  -1.7068  -1.7068  -1.6535  -1.6535
    -1.4041  -1.4041  -1.3663  -1.3663  -1.1282  -1.1282  -1.0905  -1.0905
    -0.9642  -0.9642  -0.8948  -0.8948  -0.8806  -0.8806  -0.8088  -0.8088
    -0.5470  -0.5470  -0.4190  -0.4190   0.0082   0.0082   0.1491   0.1491
     0.5556   0.5556   0.5843   0.5843   5.5431   5.5431   5.5944   5.5944
     5.6716   5.6716   5.7362   5.7362   6.7460   6.7460   6.7895   6.7895
     7.6775   7.6775   8.0075   8.0075   8.4265   8.4265   8.7326   8.7326
     8.9478   8.9478   9.0840   9.0840   9.3424   9.4022

          k = 0.2500 0.0000 0.0000 ( 84026 PWs)   bands (ev):

   -21.3324 -21.3098 -21.2710 -21.2594 -20.8378 -20.8243 -20.8023 -20.7857
   -19.9414 -19.9186 -19.8884 -19.8802 -18.8623 -18.8506 -18.8070 -18.7942
   -18.5668 -18.5606 -18.5387 -18.5246 -13.6404 -13.6132 -13.6023 -13.5813
   -12.4563 -12.4003 -12.3950 -12.3684 -11.3631 -11.3472 -11.2708 -11.2579
    -9.9235  -9.9053  -9.7652  -9.7429  -8.4087  -8.2858  -8.2235  -8.1661
    -8.0908  -8.0641  -7.8976  -7.8619  -7.3174  -7.2434  -7.1495  -7.1095
    -6.6574  -6.6494  -6.5689  -6.5602  -6.0676  -6.0089  -5.8718  -5.7385
    -5.4356  -5.3796  -5.3600  -5.3108  -5.1868  -5.1268  -5.0930  -5.0897
    -5.0118  -5.0112  -4.8779  -4.8619  -4.4761  -4.4349  -4.3307  -4.3271
    -4.3037  -4.2496  -4.2367  -4.1657  -4.1170  -4.0870  -3.9545  -3.8411
    -3.7017  -3.6511  -3.6458  -3.5583  -3.1569  -3.0786  -3.0334  -3.0289
    -2.8440  -2.7730  -2.7532  -2.5906  -2.4301  -2.4226  -2.2955  -2.2827
    -1.9929  -1.9517  -1.8833  -1.7950  -1.7230  -1.6986  -1.6922  -1.6110
    -1.5109  -1.4777  -1.3646  -1.3206  -1.2839  -1.2717  -1.1293  -1.0899
    -0.9771  -0.9681  -0.9339  -0.9091  -0.8703  -0.8165  -0.8025  -0.7631
    -0.5239  -0.4726  -0.4717  -0.4423   0.0169   0.0514   0.1093   0.1513
     0.4723   0.4923   0.6192   0.6411   5.3978   5.4255   5.4662   5.4909
     5.5494   5.5647   5.6090   5.6130   6.6725   7.1108   7.2039   7.4658
     7.7475   8.0617   8.1070   8.2108   8.2267   8.4186   8.5555   8.6122
     8.7135   8.7611   8.8786   9.0004   9.0524   9.1368

          k = 0.2500 0.0000-0.2073 ( 83958 PWs)   bands (ev):

   -21.3214 -21.3214 -21.2655 -21.2655 -20.8172 -20.8172 -20.8078 -20.8078
   -19.9188 -19.9188 -19.8954 -19.8954 -18.8382 -18.8382 -18.8212 -18.8212
   -18.5520 -18.5520 -18.5406 -18.5406 -13.6284 -13.6284 -13.5906 -13.5906
   -12.4259 -12.4259 -12.3840 -12.3840 -11.3545 -11.3545 -11.2649 -11.2649
    -9.8532  -9.8532  -9.8265  -9.8265  -8.2669  -8.2669  -8.2028  -8.2028
    -8.0377  -8.0377  -8.0109  -8.0109  -7.2403  -7.2403  -7.1552  -7.1552
    -6.6229  -6.6229  -6.5709  -6.5709  -5.9958  -5.9958  -5.8756  -5.8756
    -5.3826  -5.3826  -5.3651  -5.3651  -5.1622  -5.1622  -5.0435  -5.0435
    -4.9960  -4.9960  -4.8961  -4.8961  -4.4837  -4.4837  -4.3559  -4.3559
    -4.2403  -4.2403  -4.1983  -4.1983  -4.0576  -4.0576  -3.9213  -3.9213
    -3.7039  -3.7039  -3.6009  -3.6009  -3.1375  -3.1375  -3.0116  -3.0116
    -2.7955  -2.7955  -2.6321  -2.6321  -2.4569  -2.4569  -2.3081  -2.3081
    -1.9737  -1.9737  -1.8185  -1.8185  -1.7221  -1.7221  -1.6461  -1.6461
    -1.5050  -1.5050  -1.3238  -1.3238  -1.2998  -1.2998  -1.1098  -1.1098
    -0.9835  -0.9835  -0.8969  -0.8969  -0.8438  -0.8438  -0.7852  -0.7852
    -0.5045  -0.5045  -0.4476  -0.4476   0.0285   0.0285   0.1310   0.1310
     0.4898   0.4898   0.6256   0.6256   5.4153   5.4153   5.4657   5.4657
     5.5807   5.5807   5.5952   5.5952   6.8466   6.8466   7.3450   7.3450
     7.9466   7.9466   8.1596   8.1596   8.3200   8.3200   8.5367   8.5367
     8.6985   8.6985   8.9947   8.9947   9.1481   9.1481

          k = 0.2500-0.2450 0.0000 ( 84014 PWs)   bands (ev):

   -21.3220 -21.3220 -21.2643 -21.2643 -20.8330 -20.8330 -20.7922 -20.7922
   -19.9285 -19.9285 -19.8857 -19.8857 -18.8558 -18.8558 -18.8013 -18.8013
   -18.5639 -18.5639 -18.5312 -18.5312 -13.6274 -13.6274 -13.5917 -13.5917
   -12.4304 -12.4304 -12.3794 -12.3794 -11.3158 -11.3158 -11.3048 -11.3048
    -9.9149  -9.9149  -9.7527  -9.7527  -8.3361  -8.3361  -8.2058  -8.2058
    -8.1027  -8.1027  -7.8550  -7.8550  -7.2783  -7.2783  -7.1295  -7.1295
    -6.6608  -6.6608  -6.5583  -6.5583  -6.0460  -6.0460  -5.7979  -5.7979
    -5.4187  -5.4187  -5.3218  -5.3218  -5.1417  -5.1417  -5.0711  -5.0711
    -5.0054  -5.0054  -4.8771  -4.8771  -4.4150  -4.4150  -4.3728  -4.3728
    -4.3368  -4.3368  -4.2341  -4.2341  -4.0375  -4.0375  -3.9494  -3.9494
    -3.6720  -3.6720  -3.6063  -3.6063  -3.1127  -3.1127  -3.0109  -3.0109
    -2.8356  -2.8356  -2.6105  -2.6104  -2.3870  -2.3870  -2.3188  -2.3188
    -1.9280  -1.9280  -1.8815  -1.8815  -1.7203  -1.7203  -1.6651  -1.6651
    -1.4888  -1.4888  -1.4488  -1.4488  -1.1631  -1.1631  -1.1449  -1.1449
    -0.9631  -0.9631  -0.9210  -0.9210  -0.8188  -0.8188  -0.7931  -0.7931
    -0.4951  -0.4951  -0.4551  -0.4551   0.0304   0.0304   0.1144   0.1144
     0.5317   0.5317   0.5957   0.5957   5.4145   5.4145   5.4669   5.4669
     5.5553   5.5553   5.6316   5.6316   6.8899   6.8899   7.2475   7.2475
     7.7647   7.7647   8.2342   8.2342   8.4210   8.4210   8.5307   8.5307
     8.7653   8.7653   8.9402   8.9402   9.2338   9.2338

          k = 0.2500-0.2450-0.2073 ( 84000 PWs)   bands (ev):

   -21.3206 -21.3206 -21.2663 -21.2663 -20.8181 -20.8181 -20.8070 -20.8070
   -19.9095 -19.9095 -19.9046 -19.9046 -18.8308 -18.8308 -18.8287 -18.8287
   -18.5494 -18.5494 -18.5429 -18.5429 -13.6242 -13.6242 -13.5952 -13.5952
   -12.4115 -12.4115 -12.3982 -12.3982 -11.3146 -11.3146 -11.3059 -11.3059
    -9.8525  -9.8525  -9.8261  -9.8261  -8.2491  -8.2491  -8.2222  -8.2222
    -8.0268  -8.0268  -8.0247  -8.0247  -7.2015  -7.2015  -7.1891  -7.1891
    -6.6257  -6.6257  -6.5707  -6.5707  -5.9715  -5.9715  -5.8939  -5.8939
    -5.3870  -5.3870  -5.3565  -5.3565  -5.1515  -5.1515  -5.0558  -5.0558
    -4.9486  -4.9486  -4.9285  -4.9285  -4.4092  -4.4092  -4.3654  -4.3654
    -4.3049  -4.3049  -4.2623  -4.2623  -4.0315  -4.0315  -3.9495  -3.9495
    -3.6629  -3.6629  -3.6485  -3.6485  -3.0915  -3.0915  -3.0415  -3.0415
    -2.7607  -2.7607  -2.6359  -2.6359  -2.4040  -2.4040  -2.3344  -2.3344
    -1.9162  -1.9162  -1.8731  -1.8731  -1.7095  -1.7095  -1.6800  -1.6800
    -1.4926  -1.4926  -1.4611  -1.4611  -1.1671  -1.1671  -1.1399  -1.1399
    -0.9762  -0.9762  -0.8875  -0.8875  -0.8255  -0.8255  -0.7948  -0.7948
    -0.5055  -0.5055  -0.4451  -0.4451   0.0299   0.0299   0.1094   0.1094
     0.5580   0.5580   0.5730   0.5730   5.4372   5.4372   5.4381   5.4381
     5.5658   5.5658   5.6256   5.6256   6.9783   6.9783   7.1116   7.1116
     7.8615   7.8615   8.1498   8.1498   8.5038   8.5038   8.5191   8.5191
     8.7916   8.7916   8.8257   8.8257   9.2150   9.2151

          k =-0.5000 0.0000 0.0000 ( 84080 PWs)   bands (ev):

   -21.2998 -21.2998 -21.2816 -21.2816 -20.8297 -20.8297 -20.7932 -20.7932
   -19.9293 -19.9293 -19.8819 -19.8819 -18.8566 -18.8566 -18.7996 -18.7996
   -18.5635 -18.5635 -18.5314 -18.5314 -13.6536 -13.6536 -13.6265 -13.6265
   -12.4177 -12.4177 -12.3756 -12.3756 -11.3794 -11.3794 -11.2789 -11.2789
    -9.9468  -9.9468  -9.7803  -9.7803  -8.3631  -8.3631  -8.2453  -8.2453
    -8.1093  -8.1093  -7.8904  -7.8904  -7.1925  -7.1925  -7.0358  -7.0358
    -6.6722  -6.6722  -6.5778  -6.5778  -6.0435  -6.0435  -5.8032  -5.8032
    -5.3401  -5.3401  -5.2842  -5.2842  -5.1778  -5.1778  -4.9721  -4.9721
    -4.9217  -4.9217  -4.9063  -4.9063  -4.4630  -4.4630  -4.3202  -4.3202
    -4.2841  -4.2841  -4.1722  -4.1722  -4.1031  -4.1031  -3.8388  -3.8388
    -3.6487  -3.6487  -3.5571  -3.5571  -3.0725  -3.0725  -2.9596  -2.9596
    -2.7662  -2.7662  -2.6784  -2.6784  -2.3786  -2.3786  -2.2737  -2.2737
    -2.0200  -2.0200  -1.8781  -1.8781  -1.7442  -1.7442  -1.7373  -1.7373
    -1.5948  -1.5948  -1.4589  -1.4589  -1.2991  -1.2991  -1.1029  -1.1029
    -0.9076  -0.9076  -0.8833  -0.8833  -0.8725  -0.8725  -0.7880  -0.7880
    -0.5147  -0.5147  -0.4216  -0.4216   0.0422   0.0422   0.0835   0.0835
     0.4918   0.4918   0.6338   0.6338   5.3110   5.3110   5.3404   5.3404
     5.4332   5.4332   5.5065   5.5065   7.4535   7.4535   7.5609   7.5609
     7.8169   7.8170   8.2020   8.2020   8.3996   8.3996   8.5051   8.5051
     8.6508   8.6508   8.7566   8.7566   8.9571   8.9571

          k =-0.5000 0.0000-0.2073 ( 84052 PWs)   bands (ev):

   -21.2958 -21.2958 -21.2860 -21.2860 -20.8118 -20.8118 -20.8111 -20.8111
   -19.9163 -19.9163 -19.8948 -19.8948 -18.8382 -18.8382 -18.8204 -18.8204
   -18.5486 -18.5486 -18.5435 -18.5435 -13.6535 -13.6535 -13.6266 -13.6266
   -12.4154 -12.4154 -12.3785 -12.3785 -11.3743 -11.3743 -11.2829 -11.2829
    -9.8809  -9.8809  -9.8598  -9.8598  -8.2698  -8.2698  -8.2503  -8.2503
    -8.0580  -8.0580  -8.0446  -8.0446  -7.1224  -7.1224  -7.0989  -7.0989
    -6.6121  -6.6121  -6.6105  -6.6105  -5.9871  -5.9871  -5.8879  -5.8879
    -5.3532  -5.3532  -5.3098  -5.3098  -5.0371  -5.0371  -5.0019  -5.0019
    -4.9559  -4.9559  -4.9086  -4.9086  -4.4865  -4.4865  -4.3442  -4.3442
    -4.2411  -4.2411  -4.2094  -4.2094  -4.0158  -4.0158  -3.8967  -3.8967
    -3.6630  -3.6630  -3.5682  -3.5682  -3.0330  -3.0330  -2.9930  -2.9930
    -2.7332  -2.7332  -2.6590  -2.6590  -2.4145  -2.4145  -2.2718  -2.2718
    -2.0106  -2.0106  -1.8681  -1.8681  -1.7721  -1.7721  -1.7457  -1.7457
    -1.5925  -1.5925  -1.4595  -1.4595  -1.2916  -1.2916  -1.1024  -1.1024
    -0.9188  -0.9188  -0.8860  -0.8860  -0.8576  -0.8576  -0.7924  -0.7924
    -0.4969  -0.4969  -0.4175  -0.4175   0.0497   0.0497   0.0575   0.0575
     0.5097   0.5097   0.6222   0.6222   5.3060   5.3060   5.3431   5.3431
     5.4533   5.4533   5.4872   5.4872   7.4785   7.4785   7.5391   7.5391
     7.9426   7.9426   8.0818   8.0818   8.3125   8.3125   8.5860   8.5860
     8.6595   8.6595   8.6872   8.6872   8.8985   8.8985

          k =-0.5000-0.2450 0.0000 ( 84004 PWs)   bands (ev):

   -21.2984 -21.2984 -21.2830 -21.2830 -20.8298 -20.8298 -20.7933 -20.7933
   -19.9266 -19.9266 -19.8846 -19.8846 -18.8552 -18.8552 -18.8012 -18.8012
   -18.5632 -18.5632 -18.5315 -18.5315 -13.6421 -13.6421 -13.6385 -13.6385
   -12.4078 -12.4078 -12.3855 -12.3855 -11.3314 -11.3314 -11.3280 -11.3280
    -9.9471  -9.9471  -9.7787  -9.7787  -8.3331  -8.3331  -8.2560  -8.2560
    -8.1563  -8.1563  -7.8634  -7.8634  -7.1923  -7.1923  -7.0357  -7.0357
    -6.6548  -6.6548  -6.5942  -6.5942  -6.0415  -6.0415  -5.7999  -5.7999
    -5.3315  -5.3315  -5.2939  -5.2939  -5.0644  -5.0644  -5.0630  -5.0630
    -4.9655  -4.9655  -4.8745  -4.8745  -4.3983  -4.3983  -4.3966  -4.3966
    -4.3130  -4.3130  -4.2384  -4.2384  -3.9772  -3.9772  -3.8940  -3.8940
    -3.6400  -3.6400  -3.5929  -3.5929  -3.0389  -3.0389  -2.9718  -2.9718
    -2.7397  -2.7397  -2.6681  -2.6681  -2.3415  -2.3415  -2.2974  -2.2974
    -1.9623  -1.9623  -1.9423  -1.9423  -1.7387  -1.7387  -1.7314  -1.7314
    -1.5901  -1.5901  -1.5835  -1.5835  -1.1580  -1.1580  -1.1556  -1.1556
    -0.9141  -0.9141  -0.8896  -0.8896  -0.8393  -0.8393  -0.8027  -0.8027
    -0.4680  -0.4680  -0.4610  -0.4610   0.0295   0.0295   0.0811   0.0811
     0.5633   0.5633   0.5718   0.5718   5.3123   5.3123   5.3135   5.3135
     5.4572   5.4572   5.5169   5.5169   7.5138   7.5138   7.5242   7.5242
     7.8040   7.8040   8.0794   8.0794   8.3049   8.3049   8.4153   8.4153
     8.4308   8.4308   8.9649   8.9649   9.1375   9.1375

          k =-0.5000-0.2450-0.2073 ( 84080 PWs)   bands (ev):

   -21.2909 -21.2909 -21.2909 -21.2909 -20.8115 -20.8115 -20.8115 -20.8115
   -19.9056 -19.9056 -19.9056 -19.9056 -18.8294 -18.8294 -18.8294 -18.8294
   -18.5460 -18.5460 -18.5460 -18.5460 -13.6403 -13.6403 -13.6403 -13.6403
   -12.3969 -12.3969 -12.3969 -12.3969 -11.3291 -11.3291 -11.3291 -11.3291
    -9.8698  -9.8698  -9.8698  -9.8698  -8.2609  -8.2609  -8.2609  -8.2609
    -8.0522  -8.0522  -8.0522  -8.0522  -7.1085  -7.1085  -7.1085  -7.1085
    -6.6103  -6.6103  -6.6103  -6.6103  -5.9371  -5.9371  -5.9370  -5.9370
    -5.3249  -5.3249  -5.3249  -5.3249  -5.0375  -5.0375  -5.0375  -5.0375
    -4.9092  -4.9092  -4.9092  -4.9092  -4.4140  -4.4140  -4.4140  -4.4140
    -4.2654  -4.2654  -4.2654  -4.2654  -3.9432  -3.9432  -3.9432  -3.9432
    -3.6259  -3.6259  -3.6259  -3.6259  -2.9995  -2.9995  -2.9995  -2.9995
    -2.6926  -2.6926  -2.6926  -2.6926  -2.3270  -2.3270  -2.3270  -2.3270
    -1.9336  -1.9336  -1.9336  -1.9336  -1.7606  -1.7606  -1.7606  -1.7606
    -1.5854  -1.5854  -1.5854  -1.5854  -1.1552  -1.1552  -1.1552  -1.1552
    -0.8984  -0.8984  -0.8984  -0.8984  -0.8215  -0.8215  -0.8215  -0.8215
    -0.4572  -0.4572  -0.4572  -0.4572   0.0471   0.0471   0.0471   0.0471
     0.5704   0.5704   0.5704   0.5704   5.3131   5.3131   5.3131   5.3131
     5.4860   5.4860   5.4860   5.4860   7.5264   7.5264   7.5264   7.5264
     7.9348   7.9348   7.9348   7.9348   8.3098   8.3098   8.3099   8.3099
     8.6773   8.6773   8.6773   8.6773   9.1782   9.1782

     highest occupied, lowest unoccupied level (ev):     0.6549    5.3060

!    total energy              =   -1387.71445300 Ry
     Harris-Foulkes estimate   =   -1387.71445300 Ry
     estimated scf accuracy    <          3.7E-09 Ry

     total all-electron energy =     -5182.047002 Ry

     The total energy is the sum of the following terms:

     one-electron contribution =    -795.80441554 Ry
     hartree contribution      =     505.86111663 Ry
     xc contribution           =    -287.30523474 Ry
     ewald contribution        =    -433.56242316 Ry
     Dispersion Correction     =      -0.37362781 Ry
     one-center paw contrib.   =    -376.52986837 Ry

     convergence has been achieved in  19 iterations

     Forces acting on atoms (cartesian axes, Ry/au):

     atom    1 type  4   force =    -0.00187276    0.00148747    0.00861438
     atom    2 type  4   force =     0.00187276   -0.00148747    0.00861438
     atom    3 type  4   force =    -0.00187374   -0.00148553   -0.00861489
     atom    4 type  4   force =     0.00187374    0.00148553   -0.00861489
     atom    5 type  4   force =    -0.00213117   -0.00170240    0.00157745
     atom    6 type  4   force =     0.00213117    0.00170240    0.00157745
     atom    7 type  4   force =    -0.00213033    0.00170002   -0.00157705
     atom    8 type  4   force =     0.00213033   -0.00170002   -0.00157705
     atom    9 type  4   force =     0.00430267    0.00970233   -0.00455746
     atom   10 type  4   force =    -0.00430267   -0.00970233   -0.00455746
     atom   11 type  4   force =     0.00430208   -0.00970345    0.00455705
     atom   12 type  4   force =    -0.00430208    0.00970345    0.00455705
     atom   13 type  4   force =     0.00235992   -0.00537843    0.00421120
     atom   14 type  4   force =    -0.00235992    0.00537843    0.00421120
     atom   15 type  4   force =     0.00235907    0.00537993   -0.00421093
     atom   16 type  4   force =    -0.00235907   -0.00537993   -0.00421093
     atom   17 type  4   force =     0.00094046   -0.00044113    0.00044957
     atom   18 type  4   force =    -0.00094046    0.00044113    0.00044957
     atom   19 type  4   force =     0.00094007    0.00044030   -0.00044955
     atom   20 type  4   force =    -0.00094007   -0.00044030   -0.00044955
     atom   21 type  1   force =     0.00444869    0.00267420   -0.00876735
     atom   22 type  1   force =    -0.00444869   -0.00267420   -0.00876735
     atom   23 type  1   force =     0.00444906   -0.00267391    0.00876756
     atom   24 type  1   force =    -0.00444906    0.00267391    0.00876756
     atom   25 type  1   force =    -0.00873758    0.00222775   -0.00141245
     atom   26 type  1   force =     0.00873758   -0.00222775   -0.00141245
     atom   27 type  1   force =    -0.00873751   -0.00222007    0.00141285
     atom   28 type  1   force =     0.00873751    0.00222007    0.00141285
     atom   29 type  1   force =    -0.00236000   -0.00539930   -0.00005017
     atom   30 type  1   force =     0.00236000    0.00539930   -0.00005017
     atom   31 type  1   force =    -0.00236033    0.00539304    0.00004936
     atom   32 type  1   force =     0.00236033   -0.00539304    0.00004936
     atom   33 type  1   force =     0.00136004   -0.00130142   -0.00151027
     atom   34 type  1   force =    -0.00136004    0.00130142   -0.00151027
     atom   35 type  1   force =     0.00136055    0.00130715    0.00151020
     atom   36 type  1   force =    -0.00136055   -0.00130715    0.00151020
     atom   37 type  1   force =     0.00682888   -0.00325043    0.00519430
     atom   38 type  1   force =    -0.00682888    0.00325043    0.00519430
     atom   39 type  1   force =     0.00682898    0.00325954   -0.00519392
     atom   40 type  1   force =    -0.00682898   -0.00325954   -0.00519392
     atom   41 type  1   force =    -0.01119556    0.01716695   -0.00181440
     atom   42 type  1   force =     0.01119556   -0.01716695   -0.00181440
     atom   43 type  1   force =    -0.01119534   -0.01716590    0.00181434
     atom   44 type  1   force =     0.01119534    0.01716590    0.00181434
     atom   45 type  1   force =    -0.00443674   -0.00261112   -0.00216029
     atom   46 type  1   force =     0.00443674    0.00261112   -0.00216029
     atom   47 type  1   force =    -0.00443708    0.00262011    0.00216024
     atom   48 type  1   force =     0.00443708   -0.00262011    0.00216024
     atom   49 type  3   force =     0.00133229   -0.00002162   -0.00119099
     atom   50 type  3   force =    -0.00133229    0.00002162   -0.00119099
     atom   51 type  3   force =     0.00133221    0.00002168    0.00119114
     atom   52 type  3   force =    -0.00133221   -0.00002168    0.00119114
     atom   53 type  3   force =     0.00776812   -0.00279997    0.00303792
     atom   54 type  3   force =    -0.00776812    0.00279997    0.00303792
     atom   55 type  3   force =     0.00776808    0.00279978   -0.00303797
     atom   56 type  3   force =    -0.00776808   -0.00279978   -0.00303797
     atom   57 type  3   force =    -0.00012227   -0.00249976    0.00015270
     atom   58 type  3   force =     0.00012227    0.00249976    0.00015270
     atom   59 type  3   force =    -0.00012218    0.00249956   -0.00015268
     atom   60 type  3   force =     0.00012218   -0.00249956   -0.00015268
     atom   61 type  3   force =    -0.00020557   -0.00037033    0.00026704
     atom   62 type  3   force =     0.00020557    0.00037033    0.00026704
     atom   63 type  3   force =    -0.00020561    0.00037026   -0.00026710
     atom   64 type  3   force =     0.00020561   -0.00037026   -0.00026710
     atom   65 type  3   force =     0.00167166   -0.00445731   -0.00255347
     atom   66 type  3   force =    -0.00167166    0.00445731   -0.00255347
     atom   67 type  3   force =     0.00167172    0.00445698    0.00255347
     atom   68 type  3   force =    -0.00167172   -0.00445698    0.00255347
     atom   69 type  3   force =    -0.00167584    0.00084294   -0.00082954
     atom   70 type  3   force =     0.00167584   -0.00084294   -0.00082954
     atom   71 type  3   force =    -0.00167606   -0.00084263    0.00082966
     atom   72 type  3   force =     0.00167606    0.00084263    0.00082966
     atom   73 type  3   force =     0.00028022   -0.00027342   -0.00020836
     atom   74 type  3   force =    -0.00028022    0.00027342   -0.00020836
     atom   75 type  3   force =     0.00028021    0.00027352    0.00020845
     atom   76 type  3   force =    -0.00028021   -0.00027352    0.00020845
     atom   77 type  3   force =     0.00171108   -0.00040242    0.00046469
     atom   78 type  3   force =    -0.00171108    0.00040242    0.00046469
     atom   79 type  3   force =     0.00171117    0.00040237   -0.00046475
     atom   80 type  3   force =    -0.00171117   -0.00040237   -0.00046475

     Total force =     0.068328     Total SCF correction =     0.000105


     Computing stress (Cartesian axis) and pressure

          total   stress  (Ry/bohr**3)                   (kbar)     P=   -6.74
  -0.00003295  -0.00000000   0.00000000         -4.85     -0.00      0.00
  -0.00000000  -0.00006380   0.00000000         -0.00     -9.39      0.00
   0.00000000   0.00000000  -0.00004073          0.00      0.00     -5.99


     Writing output data file scf.save
 
     init_run     :     32.85s CPU     34.43s WALL (       1 calls)
     electrons    :   1424.52s CPU   1496.36s WALL (       1 calls)
     forces       :     14.99s CPU     15.18s WALL (       1 calls)
     stress       :    112.33s CPU    112.77s WALL (       1 calls)

     Called by init_run:
     wfcinit      :     27.69s CPU     29.12s WALL (       1 calls)
     potinit      :      1.87s CPU      1.89s WALL (       1 calls)

     Called by electrons:
     c_bands      :   1269.99s CPU   1332.28s WALL (      19 calls)
     sum_band     :    140.87s CPU    148.84s WALL (      19 calls)
     v_of_rho     :      2.03s CPU      2.22s WALL (      20 calls)
     newd         :      3.60s CPU      4.94s WALL (      20 calls)
     PAW_pot      :      7.22s CPU      7.22s WALL (      20 calls)
     mix_rho      :      0.62s CPU      0.67s WALL (      19 calls)

     Called by c_bands:
     init_us_2    :     14.02s CPU     14.05s WALL (     492 calls)
     cegterg      :   1226.65s CPU   1288.81s WALL (     228 calls)

     Called by sum_band:
     sum_band:bec :      0.11s CPU      0.11s WALL (     228 calls)
     addusdens    :      4.27s CPU      5.56s WALL (      19 calls)

     Called by *egterg:
     h_psi        :    716.21s CPU    758.07s WALL (     963 calls)
     s_psi        :    123.81s CPU    123.83s WALL (     963 calls)
     g_psi        :      5.76s CPU      5.76s WALL (     723 calls)
     cdiaghg      :     77.34s CPU     77.34s WALL (     951 calls)

     Called by h_psi:
     h_psi:pot    :    707.15s CPU    748.89s WALL (     963 calls)
     h_psi:calbec :    114.80s CPU    115.17s WALL (     963 calls)
     vloc_psi     :    468.65s CPU    510.00s WALL (     963 calls)
     add_vuspsi   :    123.70s CPU    123.71s WALL (     963 calls)

     General routines
     calbec       :    164.07s CPU    164.57s WALL (    1251 calls)
     fft          :      1.03s CPU      1.36s WALL (     284 calls)
     fftw         :    495.62s CPU    539.11s WALL (  242146 calls)
 
     Parallel routines
     fft_scatter  :    118.81s CPU    149.38s WALL (  242430 calls)
 
     PWSCF        : 26m36.03s CPU    28m48.46s WALL

 
   This run was terminated on:  11:57:40  17Dec2017            

=------------------------------------------------------------------------------=
   JOB DONE.
=------------------------------------------------------------------------------=
