
     Program PWSCF v.6.1 (svn rev. 13369) starts on 12Nov2017 at 11:38:40 

     This program is part of the open-source Quantum ESPRESSO suite
     for quantum simulation of materials; please cite
         "P. Giannozzi et al., J. Phys.:Condens. Matter 21 395502 (2009);
          URL http://www.quantum-espresso.org", 
     in publications or presentations arising from this work. More details at
     http://www.quantum-espresso.org/quote

     Parallel version (MPI), running on     8 processors
     R & G space division:  proc/nbgrp/npool/nimage =       8
     Waiting for input...
     Reading input from standard input

     Current dimensions of program PWSCF are:
     Max number of different atomic species (ntypx) = 10
     Max number of k-points (npk) =  40000
     Max angular momentum in pseudopotentials (lmaxx) =  3
               file C.pbe-n-kjpaw_psl.0.1.UPF: wavefunction(s)  2P renormalized
               file N.pbe-n-kjpaw_psl.0.1.UPF: wavefunction(s)  2P renormalized
               file H.pbe-kjpaw_psl.0.1.UPF: wavefunction(s)  1S renormalized
               file O.pbe-n-kjpaw_psl.0.1.UPF: wavefunction(s)  2P renormalized

     -------------------------------------
     Parameters for Dispersion Correction:
     -------------------------------------
       atom      VdW radius       C_6     

        C          2.744         60.710
        N          2.640         42.670
        H          1.892          4.857
        O          2.536         24.284

     Subspace diagonalization in iterative solution of the eigenvalue problem:
     a serial algorithm will be used

 
     Parallelization info
     --------------------
     sticks:   dense  smooth     PW     G-vecs:    dense   smooth      PW
     Min        1106    1106    290               162649   162649   21742
     Max        1108    1108    291               162652   162652   21745
     Sum        8851    8851   2323              1301199  1301199  173947
 


     bravais-lattice index     =            0
     lattice parameter (alat)  =      11.4366  a.u.
     unit-cell volume          =    9630.8963 (a.u.)^3
     number of atoms/cell      =          180
     number of atomic types    =            4
     number of electrons       =       432.00
     number of Kohn-Sham states=          259
     kinetic-energy cutoff     =     100.0000  Ry
     charge density cutoff     =     400.0000  Ry
     convergence threshold     =      1.0E-08
     mixing beta               =       0.5000
     number of iterations used =            8  plain     mixing
     Exchange-correlation      =  SLA  PW   PBX  PBC ( 1  4  3  4 0 0)

     celldm(1)=  11.436623  celldm(2)=   0.000000  celldm(3)=   0.000000
     celldm(4)=   0.000000  celldm(5)=   0.000000  celldm(6)=   0.000000

     crystal axes: (cart. coord. in units of alat)
               a(1) = (   1.000000   0.000000   0.000000 )  
               a(2) = (   0.000000   2.124256   0.000000 )  
               a(3) = (  -0.235341   0.000000   3.030864 )  

     reciprocal axes: (cart. coord. in units 2 pi/alat)
               b(1) = (  1.000000  0.000000  0.077648 )  
               b(2) = (  0.000000  0.470753  0.000000 )  
               b(3) = (  0.000000  0.000000  0.329939 )  


     PseudoPot. # 1 for  C read from file:
     /scratch/ahofstet/pseudo/C.pbe-n-kjpaw_psl.0.1.UPF
     MD5 check sum: 430fe95172b1e11ef3f8ed03bac87931
     Pseudo is Projector augmented-wave + core cor, Zval =  4.0
     Generated using "atomic" code by A. Dal Corso  v.5.0.99 svn rev. 10869
     Shape of augmentation charge: BESSEL
     Using radial grid of 1073 points,  4 beta functions with: 
                l(1) =   0
                l(2) =   0
                l(3) =   1
                l(4) =   1
     Q(r) pseudized with 0 coefficients 


     PseudoPot. # 2 for  N read from file:
     /scratch/ahofstet/pseudo/N.pbe-n-kjpaw_psl.0.1.UPF
     MD5 check sum: f73187c8b701007e77325f868c9291d7
     Pseudo is Projector augmented-wave + core cor, Zval =  5.0
     Generated using "atomic" code by A. Dal Corso  v.5.0.99 svn rev. 10869
     Shape of augmentation charge: PSQ
     Using radial grid of 1085 points,  4 beta functions with: 
                l(1) =   0
                l(2) =   0
                l(3) =   1
                l(4) =   1
     Q(r) pseudized with 0 coefficients 


     PseudoPot. # 3 for  H read from file:
     /scratch/ahofstet/pseudo/H.pbe-kjpaw_psl.0.1.UPF
     MD5 check sum: 94e484f906d9e9773b2f6e52662335b2
     Pseudo is Projector augmented-wave, Zval =  1.0
     Generated using "atomic" code by A. Dal Corso  v.5.0.99 svn rev. 10869
     Shape of augmentation charge: PSQ
     Using radial grid of  929 points,  2 beta functions with: 
                l(1) =   0
                l(2) =   0
     Q(r) pseudized with 0 coefficients 


     PseudoPot. # 4 for  O read from file:
     /scratch/ahofstet/pseudo/O.pbe-n-kjpaw_psl.0.1.UPF
     MD5 check sum: 3f94a2996a3169367d6eb21d9b593f20
     Pseudo is Projector augmented-wave + core cor, Zval =  6.0
     Generated using "atomic" code by A. Dal Corso  v.5.0.99 svn rev. 10869
     Shape of augmentation charge: BESSEL
     Using radial grid of 1095 points,  4 beta functions with: 
                l(1) =   0
                l(2) =   0
                l(3) =   1
                l(4) =   1
     Q(r) pseudized with 0 coefficients 


     atomic species   valence    mass     pseudopotential
        C              4.00    12.01070      C( 1.00)
        N              5.00    14.00670      N( 1.00)
        H              1.00     1.00794      H( 1.00)
        O              6.00    15.99940      O( 1.00)

      2 Sym. Ops., with inversion, found
          (note:  2 additional sym.ops. were found but ignored
           their fractional translations are incommensurate with FFT grid)


   Cartesian axes

     site n.     atom                  positions (alat units)
         1           N   tau(   1) = (   0.3601259   1.0230612   0.3783508  )
         2           N   tau(   2) = (   0.0222037   2.0851894   1.1370810  )
         3           N   tau(   3) = (   0.4045333   1.1011953   2.6525128  )
         4           N   tau(   4) = (   0.7424555   0.0390670   1.8937826  )
         5           N   tau(   5) = (   0.5388595   0.7324106   1.1281727  )
         6           N   tau(   6) = (   0.8434701   1.7945388   0.3872592  )
         7           N   tau(   7) = (   0.2257996   1.3918459   1.9026910  )
         8           N   tau(   8) = (  -0.0788109   0.3297177   2.6436045  )
         9           N   tau(   9) = (   0.7043777   0.2760082   0.4534567  )
        10           N   tau(  10) = (   0.6779519   1.3381365   1.0619751  )
        11           N   tau(  11) = (   0.0602815   1.8482482   2.5774069  )
        12           N   tau(  12) = (   0.0867072   0.7861200   1.9688886  )
        13           O   tau(  13) = (   0.6547622   1.0146228   0.7446892  )
        14           O   tau(  14) = (   0.7275674   2.0767510   0.7707426  )
        15           O   tau(  15) = (   0.1098970   1.1096337   2.2861744  )
        16           O   tau(  16) = (   0.0370918   0.0475055   2.2601210  )
        17           O   tau(  17) = (   0.8798413   0.6318006   0.7818847  )
        18           O   tau(  18) = (   0.5024882   1.6939288   0.7335471  )
        19           O   tau(  19) = (  -0.1151822   1.4924558   2.2489789  )
        20           O   tau(  20) = (   0.2621709   0.4303276   2.2973165  )
        21           O   tau(  21) = (   0.7152468   0.7647114   0.3213362  )
        22           O   tau(  22) = (   0.6670828   1.8268396   1.1940956  )
        23           O   tau(  23) = (   0.0494124   1.3595450   2.7095274  )
        24           O   tau(  24) = (   0.0975763   0.2974168   1.8367681  )
        25           C   tau(  25) = (   0.3727511   0.8263965   0.5229603  )
        26           C   tau(  26) = (   0.0095785   1.8885247   0.9924715  )
        27           C   tau(  27) = (   0.3919081   1.2978599   2.5079033  )
        28           C   tau(  28) = (   0.7550807   0.2357317   2.0383921  )
        29           C   tau(  29) = (   0.4566771   0.8862532   0.7569834  )
        30           C   tau(  30) = (   0.9256525   1.9483815   0.7584485  )
        31           C   tau(  31) = (   0.3079821   1.2380032   2.2738803  )
        32           C   tau(  32) = (  -0.1609933   0.1758750   2.2724152  )
        33           C   tau(  33) = (   0.4904941   0.6736441   0.8962080  )
        34           C   tau(  34) = (   0.8918355   1.7357723   0.6192238  )
        35           C   tau(  35) = (   0.2741651   1.4506123   2.1346556  )
        36           C   tau(  36) = (  -0.1271763   0.3884841   2.4116398  )
        37           C   tau(  37) = (   0.6694847   0.5279111   0.7850710  )
        38           C   tau(  38) = (   0.7128449   1.5900393   0.7303608  )
        39           C   tau(  39) = (   0.0951745   1.5963453   2.2457926  )
        40           C   tau(  40) = (   0.0518143   0.5342171   2.3005028  )
        41           C   tau(  41) = (   0.5776919   0.4597145   0.5567280  )
        42           C   tau(  42) = (   0.8046377   1.5218427   0.9587038  )
        43           C   tau(  43) = (   0.1869673   1.6645419   2.4741356  )
        44           C   tau(  44) = (  -0.0399785   0.6024137   2.0721598  )
        45           C   tau(  45) = (   0.5233201   0.6557967   0.4045857  )
        46           C   tau(  46) = (   0.8590094   1.7179249   1.1108461  )
        47           C   tau(  47) = (   0.2413390   1.4684598   2.6262779  )
        48           C   tau(  48) = (  -0.0943503   0.4063316   1.9200176  )
        49           C   tau(  49) = (   0.2581560   0.9746536   0.1634822  )
        50           C   tau(  50) = (   0.1241736   2.0367818   1.3519496  )
        51           C   tau(  51) = (   0.5065032   1.1496029   2.8673815  )
        52           C   tau(  52) = (   0.6404855   0.0874747   1.6789140  )
        53           C   tau(  53) = (   0.2479896   1.2118524   0.4785687  )
        54           C   tau(  54) = (   0.1343399   0.1497242   1.0368631  )
        55           C   tau(  55) = (   0.5166695   0.9124040   2.5522949  )
        56           C   tau(  56) = (   0.6303192   1.9745322   1.9940005  )
        57           C   tau(  57) = (   0.3351261   0.7952899   1.2414564  )
        58           C   tau(  58) = (   0.0472035   1.8574182   0.2739755  )
        59           C   tau(  59) = (   0.4295331   1.3289665   1.7894073  )
        60           C   tau(  60) = (   0.7174556   0.2668383   2.7568882  )
        61           C   tau(  61) = (   0.6396281   0.5518069   1.2548972  )
        62           C   tau(  62) = (   0.7427014   1.6139352   0.2605346  )
        63           C   tau(  63) = (   0.1250310   1.5724495   1.7759665  )
        64           C   tau(  64) = (   0.0219577   0.5103213   2.7703290  )
        65           C   tau(  65) = (   0.5833190   0.1662332   0.2736751  )
        66           C   tau(  66) = (   0.7990106   1.2283614   1.2417567  )
        67           C   tau(  67) = (   0.1813402   1.9580233   2.7571885  )
        68           C   tau(  68) = (  -0.0343514   0.8958951   1.7891069  )
        69           C   tau(  69) = (   0.9270898   0.3313520   0.3791431  )
        70           C   tau(  70) = (   0.4552398   1.3934802   1.1362887  )
        71           C   tau(  71) = (  -0.1624306   1.7929044   2.6517205  )
        72           C   tau(  72) = (   0.3094194   0.7307762   1.8945749  )
        73           H   tau(  73) = (   0.2079554   0.7499214   0.5467930  )
        74           H   tau(  74) = (   0.1743742   1.8120496   0.9686388  )
        75           H   tau(  75) = (   0.5567038   1.3743351   2.4840707  )
        76           H   tau(  76) = (   0.5902850   0.3122069   2.0622248  )
        77           H   tau(  77) = (   0.3259310   0.9858870   0.8358870  )
        78           H   tau(  78) = (   0.0563986   2.0480152   0.6795449  )
        79           H   tau(  79) = (   0.4387282   1.1383695   2.1949767  )
        80           H   tau(  80) = (   0.7082605   0.0762413   2.3513188  )
        81           H   tau(  81) = (   0.3351950   0.5775682   0.8896996  )
        82           H   tau(  82) = (   0.0471346   1.6396964   0.6257322  )
        83           H   tau(  83) = (   0.4294642   1.5466883   2.1411640  )
        84           H   tau(  84) = (   0.7175245   0.4845600   2.4051314  )
        85           H   tau(  85) = (   0.6883386   0.3726475   0.8784107  )
        86           H   tau(  86) = (   0.6939909   1.4347757   0.6370211  )
        87           H   tau(  87) = (   0.0763205   1.7516090   2.1524529  )
        88           H   tau(  88) = (   0.0706682   0.6894808   2.3938425  )
        89           H   tau(  89) = (   0.4157487   0.3854411   0.5956701  )
        90           H   tau(  90) = (  -0.0334191   1.4475693   0.9197617  )
        91           H   tau(  91) = (   0.3489105   1.7388153   2.4351935  )
        92           H   tau(  92) = (   0.7980783   0.6766871   2.1111019  )
        93           H   tau(  93) = (   0.4280937   0.5871413   0.2642010  )
        94           H   tau(  94) = (  -0.0457641   1.6492695   1.2512308  )
        95           H   tau(  95) = (   0.3365655   1.5371152   2.7666627  )
        96           H   tau(  96) = (   0.8104232   0.4749870   1.7796328  )
        97           H   tau(  97) = (   0.6579083   1.1269738   0.8695093  )
        98           H   tau(  98) = (   0.7244213   0.0648456   0.6459225  )
        99           H   tau(  99) = (   0.1067509   0.9972827   2.1613543  )
       100           H   tau( 100) = (   0.0402379   2.0594109   2.3849411  )
       101           H   tau( 101) = (   0.8489922   0.7891428   0.7518562  )
       102           H   tau( 102) = (   0.5333374   1.8512710   0.7635756  )
       103           H   tau( 103) = (  -0.0843330   1.3351137   2.2790074  )
       104           H   tau( 104) = (   0.2313218   0.2729854   2.2672880  )
       105           H   tau( 105) = (   0.6711228   0.9219268   0.3209228  )
       106           H   tau( 106) = (   0.7112068   1.9840550   1.1945091  )
       107           H   tau( 107) = (   0.0935364   1.2023297   2.7099409  )
       108           H   tau( 108) = (   0.0534523   0.1402014   1.8363546  )
       109           H   tau( 109) = (   0.2529488   1.1279650   0.0660605  )
       110           H   tau( 110) = (   0.1293807   0.0658368   1.4493713  )
       111           H   tau( 111) = (   0.5117103   0.9962914   2.9648031  )
       112           H   tau( 112) = (   0.6352784   2.0584196   1.5814923  )
       113           H   tau( 113) = (   0.0876907   0.9094502   0.1799069  )
       114           H   tau( 114) = (   0.2946388   1.9715784   1.3355249  )
       115           H   tau( 115) = (   0.6769684   1.2148063   2.8509567  )
       116           H   tau( 116) = (   0.4700203   0.1526781   1.6953387  )
       117           H   tau( 117) = (   0.3578625   0.8551827   0.0704411  )
       118           H   tau( 118) = (   0.0244671   1.9173109   1.4449908  )
       119           H   tau( 119) = (   0.4067967   1.2690738   2.9604226  )
       120           H   tau( 120) = (   0.7401921   0.2069455   1.5858729  )
       121           H   tau( 121) = (   0.3337320   1.2672772   0.6282414  )
       122           H   tau( 122) = (   0.0485976   0.2051489   0.8871904  )
       123           H   tau( 123) = (   0.4309272   0.8569793   2.4026222  )
       124           H   tau( 124) = (   0.7160616   1.9191075   2.1436732  )
       125           H   tau( 125) = (   0.2506099   1.3500440   0.3606640  )
       126           H   tau( 126) = (   0.1317196   0.2879157   1.1547679  )
       127           H   tau( 127) = (   0.5140492   0.7742125   2.6701997  )
       128           H   tau( 128) = (   0.6329395   1.8363407   1.8760958  )
       129           H   tau( 129) = (   0.0721628   1.1754494   0.5181622  )
       130           H   tau( 130) = (   0.3101668   0.1133211   0.9972696  )
       131           H   tau( 131) = (   0.6924963   0.9488071   2.5127015  )
       132           H   tau( 132) = (   0.4544924   2.0109353   2.0335940  )
       133           H   tau( 133) = (   0.2222415   0.6519289   1.2666095  )
       134           H   tau( 134) = (   0.1600880   1.7140571   0.2488223  )
       135           H   tau( 135) = (   0.5424176   1.4723276   1.7642541  )
       136           H   tau( 136) = (   0.6045711   0.4101994   2.7820414  )
       137           H   tau( 137) = (   0.3748633   0.8645548   1.4047560  )
       138           H   tau( 138) = (   0.0074663   1.9266830   0.1106758  )
       139           H   tau( 139) = (   0.3897958   1.2597017   1.6261076  )
       140           H   tau( 140) = (   0.7571929   0.1975735   2.9201878  )
       141           H   tau( 141) = (   0.2427903   0.9194207   1.1473332  )
       142           H   tau( 142) = (   0.1395393   1.9815489   0.3680986  )
       143           H   tau( 143) = (   0.5218689   1.2048358   1.8835304  )
       144           H   tau( 144) = (   0.6251199   0.1427075   2.6627651  )
       145           H   tau( 145) = (   0.5315007   0.4034105   1.2629869  )
       146           H   tau( 146) = (   0.8508288   1.4655387   0.2524449  )
       147           H   tau( 147) = (   0.2331584   1.7208460   1.7678767  )
       148           H   tau( 148) = (  -0.0861697   0.6587178   2.7784187  )
       149           H   tau( 149) = (   0.6666283   0.6094867   1.4252082  )
       150           H   tau( 150) = (   0.7157013   1.6716150   0.0902236  )
       151           H   tau( 151) = (   0.0980308   1.5147697   1.6056554  )
       152           H   tau( 152) = (   0.0489579   0.4526415   2.9406401  )
       153           H   tau( 153) = (   0.7995068   0.5054245   1.1840300  )
       154           H   tau( 154) = (   0.5828228   1.5675527   0.3314018  )
       155           H   tau( 155) = (  -0.0348476   1.6188319   1.8468336  )
       156           H   tau( 156) = (   0.1818364   0.5567037   2.6994619  )
       157           H   tau( 157) = (   0.4190203   0.1142509   0.3309521  )
       158           H   tau( 158) = (  -0.0366907   1.1763792   1.1844798  )
       159           H   tau( 159) = (   0.3456389   2.0100055   2.6999116  )
       160           H   tau( 160) = (   0.8013498   0.9478773   1.8463839  )
       161           H   tau( 161) = (   0.6752607   0.0161402   0.2286995  )
       162           H   tau( 162) = (   0.7070689   1.0782684   1.2867323  )
       163           H   tau( 163) = (   0.0893985   2.1081163   2.8021641  )
       164           H   tau( 164) = (   0.0575903   1.0459881   1.7441313  )
       165           H   tau( 165) = (   0.5639151   0.2732395   0.1266799  )
       166           H   tau( 166) = (   0.8184145   1.3353677   1.3887519  )
       167           H   tau( 167) = (   0.2007441   1.8510170   2.9041837  )
       168           H   tau( 168) = (  -0.0537553   0.7888888   1.6421117  )
       169           H   tau( 169) = (   0.0127847   0.1777924   0.3317622  )
       170           H   tau( 170) = (   0.3695449   1.2399206   1.1836696  )
       171           H   tau( 171) = (   0.7518744   1.9464640   2.6991014  )
       172           H   tau( 172) = (   0.3951143   0.8843358   1.8471940  )
       173           H   tau( 173) = (   0.0187142   0.4122182   0.5127086  )
       174           H   tau( 174) = (   0.3636154   1.4743465   1.0027232  )
       175           H   tau( 175) = (   0.7459450   1.7120382   2.5181550  )
       176           H   tau( 176) = (   0.4010438   0.6499100   2.0281404  )
       177           H   tau( 177) = (   0.9258098   0.4438832   0.2359851  )
       178           H   tau( 178) = (   0.4565198   1.5060114   1.2794467  )
       179           H   tau( 179) = (  -0.1611506   1.6803732   2.7948785  )
       180           H   tau( 180) = (   0.3081394   0.6182450   1.7514169  )

     number of k points=     4
                       cart. coord. in units 2pi/alat
        k(    1) = (   0.0000000   0.0000000   0.0000000), wk =   0.3333333
        k(    2) = (   0.0000000  -0.2353765   0.0000000), wk =   0.3333333
        k(    3) = (   0.3333333   0.0000000   0.0258827), wk =   0.6666667
        k(    4) = (   0.3333333  -0.2353765   0.0258827), wk =   0.6666667

     Dense  grid:  1301199 G-vectors     FFT dimensions: (  75, 160, 225)

     Estimated max dynamical RAM per process >    1422.48MB

     Estimated total allocated dynamical RAM >   11379.83MB

     Check: negative/imaginary core charge=   -0.000002    0.000000

     Initial potential from superposition of free atoms

     starting charge  431.99687, renormalised to  432.00000
     Starting wfc are  396 randomized atomic wfcs
     Checking if some PAW data can be deallocated... 

     total cpu time spent up to now is       72.1 secs

     per-process dynamical memory:   823.3 Mb

     Self-consistent Calculation

     iteration #  1     ecut=   100.00 Ry     beta=0.50
     Davidson diagonalization with overlap
     ethr =  1.00E-02,  avg # of iterations =  4.0

     total cpu time spent up to now is      273.0 secs

     total energy              =   -1849.26679449 Ry
     Harris-Foulkes estimate   =   -1857.54684668 Ry
     estimated scf accuracy    <      16.48461062 Ry

     iteration #  2     ecut=   100.00 Ry     beta=0.50
     Davidson diagonalization with overlap
     ethr =  3.82E-03,  avg # of iterations =  2.0

     total cpu time spent up to now is      374.7 secs

     total energy              =   -1850.75170536 Ry
     Harris-Foulkes estimate   =   -1851.35873617 Ry
     estimated scf accuracy    <       1.56659068 Ry

     iteration #  3     ecut=   100.00 Ry     beta=0.50
     Davidson diagonalization with overlap
     ethr =  3.63E-04,  avg # of iterations =  5.0

     total cpu time spent up to now is      593.0 secs

     total energy              =   -1851.88340592 Ry
     Harris-Foulkes estimate   =   -1852.38082657 Ry
     estimated scf accuracy    <       1.33339337 Ry

     iteration #  4     ecut=   100.00 Ry     beta=0.50
     Davidson diagonalization with overlap
     ethr =  3.09E-04,  avg # of iterations =  2.2

     total cpu time spent up to now is      686.7 secs

     total energy              =   -1851.67262468 Ry
     Harris-Foulkes estimate   =   -1851.94279420 Ry
     estimated scf accuracy    <       0.42270494 Ry

     iteration #  5     ecut=   100.00 Ry     beta=0.50
     Davidson diagonalization with overlap
     ethr =  9.78E-05,  avg # of iterations =  5.0

     total cpu time spent up to now is      909.0 secs

     total energy              =   -1851.87589824 Ry
     Harris-Foulkes estimate   =   -1852.32101074 Ry
     estimated scf accuracy    <       1.11650299 Ry

     iteration #  6     ecut=   100.00 Ry     beta=0.50
     Davidson diagonalization with overlap
     ethr =  9.78E-05,  avg # of iterations =  3.5

     total cpu time spent up to now is     1007.8 secs

     total energy              =   -1851.74466190 Ry
     Harris-Foulkes estimate   =   -1851.92659540 Ry
     estimated scf accuracy    <       0.29744315 Ry

     iteration #  7     ecut=   100.00 Ry     beta=0.50
     Davidson diagonalization with overlap
     ethr =  6.89E-05,  avg # of iterations =  6.0

     total cpu time spent up to now is     1233.3 secs

     total energy              =   -1851.95063261 Ry
     Harris-Foulkes estimate   =   -1852.02244471 Ry
     estimated scf accuracy    <       0.18573668 Ry

     iteration #  8     ecut=   100.00 Ry     beta=0.50
     Davidson diagonalization with overlap
     ethr =  4.30E-05,  avg # of iterations =  1.8

     total cpu time spent up to now is     1325.9 secs

     total energy              =   -1851.92906740 Ry
     Harris-Foulkes estimate   =   -1851.95773774 Ry
     estimated scf accuracy    <       0.05581458 Ry

     iteration #  9     ecut=   100.00 Ry     beta=0.50
     Davidson diagonalization with overlap
     ethr =  1.29E-05,  avg # of iterations =  8.8

     total cpu time spent up to now is     1529.3 secs

     total energy              =   -1851.96286661 Ry
     Harris-Foulkes estimate   =   -1851.96882606 Ry
     estimated scf accuracy    <       0.01531292 Ry

     iteration # 10     ecut=   100.00 Ry     beta=0.50
     Davidson diagonalization with overlap
     ethr =  3.54E-06,  avg # of iterations =  2.0

     total cpu time spent up to now is     1623.3 secs

     total energy              =   -1851.96066388 Ry
     Harris-Foulkes estimate   =   -1851.96349054 Ry
     estimated scf accuracy    <       0.00459620 Ry

     iteration # 11     ecut=   100.00 Ry     beta=0.50
     Davidson diagonalization with overlap
     ethr =  1.06E-06,  avg # of iterations =  5.5

     total cpu time spent up to now is     1818.4 secs

     total energy              =   -1851.96426658 Ry
     Harris-Foulkes estimate   =   -1851.96510753 Ry
     estimated scf accuracy    <       0.00326855 Ry

     iteration # 12     ecut=   100.00 Ry     beta=0.50
     Davidson diagonalization with overlap
     ethr =  7.57E-07,  avg # of iterations =  1.0

     total cpu time spent up to now is     1910.0 secs

     total energy              =   -1851.96358971 Ry
     Harris-Foulkes estimate   =   -1851.96431694 Ry
     estimated scf accuracy    <       0.00168537 Ry

     iteration # 13     ecut=   100.00 Ry     beta=0.50
     Davidson diagonalization with overlap
     ethr =  3.90E-07,  avg # of iterations =  4.0

     total cpu time spent up to now is     2050.1 secs

     total energy              =   -1851.96409151 Ry
     Harris-Foulkes estimate   =   -1851.96409218 Ry
     estimated scf accuracy    <       0.00001060 Ry

     iteration # 14     ecut=   100.00 Ry     beta=0.50
     Davidson diagonalization with overlap
     ethr =  2.45E-09,  avg # of iterations =  4.0

     total cpu time spent up to now is     2265.9 secs

     total energy              =   -1851.96410882 Ry
     Harris-Foulkes estimate   =   -1851.96410940 Ry
     estimated scf accuracy    <       0.00001804 Ry

     iteration # 15     ecut=   100.00 Ry     beta=0.50
     Davidson diagonalization with overlap
     ethr =  2.45E-09,  avg # of iterations =  1.0

     total cpu time spent up to now is     2357.4 secs

     total energy              =   -1851.96409958 Ry
     Harris-Foulkes estimate   =   -1851.96410885 Ry
     estimated scf accuracy    <       0.00001715 Ry

     iteration # 16     ecut=   100.00 Ry     beta=0.50
     Davidson diagonalization with overlap
     ethr =  2.45E-09,  avg # of iterations =  4.2

     total cpu time spent up to now is     2521.8 secs

     total energy              =   -1851.96410370 Ry
     Harris-Foulkes estimate   =   -1851.96410397 Ry
     estimated scf accuracy    <       0.00000072 Ry

     iteration # 17     ecut=   100.00 Ry     beta=0.50
     Davidson diagonalization with overlap
     ethr =  1.66E-10,  avg # of iterations =  2.8

     total cpu time spent up to now is     2618.4 secs

     total energy              =   -1851.96410357 Ry
     Harris-Foulkes estimate   =   -1851.96410375 Ry
     estimated scf accuracy    <       0.00000027 Ry

     iteration # 18     ecut=   100.00 Ry     beta=0.50
     Davidson diagonalization with overlap
     ethr =  6.16E-11,  avg # of iterations =  4.0

     total cpu time spent up to now is     2817.8 secs

     total energy              =   -1851.96410373 Ry
     Harris-Foulkes estimate   =   -1851.96410396 Ry
     estimated scf accuracy    <       0.00000060 Ry

     iteration # 19     ecut=   100.00 Ry     beta=0.50
     Davidson diagonalization with overlap
     ethr =  6.16E-11,  avg # of iterations =  3.0

     total cpu time spent up to now is     2919.1 secs

     total energy              =   -1851.96410373 Ry
     Harris-Foulkes estimate   =   -1851.96410376 Ry
     estimated scf accuracy    <       0.00000014 Ry

     iteration # 20     ecut=   100.00 Ry     beta=0.50
     Davidson diagonalization with overlap
     ethr =  3.31E-11,  avg # of iterations =  4.0

     total cpu time spent up to now is     3085.4 secs

     End of self-consistent calculation

          k = 0.0000 0.0000 0.0000 (162649 PWs)   bands (ev):

   -19.6239 -19.6228 -19.5845 -19.5837 -19.1862 -19.1854 -19.1847 -19.1842
   -18.8962 -18.8962 -18.8339 -18.8339 -17.2091 -17.2072 -17.1905 -17.1904
   -17.0056 -17.0042 -17.0041 -17.0013 -16.9085 -16.9020 -16.9009 -16.8964
   -13.9291 -13.9147 -13.8890 -13.8875 -12.3111 -12.2931 -12.2597 -12.2503
   -12.0636 -12.0521 -12.0518 -12.0441 -11.4466 -11.4421 -11.4189 -11.4141
   -11.3993 -11.3992 -11.3570 -11.3427 -11.3392 -11.3191 -11.2650 -11.2161
   -10.1660 -10.0859 -10.0115  -9.9682  -9.8338  -9.8039  -9.7774  -9.7290
    -9.7055  -9.5947  -9.5672  -9.4705  -8.1622  -8.1475  -8.1158  -8.0557
    -8.0472  -8.0014  -8.0013  -7.9562  -7.8190  -7.8129  -7.7521  -7.7128
    -7.3785  -7.3681  -7.2832  -7.2679  -6.5506  -6.5343  -6.5169  -6.5053
    -6.2294  -6.2276  -6.0881  -6.0680  -5.8872  -5.8676  -5.8298  -5.7793
    -5.7785  -5.7588  -5.7569  -5.7166  -5.7110  -5.6617  -5.6588  -5.6483
    -5.5033  -5.4984  -5.4843  -5.4497  -5.3566  -5.3213  -5.2695  -5.2572
    -5.0694  -5.0635  -5.0574  -5.0040  -4.9939  -4.9836  -4.9708  -4.9412
    -4.7500  -4.6732  -4.6681  -4.6447  -4.5890  -4.5741  -4.5389  -4.4907
    -4.2504  -4.2458  -4.2314  -4.2124  -3.9904  -3.9837  -3.9322  -3.9298
    -3.8314  -3.7971  -3.7960  -3.6482  -3.6360  -3.6024  -3.5887  -3.5728
    -3.5529  -3.5392  -3.4964  -3.4630  -3.3732  -3.3463  -3.3460  -3.2992
    -3.2965  -3.2782  -3.2536  -3.1980  -3.1938  -3.1680  -3.1643  -3.1524
    -3.1434  -3.1337  -3.1063  -3.1050  -3.0177  -2.9535  -2.9278  -2.9069
    -2.7924  -2.7817  -2.7643  -2.7541  -2.7445  -2.7278  -2.6967  -2.6832
    -2.6146  -2.5681  -2.5647  -2.5210  -2.4915  -2.4671  -2.4665  -2.4648
    -2.4160  -2.4026  -2.3989  -2.3888  -2.2185  -2.2174  -2.1312  -2.1204
    -1.8035  -1.7829  -1.7339  -1.7165  -1.2071  -1.1855  -0.9671  -0.9599
    -0.4373  -0.3911  -0.3595  -0.3583  -0.0846  -0.0495   0.0827   0.1191
     0.1311   0.1361   0.2369   0.2485   0.7028   0.7146   0.7538   0.8057
     0.8157   0.8252   0.8537   0.8898   0.9843   1.0023   1.0812   1.1115
     5.1701   5.5432   5.5572   5.9952   6.0820   6.1566   6.1605   6.2980
     6.3490   6.3499   6.3672   6.6283   6.6543   6.6620   6.9411   7.0729
     7.0965   7.1823   7.2774   7.3206   7.4015   7.4160   7.4224   7.4817
     7.4882   7.5388   7.7097   7.7373   7.7666   7.7723   7.8263   7.9029
     7.9768   8.0283   8.0321   8.0936   8.0965   8.1787   8.1934   8.2056
     8.2068   8.2833   8.3072

          k = 0.0000-0.2354 0.0000 (162674 PWs)   bands (ev):

   -19.6049 -19.6049 -19.6040 -19.6040 -19.1859 -19.1859 -19.1845 -19.1844
   -18.8644 -18.8644 -18.8643 -18.8643 -17.1997 -17.1997 -17.1987 -17.1987
   -17.0048 -17.0048 -17.0033 -17.0033 -16.9044 -16.9044 -16.8990 -16.8990
   -13.9099 -13.9099 -13.9008 -13.9008 -12.2785 -12.2785 -12.2733 -12.2733
   -12.0600 -12.0600 -12.0510 -12.0510 -11.4428 -11.4428 -11.4174 -11.4174
   -11.3709 -11.3709 -11.3632 -11.3632 -11.3439 -11.3439 -11.2457 -11.2457
   -10.0856 -10.0856 -10.0187 -10.0187  -9.8211  -9.8211  -9.7814  -9.7814
    -9.6245  -9.6245  -9.5316  -9.5316  -8.1247  -8.1247  -8.0422  -8.0422
    -8.0208  -8.0208  -7.9892  -7.9892  -7.8073  -7.8073  -7.7845  -7.7845
    -7.3448  -7.3448  -7.3410  -7.3410  -6.5328  -6.5328  -6.5218  -6.5218
    -6.1678  -6.1678  -6.1358  -6.1358  -5.8624  -5.8624  -5.8585  -5.8585
    -5.7552  -5.7552  -5.7264  -5.7264  -5.6461  -5.6461  -5.5875  -5.5875
    -5.5233  -5.5233  -5.4384  -5.4384  -5.3494  -5.3494  -5.3324  -5.3324
    -5.0611  -5.0611  -5.0196  -5.0196  -4.9741  -4.9741  -4.9336  -4.9336
    -4.7308  -4.7308  -4.6573  -4.6573  -4.6042  -4.6042  -4.5419  -4.5419
    -4.2529  -4.2529  -4.2147  -4.2147  -3.9835  -3.9835  -3.9203  -3.9203
    -3.7679  -3.7679  -3.7156  -3.7156  -3.6892  -3.6892  -3.6059  -3.6059
    -3.5280  -3.5280  -3.4538  -3.4538  -3.4160  -3.4160  -3.3544  -3.3544
    -3.2873  -3.2873  -3.2788  -3.2788  -3.1956  -3.1956  -3.1472  -3.1472
    -3.0593  -3.0593  -3.0155  -3.0155  -2.9642  -2.9642  -2.8965  -2.8965
    -2.8454  -2.8454  -2.8043  -2.8043  -2.7031  -2.7031  -2.6738  -2.6738
    -2.5879  -2.5879  -2.5408  -2.5408  -2.5055  -2.5055  -2.4534  -2.4534
    -2.4340  -2.4340  -2.3766  -2.3766  -2.1622  -2.1622  -2.1555  -2.1555
    -1.7686  -1.7686  -1.7648  -1.7648  -1.0984  -1.0984  -1.0848  -1.0848
    -0.3989  -0.3988  -0.3705  -0.3705   0.0364   0.0364   0.0554   0.0554
     0.1565   0.1565   0.1714   0.1714   0.7192   0.7192   0.7280   0.7280
     0.8510   0.8510   0.8690   0.8690   1.0394   1.0394   1.0658   1.0658
     5.3983   5.3983   5.7071   5.7071   5.8285   5.8286   6.2917   6.2917
     6.5721   6.5721   6.6307   6.6307   6.7693   6.7693   6.9769   6.9769
     7.0744   7.0744   7.2102   7.2103   7.2949   7.2949   7.4482   7.4482
     7.5456   7.5456   7.6155   7.6155   7.8234   7.8234   7.9327   7.9327
     7.9743   7.9743   8.0453   8.0453   8.1407   8.1407   8.2312   8.2313
     8.3254   8.3256   8.3719

          k = 0.3333 0.0000 0.0259 (162635 PWs)   bands (ev):

   -19.6161 -19.6155 -19.5770 -19.5766 -19.1844 -19.1842 -19.1830 -19.1829
   -18.8991 -18.8991 -18.8374 -18.8374 -17.2035 -17.2028 -17.1876 -17.1873
   -17.0068 -17.0058 -17.0051 -17.0033 -16.9122 -16.9116 -16.9060 -16.9058
   -13.9515 -13.9462 -13.9110 -13.9098 -12.2804 -12.2792 -12.2512 -12.2494
   -12.0648 -12.0620 -12.0439 -12.0436 -11.5160 -11.5139 -11.4837 -11.4784
   -11.4083 -11.3963 -11.3463 -11.3432 -11.3340 -11.3188 -11.2647 -11.2544
   -10.1114 -10.0756 -10.0411 -10.0100  -9.7830  -9.7729  -9.7162  -9.6747
    -9.6628  -9.6150  -9.5875  -9.5111  -8.2268  -8.1753  -8.0873  -8.0466
    -8.0322  -7.9778  -7.9690  -7.9248  -7.6925  -7.6791  -7.6301  -7.6200
    -7.3461  -7.3412  -7.2173  -7.2148  -6.5154  -6.5056  -6.4793  -6.4639
    -6.2612  -6.2275  -6.1241  -6.0869  -5.8605  -5.8508  -5.8259  -5.8096
    -5.8066  -5.7953  -5.7414  -5.7407  -5.7044  -5.6627  -5.6471  -5.6378
    -5.5076  -5.4852  -5.4321  -5.4307  -5.3417  -5.3416  -5.2548  -5.2523
    -5.0703  -5.0514  -5.0322  -5.0120  -4.9740  -4.9403  -4.9251  -4.9024
    -4.7894  -4.7392  -4.7339  -4.7057  -4.6466  -4.6267  -4.5418  -4.5197
    -4.2706  -4.2285  -4.1892  -4.1372  -4.0634  -4.0085  -3.9857  -3.9528
    -3.8708  -3.8583  -3.6966  -3.6826  -3.6768  -3.5951  -3.5464  -3.5424
    -3.5201  -3.5187  -3.4786  -3.4100  -3.3787  -3.3717  -3.3585  -3.3477
    -3.3213  -3.2695  -3.2143  -3.2049  -3.1619  -3.1581  -3.1017  -3.0863
    -3.0689  -3.0486  -3.0352  -3.0197  -3.0187  -2.9673  -2.9614  -2.9495
    -2.9087  -2.8974  -2.8380  -2.8191  -2.7570  -2.7540  -2.6751  -2.6643
    -2.6347  -2.6302  -2.6192  -2.5802  -2.5113  -2.5054  -2.4792  -2.4774
    -2.4549  -2.4419  -2.3811  -2.3685  -2.2414  -2.2169  -2.2052  -2.1896
    -1.8484  -1.8387  -1.7275  -1.7182  -1.2680  -1.2542  -1.0130  -1.0103
    -0.3892  -0.3804  -0.3411  -0.3280  -0.0994  -0.0844   0.0856   0.0885
     0.1148   0.1229   0.2705   0.2819   0.7049   0.7128   0.7648   0.7792
     0.8662   0.8805   0.9049   0.9109   0.9467   0.9639   1.0392   1.0646
     5.5532   5.8086   5.9238   6.0633   6.1454   6.2367   6.2686   6.3499
     6.3744   6.4129   6.4867   6.5543   6.6545   6.8444   6.8510   6.8974
     6.9216   7.0113   7.0408   7.1268   7.1936   7.2450   7.3387   7.3862
     7.4387   7.4789   7.5148   7.5742   7.6030   7.7149   7.7194   7.7783
     7.8268   7.8844   7.9243   8.0178   8.0411   8.0504   8.1175   8.1697
     8.1804   8.2805   8.3067

          k = 0.3333-0.2354 0.0259 (162634 PWs)   bands (ev):

   -19.5975 -19.5975 -19.5966 -19.5966 -19.1843 -19.1843 -19.1830 -19.1830
   -18.8676 -18.8676 -18.8675 -18.8675 -17.1957 -17.1957 -17.1948 -17.1948
   -17.0061 -17.0061 -17.0046 -17.0046 -16.9102 -16.9102 -16.9074 -16.9074
   -13.9330 -13.9330 -13.9265 -13.9265 -12.2663 -12.2663 -12.2602 -12.2602
   -12.0602 -12.0602 -12.0513 -12.0513 -11.5128 -11.5128 -11.4795 -11.4795
   -11.3842 -11.3842 -11.3671 -11.3671 -11.3216 -11.3216 -11.2664 -11.2664
   -10.0733 -10.0733 -10.0336 -10.0336  -9.7705  -9.7705  -9.7372  -9.7372
    -9.6162  -9.6162  -9.5452  -9.5452  -8.1760  -8.1760  -8.1165  -8.1165
    -7.9931  -7.9931  -7.9517  -7.9517  -7.6595  -7.6595  -7.6354  -7.6354
    -7.2859  -7.2859  -7.2764  -7.2764  -6.4956  -6.4956  -6.4876  -6.4876
    -6.1933  -6.1933  -6.1507  -6.1506  -5.8787  -5.8787  -5.8462  -5.8462
    -5.8012  -5.8012  -5.7643  -5.7643  -5.6256  -5.6256  -5.5970  -5.5970
    -5.4973  -5.4973  -5.4166  -5.4166  -5.3461  -5.3461  -5.3220  -5.3220
    -5.0734  -5.0734  -5.0443  -5.0442  -4.9551  -4.9551  -4.8907  -4.8907
    -4.7307  -4.7307  -4.7024  -4.7024  -4.6135  -4.6135  -4.5427  -4.5427
    -4.2298  -4.2298  -4.1632  -4.1632  -4.0313  -4.0313  -3.9572  -3.9572
    -3.8290  -3.8290  -3.7771  -3.7771  -3.6700  -3.6700  -3.5614  -3.5614
    -3.5055  -3.5055  -3.4825  -3.4825  -3.3823  -3.3823  -3.3117  -3.3117
    -3.2719  -3.2719  -3.2227  -3.2227  -3.1730  -3.1730  -3.1358  -3.1358
    -3.0462  -3.0462  -3.0166  -3.0166  -2.9477  -2.9477  -2.9245  -2.9245
    -2.9047  -2.9047  -2.8484  -2.8484  -2.7446  -2.7446  -2.7108  -2.7108
    -2.6347  -2.6347  -2.5938  -2.5938  -2.5204  -2.5204  -2.4804  -2.4804
    -2.4057  -2.4057  -2.3779  -2.3779  -2.2145  -2.2145  -2.2031  -2.2031
    -1.7964  -1.7964  -1.7817  -1.7817  -1.1548  -1.1548  -1.1412  -1.1412
    -0.3680  -0.3680  -0.3439  -0.3438   0.0020   0.0020   0.0062   0.0062
     0.1925   0.1925   0.1963   0.1963   0.7434   0.7434   0.7626   0.7626
     0.8780   0.8780   0.8952   0.8952   0.9784   0.9784   1.0243   1.0243
     5.7030   5.7030   5.9204   5.9204   6.0616   6.0616   6.3509   6.3509
     6.5121   6.5121   6.6292   6.6292   6.7246   6.7246   6.8695   6.8695
     6.9948   6.9948   7.1133   7.1133   7.1872   7.1872   7.3497   7.3497
     7.4191   7.4191   7.5125   7.5125   7.6711   7.6711   7.7508   7.7508
     7.8037   7.8037   7.9430   7.9430   8.0360   8.0360   8.1527   8.1527
     8.2387   8.2387   8.3376

     highest occupied, lowest unoccupied level (ev):     1.1115    5.1701

!    total energy              =   -1851.96410379 Ry
     Harris-Foulkes estimate   =   -1851.96410380 Ry
     estimated scf accuracy    <          9.3E-09 Ry

     total all-electron energy =     -6906.388827 Ry

     The total energy is the sum of the following terms:

     one-electron contribution =   -1331.20022232 Ry
     hartree contribution      =     825.78199426 Ry
     xc contribution           =    -431.94647919 Ry
     ewald contribution        =    -381.16866023 Ry
     Dispersion Correction     =      -0.85909240 Ry
     one-center paw contrib.   =    -532.57164391 Ry

     convergence has been achieved in  20 iterations

     Forces acting on atoms (cartesian axes, Ry/au):

     atom    1 type  2   force =    -0.00020450   -0.00029922   -0.00015108
     atom    2 type  2   force =     0.00020485   -0.00029963    0.00015177
     atom    3 type  2   force =     0.00020450    0.00029922    0.00015108
     atom    4 type  2   force =    -0.00020485    0.00029963   -0.00015177
     atom    5 type  2   force =    -0.00235077   -0.00809579    0.00293337
     atom    6 type  2   force =     0.00235048   -0.00809530   -0.00293370
     atom    7 type  2   force =     0.00235077    0.00809579   -0.00293337
     atom    8 type  2   force =    -0.00235048    0.00809530    0.00293370
     atom    9 type  2   force =    -0.01154726   -0.00500683    0.00684617
     atom   10 type  2   force =     0.01154650   -0.00500703   -0.00684601
     atom   11 type  2   force =     0.01154726    0.00500683   -0.00684617
     atom   12 type  2   force =    -0.01154650    0.00500703    0.00684601
     atom   13 type  4   force =     0.00121216   -0.00107974   -0.00212129
     atom   14 type  4   force =    -0.00121381   -0.00107926    0.00212242
     atom   15 type  4   force =    -0.00121216    0.00107974    0.00212129
     atom   16 type  4   force =     0.00121381    0.00107926   -0.00212242
     atom   17 type  4   force =     0.00705123    0.00088630    0.00453264
     atom   18 type  4   force =    -0.00705084    0.00088592   -0.00453139
     atom   19 type  4   force =    -0.00705123   -0.00088630   -0.00453264
     atom   20 type  4   force =     0.00705084   -0.00088592    0.00453139
     atom   21 type  4   force =     0.00213243    0.00230231    0.00105373
     atom   22 type  4   force =    -0.00213410    0.00230331   -0.00105641
     atom   23 type  4   force =    -0.00213243   -0.00230231   -0.00105373
     atom   24 type  4   force =     0.00213410   -0.00230331    0.00105641
     atom   25 type  1   force =     0.00142958    0.00163730   -0.00188349
     atom   26 type  1   force =    -0.00142663    0.00163653    0.00186648
     atom   27 type  1   force =    -0.00142958   -0.00163730    0.00188349
     atom   28 type  1   force =     0.00142663   -0.00163653   -0.00186648
     atom   29 type  1   force =    -0.00277737    0.00115482   -0.00017425
     atom   30 type  1   force =     0.00276871    0.00115469    0.00018938
     atom   31 type  1   force =     0.00277737   -0.00115482    0.00017425
     atom   32 type  1   force =    -0.00276871   -0.00115469   -0.00018938
     atom   33 type  1   force =     0.00699194    0.00084700   -0.00282995
     atom   34 type  1   force =    -0.00698897    0.00084626    0.00282820
     atom   35 type  1   force =    -0.00699194   -0.00084700    0.00282995
     atom   36 type  1   force =     0.00698897   -0.00084626   -0.00282820
     atom   37 type  1   force =    -0.00777474   -0.00285729    0.00159298
     atom   38 type  1   force =     0.00776666   -0.00285635   -0.00157898
     atom   39 type  1   force =     0.00777474    0.00285729   -0.00159298
     atom   40 type  1   force =    -0.00776666    0.00285635    0.00157898
     atom   41 type  1   force =     0.00182338   -0.00212138   -0.00312020
     atom   42 type  1   force =    -0.00183009   -0.00212185    0.00313472
     atom   43 type  1   force =    -0.00182338    0.00212138    0.00312020
     atom   44 type  1   force =     0.00183009    0.00212185   -0.00313472
     atom   45 type  1   force =    -0.00231543    0.00024906    0.00116698
     atom   46 type  1   force =     0.00230945    0.00024934   -0.00116450
     atom   47 type  1   force =     0.00231543   -0.00024906   -0.00116698
     atom   48 type  1   force =    -0.00230945   -0.00024934    0.00116450
     atom   49 type  1   force =    -0.00112327   -0.00039815    0.00103398
     atom   50 type  1   force =     0.00113109   -0.00039759   -0.00101890
     atom   51 type  1   force =     0.00112327    0.00039815   -0.00103398
     atom   52 type  1   force =    -0.00113109    0.00039759    0.00101890
     atom   53 type  1   force =    -0.00132610   -0.00039386    0.00075268
     atom   54 type  1   force =     0.00133034   -0.00039255   -0.00075094
     atom   55 type  1   force =     0.00132610    0.00039386   -0.00075268
     atom   56 type  1   force =    -0.00133034    0.00039255    0.00075094
     atom   57 type  1   force =    -0.00239981   -0.00198340    0.00137769
     atom   58 type  1   force =     0.00240520   -0.00198302   -0.00136773
     atom   59 type  1   force =     0.00239981    0.00198340   -0.00137769
     atom   60 type  1   force =    -0.00240520    0.00198302    0.00136773
     atom   61 type  1   force =    -0.00144251    0.00557420   -0.00340391
     atom   62 type  1   force =     0.00145225    0.00557390    0.00341309
     atom   63 type  1   force =     0.00144251   -0.00557420    0.00340391
     atom   64 type  1   force =    -0.00145225   -0.00557390   -0.00341309
     atom   65 type  1   force =     0.00150117    0.00288422    0.00160237
     atom   66 type  1   force =    -0.00149440    0.00288423   -0.00158899
     atom   67 type  1   force =    -0.00150117   -0.00288422   -0.00160237
     atom   68 type  1   force =     0.00149440   -0.00288423    0.00158899
     atom   69 type  1   force =     0.01617533    0.00174670   -0.00375369
     atom   70 type  1   force =    -0.01618790    0.00174650    0.00376435
     atom   71 type  1   force =    -0.01617533   -0.00174670    0.00375369
     atom   72 type  1   force =     0.01618790   -0.00174650   -0.00376435
     atom   73 type  3   force =    -0.00112924   -0.00078883   -0.00158273
     atom   74 type  3   force =     0.00112965   -0.00078871    0.00158285
     atom   75 type  3   force =     0.00112924    0.00078883    0.00158273
     atom   76 type  3   force =    -0.00112965    0.00078871   -0.00158285
     atom   77 type  3   force =     0.00174181   -0.00123402   -0.00048202
     atom   78 type  3   force =    -0.00174209   -0.00123389    0.00048202
     atom   79 type  3   force =    -0.00174181    0.00123402    0.00048202
     atom   80 type  3   force =     0.00174209    0.00123389   -0.00048202
     atom   81 type  3   force =    -0.00623290   -0.00227735   -0.00234702
     atom   82 type  3   force =     0.00623309   -0.00227727    0.00234700
     atom   83 type  3   force =     0.00623290    0.00227735    0.00234702
     atom   84 type  3   force =    -0.00623309    0.00227727   -0.00234700
     atom   85 type  3   force =     0.00063822    0.00132661   -0.00043434
     atom   86 type  3   force =    -0.00063794    0.00132663    0.00043429
     atom   87 type  3   force =    -0.00063822   -0.00132661    0.00043434
     atom   88 type  3   force =     0.00063794   -0.00132663   -0.00043429
     atom   89 type  3   force =    -0.00183607   -0.00120962   -0.00220082
     atom   90 type  3   force =     0.00183598   -0.00120963    0.00220066
     atom   91 type  3   force =     0.00183607    0.00120962    0.00220082
     atom   92 type  3   force =    -0.00183598    0.00120963   -0.00220066
     atom   93 type  3   force =     0.00011698   -0.00010776    0.00057523
     atom   94 type  3   force =    -0.00011682   -0.00010777   -0.00057486
     atom   95 type  3   force =    -0.00011698    0.00010776   -0.00057523
     atom   96 type  3   force =     0.00011682    0.00010777    0.00057486
     atom   97 type  3   force =    -0.00027250    0.00027053   -0.00046356
     atom   98 type  3   force =     0.00027228    0.00027042    0.00046363
     atom   99 type  3   force =     0.00027250   -0.00027053    0.00046356
     atom  100 type  3   force =    -0.00027228   -0.00027042   -0.00046363
     atom  101 type  3   force =    -0.00031313    0.00161224    0.00011005
     atom  102 type  3   force =     0.00031295    0.00161218   -0.00010984
     atom  103 type  3   force =     0.00031313   -0.00161224   -0.00011005
     atom  104 type  3   force =    -0.00031295   -0.00161218    0.00010984
     atom  105 type  3   force =    -0.00043706   -0.00128122    0.00093394
     atom  106 type  3   force =     0.00043673   -0.00128104   -0.00093372
     atom  107 type  3   force =     0.00043706    0.00128122   -0.00093394
     atom  108 type  3   force =    -0.00043673    0.00128104    0.00093372
     atom  109 type  3   force =    -0.00041455   -0.00024862    0.00087528
     atom  110 type  3   force =     0.00041443   -0.00024858   -0.00087527
     atom  111 type  3   force =     0.00041455    0.00024862   -0.00087528
     atom  112 type  3   force =    -0.00041443    0.00024858    0.00087527
     atom  113 type  3   force =     0.00101474   -0.00040256    0.00048241
     atom  114 type  3   force =    -0.00101411   -0.00040293   -0.00048284
     atom  115 type  3   force =    -0.00101474    0.00040256   -0.00048241
     atom  116 type  3   force =     0.00101411    0.00040293    0.00048284
     atom  117 type  3   force =    -0.00015171    0.00014594    0.00007119
     atom  118 type  3   force =     0.00015149    0.00014588   -0.00007135
     atom  119 type  3   force =     0.00015171   -0.00014594   -0.00007119
     atom  120 type  3   force =    -0.00015149   -0.00014588    0.00007135
     atom  121 type  3   force =     0.00025860   -0.00001393   -0.00040301
     atom  122 type  3   force =    -0.00025857   -0.00001391    0.00040322
     atom  123 type  3   force =    -0.00025860    0.00001393    0.00040301
     atom  124 type  3   force =     0.00025857    0.00001391   -0.00040322
     atom  125 type  3   force =    -0.00002024   -0.00049422    0.00004894
     atom  126 type  3   force =     0.00002036   -0.00049428   -0.00004892
     atom  127 type  3   force =     0.00002024    0.00049422   -0.00004894
     atom  128 type  3   force =    -0.00002036    0.00049428    0.00004892
     atom  129 type  3   force =     0.00148863    0.00063147    0.00149190
     atom  130 type  3   force =    -0.00148825    0.00063124   -0.00149228
     atom  131 type  3   force =    -0.00148863   -0.00063147   -0.00149190
     atom  132 type  3   force =     0.00148825   -0.00063124    0.00149228
     atom  133 type  3   force =     0.00168900    0.00165842   -0.00064729
     atom  134 type  3   force =    -0.00168934    0.00165844    0.00064737
     atom  135 type  3   force =    -0.00168900   -0.00165842    0.00064729
     atom  136 type  3   force =     0.00168934   -0.00165844   -0.00064737
     atom  137 type  3   force =    -0.00028639    0.00007702    0.00035156
     atom  138 type  3   force =     0.00028637    0.00007676   -0.00035178
     atom  139 type  3   force =     0.00028639   -0.00007702   -0.00035156
     atom  140 type  3   force =    -0.00028637   -0.00007676    0.00035178
     atom  141 type  3   force =    -0.00033708    0.00086186   -0.00036051
     atom  142 type  3   force =     0.00033731    0.00086209    0.00036046
     atom  143 type  3   force =     0.00033708   -0.00086186    0.00036051
     atom  144 type  3   force =    -0.00033731   -0.00086209   -0.00036046
     atom  145 type  3   force =     0.00197897    0.00042408   -0.00022413
     atom  146 type  3   force =    -0.00197911    0.00042412    0.00022440
     atom  147 type  3   force =    -0.00197897   -0.00042408    0.00022413
     atom  148 type  3   force =     0.00197911   -0.00042412   -0.00022440
     atom  149 type  3   force =     0.00006688    0.00009238    0.00052248
     atom  150 type  3   force =    -0.00006693    0.00009207   -0.00052195
     atom  151 type  3   force =    -0.00006688   -0.00009238   -0.00052248
     atom  152 type  3   force =     0.00006693   -0.00009207    0.00052195
     atom  153 type  3   force =     0.00212172    0.00049095   -0.00047524
     atom  154 type  3   force =    -0.00212131    0.00049107    0.00047511
     atom  155 type  3   force =    -0.00212172   -0.00049095    0.00047524
     atom  156 type  3   force =     0.00212131   -0.00049107   -0.00047511
     atom  157 type  3   force =    -0.00086036    0.00272783    0.00204053
     atom  158 type  3   force =     0.00086048    0.00272762   -0.00204079
     atom  159 type  3   force =     0.00086036   -0.00272783   -0.00204053
     atom  160 type  3   force =    -0.00086048   -0.00272762    0.00204079
     atom  161 type  3   force =    -0.00133720    0.00049570   -0.00024795
     atom  162 type  3   force =     0.00133731    0.00049567    0.00024798
     atom  163 type  3   force =     0.00133720   -0.00049570    0.00024795
     atom  164 type  3   force =    -0.00133731   -0.00049567   -0.00024798
     atom  165 type  3   force =     0.00023551   -0.00009250   -0.00073868
     atom  166 type  3   force =    -0.00023557   -0.00009217    0.00073884
     atom  167 type  3   force =    -0.00023551    0.00009250    0.00073868
     atom  168 type  3   force =     0.00023557    0.00009217   -0.00073884
     atom  169 type  3   force =    -0.00425120    0.00226716    0.00095727
     atom  170 type  3   force =     0.00425120    0.00226698   -0.00095684
     atom  171 type  3   force =     0.00425120   -0.00226716   -0.00095727
     atom  172 type  3   force =    -0.00425120   -0.00226698    0.00095684
     atom  173 type  3   force =    -0.00167752    0.00022702   -0.00002377
     atom  174 type  3   force =     0.00167743    0.00022688    0.00002380
     atom  175 type  3   force =     0.00167752   -0.00022702    0.00002377
     atom  176 type  3   force =    -0.00167743   -0.00022688   -0.00002380
     atom  177 type  3   force =     0.00108321    0.00043863   -0.00191557
     atom  178 type  3   force =    -0.00108300    0.00043889    0.00191586
     atom  179 type  3   force =    -0.00108321   -0.00043863    0.00191557
     atom  180 type  3   force =     0.00108300   -0.00043889   -0.00191586

     Total force =     0.064697     Total SCF correction =     0.000238


     Computing stress (Cartesian axis) and pressure

          total   stress  (Ry/bohr**3)                   (kbar)     P=   -8.02
  -0.00002621  -0.00000000   0.00000051         -3.86     -0.00      0.07
  -0.00000000  -0.00007361   0.00000000         -0.00    -10.83      0.00
   0.00000051   0.00000000  -0.00006384          0.07      0.00     -9.39


     Writing output data file scf.save
 
     init_run     :     69.30s CPU     71.42s WALL (       1 calls)
     electrons    :   2925.16s CPU   3013.57s WALL (       1 calls)
     forces       :     38.49s CPU     38.93s WALL (       1 calls)
     stress       :    157.30s CPU    157.72s WALL (       1 calls)

     Called by init_run:
     wfcinit      :     53.47s CPU     55.31s WALL (       1 calls)
     potinit      :      5.55s CPU      5.61s WALL (       1 calls)

     Called by electrons:
     c_bands      :   2662.95s CPU   2735.92s WALL (      20 calls)
     sum_band     :    230.61s CPU    242.79s WALL (      20 calls)
     v_of_rho     :      3.73s CPU      4.12s WALL (      21 calls)
     newd         :     12.21s CPU     15.06s WALL (      21 calls)
     PAW_pot      :     14.57s CPU     14.57s WALL (      21 calls)
     mix_rho      :      0.90s CPU      0.95s WALL (      20 calls)

     Called by c_bands:
     init_us_2    :     10.24s CPU     10.30s WALL (     172 calls)
     cegterg      :   2625.27s CPU   2698.19s WALL (      80 calls)

     Called by sum_band:
     sum_band:bec :      0.10s CPU      0.10s WALL (      80 calls)
     addusdens    :     11.51s CPU     14.37s WALL (      20 calls)

     Called by *egterg:
     h_psi        :   1284.26s CPU   1341.91s WALL (     379 calls)
     s_psi        :    354.50s CPU    354.58s WALL (     379 calls)
     g_psi        :      5.45s CPU      5.45s WALL (     295 calls)
     cdiaghg      :    125.92s CPU    125.97s WALL (     375 calls)

     Called by h_psi:
     h_psi:pot    :   1276.85s CPU   1334.41s WALL (     379 calls)
     h_psi:calbec :    342.73s CPU    343.16s WALL (     379 calls)
     vloc_psi     :    579.44s CPU    636.50s WALL (     379 calls)
     add_vuspsi   :    354.68s CPU    354.75s WALL (     379 calls)

     General routines
     calbec       :    481.26s CPU    481.85s WALL (     479 calls)
     fft          :      2.52s CPU      3.20s WALL (     297 calls)
     fftw         :    611.13s CPU    677.06s WALL (  147790 calls)
 
     Parallel routines
     fft_scatter  :    102.52s CPU    165.27s WALL (  148087 calls)
 
     PWSCF        : 53m22.11s CPU    55m24.19s WALL

 
   This run was terminated on:  12:34: 4  12Nov2017            

=------------------------------------------------------------------------------=
   JOB DONE.
=------------------------------------------------------------------------------=
