
     Program PWSCF v.6.1 (svn rev. 13369) starts on 20Dec2017 at 20:46: 8 

     This program is part of the open-source Quantum ESPRESSO suite
     for quantum simulation of materials; please cite
         "P. Giannozzi et al., J. Phys.:Condens. Matter 21 395502 (2009);
          URL http://www.quantum-espresso.org", 
     in publications or presentations arising from this work. More details at
     http://www.quantum-espresso.org/quote

     Parallel version (MPI), running on     8 processors
     R & G space division:  proc/nbgrp/npool/nimage =       8
     Waiting for input...
     Reading input from standard input

     Current dimensions of program PWSCF are:
     Max number of different atomic species (ntypx) = 10
     Max number of k-points (npk) =  40000
     Max angular momentum in pseudopotentials (lmaxx) =  3
               file C.pbe-n-kjpaw_psl.0.1.UPF: wavefunction(s)  2P renormalized
               file N.pbe-n-kjpaw_psl.0.1.UPF: wavefunction(s)  2P renormalized
               file H.pbe-kjpaw_psl.0.1.UPF: wavefunction(s)  1S renormalized
               file O.pbe-n-kjpaw_psl.0.1.UPF: wavefunction(s)  2P renormalized

     -------------------------------------
     Parameters for Dispersion Correction:
     -------------------------------------
       atom      VdW radius       C_6     

        C          2.744         60.710
        N          2.640         42.670
        H          1.892          4.857
        O          2.536         24.284

     Subspace diagonalization in iterative solution of the eigenvalue problem:
     a serial algorithm will be used

 
     Parallelization info
     --------------------
     sticks:   dense  smooth     PW     G-vecs:    dense   smooth      PW
     Min        1532    1532    408               103519   103519   14259
     Max        1533    1533    409               103521   103521   14260
     Sum       12261   12261   3269               828163   828163  114075
 


     bravais-lattice index     =            0
     lattice parameter (alat)  =      16.2755  a.u.
     unit-cell volume          =    6129.5740 (a.u.)^3
     number of atoms/cell      =           88
     number of atomic types    =            4
     number of electrons       =       264.00
     number of Kohn-Sham states=          158
     kinetic-energy cutoff     =     100.0000  Ry
     charge density cutoff     =     400.0000  Ry
     convergence threshold     =      1.0E-08
     mixing beta               =       0.5000
     number of iterations used =            8  plain     mixing
     Exchange-correlation      =  SLA  PW   PBX  PBC ( 1  4  3  4 0 0)

     celldm(1)=  16.275455  celldm(2)=   0.000000  celldm(3)=   0.000000
     celldm(4)=   0.000000  celldm(5)=   0.000000  celldm(6)=   0.000000

     crystal axes: (cart. coord. in units of alat)
               a(1) = (   1.000000   0.000000   0.000000 )  
               a(2) = (   0.000000   1.453069   0.000000 )  
               a(3) = (  -0.166602   0.000000   0.978464 )  

     reciprocal axes: (cart. coord. in units 2 pi/alat)
               b(1) = (  1.000000  0.000000  0.170269 )  
               b(2) = (  0.000000  0.688199  0.000000 )  
               b(3) = (  0.000000  0.000000  1.022010 )  


     PseudoPot. # 1 for  C read from file:
     /scratch/ahofstet/pseudo/C.pbe-n-kjpaw_psl.0.1.UPF
     MD5 check sum: 430fe95172b1e11ef3f8ed03bac87931
     Pseudo is Projector augmented-wave + core cor, Zval =  4.0
     Generated using "atomic" code by A. Dal Corso  v.5.0.99 svn rev. 10869
     Shape of augmentation charge: BESSEL
     Using radial grid of 1073 points,  4 beta functions with: 
                l(1) =   0
                l(2) =   0
                l(3) =   1
                l(4) =   1
     Q(r) pseudized with 0 coefficients 


     PseudoPot. # 2 for  N read from file:
     /scratch/ahofstet/pseudo/N.pbe-n-kjpaw_psl.0.1.UPF
     MD5 check sum: f73187c8b701007e77325f868c9291d7
     Pseudo is Projector augmented-wave + core cor, Zval =  5.0
     Generated using "atomic" code by A. Dal Corso  v.5.0.99 svn rev. 10869
     Shape of augmentation charge: PSQ
     Using radial grid of 1085 points,  4 beta functions with: 
                l(1) =   0
                l(2) =   0
                l(3) =   1
                l(4) =   1
     Q(r) pseudized with 0 coefficients 


     PseudoPot. # 3 for  H read from file:
     /scratch/ahofstet/pseudo/H.pbe-kjpaw_psl.0.1.UPF
     MD5 check sum: 94e484f906d9e9773b2f6e52662335b2
     Pseudo is Projector augmented-wave, Zval =  1.0
     Generated using "atomic" code by A. Dal Corso  v.5.0.99 svn rev. 10869
     Shape of augmentation charge: PSQ
     Using radial grid of  929 points,  2 beta functions with: 
                l(1) =   0
                l(2) =   0
     Q(r) pseudized with 0 coefficients 


     PseudoPot. # 4 for  O read from file:
     /scratch/ahofstet/pseudo/O.pbe-n-kjpaw_psl.0.1.UPF
     MD5 check sum: 3f94a2996a3169367d6eb21d9b593f20
     Pseudo is Projector augmented-wave + core cor, Zval =  6.0
     Generated using "atomic" code by A. Dal Corso  v.5.0.99 svn rev. 10869
     Shape of augmentation charge: BESSEL
     Using radial grid of 1095 points,  4 beta functions with: 
                l(1) =   0
                l(2) =   0
                l(3) =   1
                l(4) =   1
     Q(r) pseudized with 0 coefficients 


     atomic species   valence    mass     pseudopotential
        C              4.00    12.01070      C( 1.00)
        N              5.00    14.00670      N( 1.00)
        H              1.00     1.00794      H( 1.00)
        O              6.00    15.99940      O( 1.00)

      2 Sym. Ops., with inversion, found



   Cartesian axes

     site n.     atom                  positions (alat units)
         1           N   tau(   1) = (   0.0117378   0.9803066   0.0597941  )
         2           N   tau(   2) = (   0.4049742   0.2537624   0.4294511  )
         3           N   tau(   3) = (   0.8216606   0.4727622   0.9186696  )
         4           N   tau(   4) = (   0.4284242   1.1993063   0.5490125  )
         5           N   tau(   5) = (   0.1171028   0.8332271   0.9045513  )
         6           N   tau(   6) = (   0.1329962   0.1066907   0.5631438  )
         7           N   tau(   7) = (   0.7162956   0.6198416   0.0739123  )
         8           N   tau(   8) = (   0.7004022   1.3463780   0.4153198  )
         9           C   tau(   9) = (   0.0683484   1.0309645   0.6907628  )
        10           C   tau(  10) = (   0.1817501   0.3044410   0.7769333  )
        11           C   tau(  11) = (   0.7650500   0.4221042   0.2877008  )
        12           C   tau(  12) = (   0.6516483   1.1486278   0.2015303  )
        13           C   tau(  13) = (  -0.0878327   1.0878036   0.6290047  )
        14           C   tau(  14) = (   0.3379300   0.3612707   0.8386880  )
        15           C   tau(  15) = (   0.9212311   0.3652652   0.3494590  )
        16           C   tau(  16) = (   0.4954684   1.0917981   0.1397756  )
        17           C   tau(  17) = (   0.8576094   1.1379590   0.7901705  )
        18           C   tau(  18) = (   0.3924930   0.4114272   0.6775273  )
        19           C   tau(  19) = (  -0.0242110   0.3151098   0.1882931  )
        20           C   tau(  20) = (   0.4409054   1.0416416   0.3009364  )
        21           C   tau(  21) = (  -0.0970701   1.0165394   0.9029921  )
        22           C   tau(  22) = (   0.3471601   0.2900107   0.5647032  )
        23           C   tau(  23) = (   0.9304685   0.4365293   0.0754715  )
        24           C   tau(  24) = (   0.4862383   1.1630580   0.4137604  )
        25           C   tau(  25) = (   0.0923459   0.8642509   0.1367553  )
        26           C   tau(  26) = (   0.3243784   0.1376992   0.3524909  )
        27           C   tau(  27) = (   0.7410525   0.5888178   0.8417083  )
        28           C   tau(  28) = (   0.5090200   1.3153695   0.6259728  )
        29           C   tau(  29) = (   0.0443554   0.8210804   0.2872251  )
        30           C   tau(  30) = (   0.3723606   0.0945306   0.2020175  )
        31           C   tau(  31) = (   0.7890430   0.6319884   0.6912386  )
        32           C   tau(  32) = (   0.4610378   1.3585382   0.7764461  )
        33           C   tau(  33) = (   0.1255585   0.7097113   0.3701302  )
        34           C   tau(  34) = (   0.2911549   1.4362343   0.1191136  )
        35           C   tau(  35) = (   0.7078399   0.7433574   0.6083335  )
        36           C   tau(  36) = (   0.5422435   0.0168345   0.8593500  )
        37           C   tau(  37) = (   0.2554999   0.6353761   0.3037598  )
        38           C   tau(  38) = (   0.1611858   1.3619238   0.1854660  )
        39           C   tau(  39) = (   0.5778985   0.8176926   0.6747038  )
        40           C   tau(  40) = (   0.6722126   0.0911449   0.7929976  )
        41           C   tau(  41) = (   0.3047321   0.6746239   0.1557062  )
        42           C   tau(  42) = (   0.1119538   1.4011720   0.3335204  )
        43           C   tau(  43) = (   0.5286663   0.7784449   0.8227574  )
        44           C   tau(  44) = (   0.7214446   0.0518967   0.6449433  )
        45           C   tau(  45) = (   0.2259809   0.7901144   0.0701749  )
        46           C   tau(  46) = (   0.1907353   0.0635693   0.4190641  )
        47           C   tau(  47) = (   0.6074175   0.6629544   0.9082888  )
        48           C   tau(  48) = (   0.6426631   1.3894995   0.5593995  )
        49           C   tau(  49) = (   0.0398152   0.9449405   0.8371808  )
        50           C   tau(  50) = (   0.2102684   0.2184191   0.6305100  )
        51           C   tau(  51) = (   0.7935832   0.5081282   0.1412828  )
        52           C   tau(  52) = (   0.6231300   1.2346496   0.3479536  )
        53           C   tau(  53) = (   0.0071961   1.1972304   0.7133394  )
        54           C   tau(  54) = (   0.2429129   0.4707017   0.7543609  )
        55           C   tau(  55) = (   0.8262023   0.2558384   0.2651243  )
        56           C   tau(  56) = (   0.5904855   0.9823671   0.2241028  )
        57           H   tau(  57) = (   0.1664233   1.0115858   0.6135481  )
        58           H   tau(  58) = (   0.0836760   0.2850638   0.8541501  )
        59           H   tau(  59) = (   0.6669751   0.4414830   0.3649155  )
        60           H   tau(  60) = (   0.7497224   1.1680049   0.1243136  )
        61           H   tau(  61) = (   0.8577288   1.0880337   0.5154360  )
        62           H   tau(  62) = (   0.3923712   0.3614930   0.9522606  )
        63           H   tau(  63) = (  -0.0243304   0.3650350   0.4630277  )
        64           H   tau(  64) = (   0.4410272   1.0915758   0.0262030  )
        65           H   tau(  65) = (   0.7577286   1.2140826   0.8041298  )
        66           H   tau(  66) = (   0.4923723   0.4875509   0.6635611  )
        67           H   tau(  67) = (   0.0756698   0.2389862   0.1743338  )
        68           H   tau(  68) = (   0.3410261   0.9655178   0.3149026  )
        69           H   tau(  69) = (  -0.0567729   0.8792809   0.3365143  )
        70           H   tau(  70) = (   0.4734810   0.1527355   0.1527189  )
        71           H   tau(  71) = (   0.8901713   0.5737879   0.6419494  )
        72           H   tau(  72) = (   0.3599174   1.3003332   0.8257448  )
        73           H   tau(  73) = (   0.0888399   0.6799132   0.4876687  )
        74           H   tau(  74) = (   0.3278671   1.4064399   0.0015717  )
        75           H   tau(  75) = (   0.7445585   0.7731555   0.4907949  )
        76           H   tau(  76) = (   0.6721329   0.0466288  -0.0015717  )
        77           H   tau(  77) = (   0.3180476   0.5467020   0.3690168  )
        78           H   tau(  78) = (   0.0986255   1.2732661   0.1201985  )
        79           H   tau(  79) = (   0.5153508   0.9063668   0.6094468  )
        80           H   tau(  80) = (   0.7347729   0.1798027   0.8582651  )
        81           H   tau(  81) = (   0.4078100   0.6217517   0.1041707  )
        82           H   tau(  82) = (   0.0088637   1.3483181   0.3850514  )
        83           H   tau(  83) = (   0.4255884   0.8313171   0.8742929  )
        84           H   tau(  84) = (   0.8245347   0.1047507   0.5934123  )
        85           H   tau(  85) = (   0.0535974   1.3120512   0.6879246  )
        86           H   tau(  86) = (   0.1965097   0.5855252   0.7797815  )
        87           H   tau(  87) = (   0.7798010   0.1410176   0.2905390  )
        88           H   tau(  88) = (   0.6368887   0.8675435   0.1986821  )

     number of k points=     8
                       cart. coord. in units 2pi/alat
        k(    1) = (   0.0000000   0.0000000   0.0000000), wk =   0.2500000
        k(    2) = (   0.0000000   0.0000000  -0.5110052), wk =   0.2500000
        k(    3) = (   0.0000000  -0.3440993   0.0000000), wk =   0.2500000
        k(    4) = (   0.0000000  -0.3440993  -0.5110052), wk =   0.2500000
        k(    5) = (  -0.5000000   0.0000000  -0.0851343), wk =   0.2500000
        k(    6) = (  -0.5000000   0.0000000  -0.5961395), wk =   0.2500000
        k(    7) = (  -0.5000000  -0.3440993  -0.0851343), wk =   0.2500000
        k(    8) = (  -0.5000000  -0.3440993  -0.5961395), wk =   0.2500000

     Dense  grid:   828163 G-vectors     FFT dimensions: ( 108, 160, 108)

     Estimated max dynamical RAM per process >     707.58MB

     Estimated total allocated dynamical RAM >    5660.65MB

     Check: negative/imaginary core charge=   -0.000002    0.000000

     Initial potential from superposition of free atoms

     starting charge  263.99764, renormalised to  264.00000
     Starting wfc are  256 randomized atomic wfcs
     Checking if some PAW data can be deallocated... 

     total cpu time spent up to now is       44.8 secs

     per-process dynamical memory:   528.0 Mb

     Self-consistent Calculation

     iteration #  1     ecut=   100.00 Ry     beta=0.50
     Davidson diagonalization with overlap
     ethr =  1.00E-02,  avg # of iterations =  5.0

     total cpu time spent up to now is      145.1 secs

     total energy              =   -1146.69872213 Ry
     Harris-Foulkes estimate   =   -1151.33546865 Ry
     estimated scf accuracy    <       8.94908118 Ry

     iteration #  2     ecut=   100.00 Ry     beta=0.50
     Davidson diagonalization with overlap
     ethr =  3.39E-03,  avg # of iterations =  2.0

     total cpu time spent up to now is      197.6 secs

     total energy              =   -1146.38338086 Ry
     Harris-Foulkes estimate   =   -1147.20492037 Ry
     estimated scf accuracy    <       1.42220677 Ry

     iteration #  3     ecut=   100.00 Ry     beta=0.50
     Davidson diagonalization with overlap
     ethr =  5.39E-04,  avg # of iterations =  5.1

     total cpu time spent up to now is      319.2 secs

     total energy              =   -1148.08336821 Ry
     Harris-Foulkes estimate   =   -1148.83759218 Ry
     estimated scf accuracy    <       2.67375979 Ry

     iteration #  4     ecut=   100.00 Ry     beta=0.50
     Davidson diagonalization with overlap
     ethr =  5.39E-04,  avg # of iterations =  1.0

     total cpu time spent up to now is      370.1 secs

     total energy              =   -1147.17779418 Ry
     Harris-Foulkes estimate   =   -1148.12728858 Ry
     estimated scf accuracy    <       1.37072337 Ry

     iteration #  5     ecut=   100.00 Ry     beta=0.50
     Davidson diagonalization with overlap
     ethr =  5.19E-04,  avg # of iterations =  6.0

     total cpu time spent up to now is      473.6 secs

     total energy              =   -1147.86977930 Ry
     Harris-Foulkes estimate   =   -1148.26461375 Ry
     estimated scf accuracy    <       0.89254479 Ry

     iteration #  6     ecut=   100.00 Ry     beta=0.50
     Davidson diagonalization with overlap
     ethr =  3.38E-04,  avg # of iterations =  1.0

     total cpu time spent up to now is      523.9 secs

     total energy              =   -1147.78108570 Ry
     Harris-Foulkes estimate   =   -1147.90723184 Ry
     estimated scf accuracy    <       0.25248867 Ry

     iteration #  7     ecut=   100.00 Ry     beta=0.50
     Davidson diagonalization with overlap
     ethr =  9.56E-05,  avg # of iterations =  6.4

     total cpu time spent up to now is      631.2 secs

     total energy              =   -1147.95475224 Ry
     Harris-Foulkes estimate   =   -1147.97851115 Ry
     estimated scf accuracy    <       0.05771971 Ry

     iteration #  8     ecut=   100.00 Ry     beta=0.50
     Davidson diagonalization with overlap
     ethr =  2.19E-05,  avg # of iterations =  1.9

     total cpu time spent up to now is      682.7 secs

     total energy              =   -1147.94813891 Ry
     Harris-Foulkes estimate   =   -1147.95713950 Ry
     estimated scf accuracy    <       0.01806328 Ry

     iteration #  9     ecut=   100.00 Ry     beta=0.50
     Davidson diagonalization with overlap
     ethr =  6.84E-06,  avg # of iterations =  6.8

     total cpu time spent up to now is      787.8 secs

     total energy              =   -1147.96043776 Ry
     Harris-Foulkes estimate   =   -1147.96135772 Ry
     estimated scf accuracy    <       0.00386967 Ry

     iteration # 10     ecut=   100.00 Ry     beta=0.50
     Davidson diagonalization with overlap
     ethr =  1.47E-06,  avg # of iterations =  1.4

     total cpu time spent up to now is      838.2 secs

     total energy              =   -1147.95952994 Ry
     Harris-Foulkes estimate   =   -1147.96050824 Ry
     estimated scf accuracy    <       0.00224772 Ry

     iteration # 11     ecut=   100.00 Ry     beta=0.50
     Davidson diagonalization with overlap
     ethr =  8.51E-07,  avg # of iterations =  3.4

     total cpu time spent up to now is      909.3 secs

     total energy              =   -1147.96004066 Ry
     Harris-Foulkes estimate   =   -1147.96006163 Ry
     estimated scf accuracy    <       0.00003147 Ry

     iteration # 12     ecut=   100.00 Ry     beta=0.50
     Davidson diagonalization with overlap
     ethr =  1.19E-08,  avg # of iterations =  5.0

     total cpu time spent up to now is     1024.6 secs

     total energy              =   -1147.96011001 Ry
     Harris-Foulkes estimate   =   -1147.96011982 Ry
     estimated scf accuracy    <       0.00006181 Ry

     iteration # 13     ecut=   100.00 Ry     beta=0.50
     Davidson diagonalization with overlap
     ethr =  1.19E-08,  avg # of iterations =  1.0

     total cpu time spent up to now is     1074.5 secs

     total energy              =   -1147.96008011 Ry
     Harris-Foulkes estimate   =   -1147.96011050 Ry
     estimated scf accuracy    <       0.00004381 Ry

     iteration # 14     ecut=   100.00 Ry     beta=0.50
     Davidson diagonalization with overlap
     ethr =  1.19E-08,  avg # of iterations =  4.0

     total cpu time spent up to now is     1166.2 secs

     total energy              =   -1147.96010193 Ry
     Harris-Foulkes estimate   =   -1147.96010676 Ry
     estimated scf accuracy    <       0.00002085 Ry

     iteration # 15     ecut=   100.00 Ry     beta=0.50
     Davidson diagonalization with overlap
     ethr =  7.90E-09,  avg # of iterations =  1.0

     total cpu time spent up to now is     1216.1 secs

     total energy              =   -1147.96009705 Ry
     Harris-Foulkes estimate   =   -1147.96010222 Ry
     estimated scf accuracy    <       0.00001227 Ry

     iteration # 16     ecut=   100.00 Ry     beta=0.50
     Davidson diagonalization with overlap
     ethr =  4.65E-09,  avg # of iterations =  4.1

     total cpu time spent up to now is     1287.2 secs

     total energy              =   -1147.96009997 Ry
     Harris-Foulkes estimate   =   -1147.96010003 Ry
     estimated scf accuracy    <       0.00000011 Ry

     iteration # 17     ecut=   100.00 Ry     beta=0.50
     Davidson diagonalization with overlap
     ethr =  4.29E-11,  avg # of iterations =  5.0

     total cpu time spent up to now is     1405.3 secs

     total energy              =   -1147.96010029 Ry
     Harris-Foulkes estimate   =   -1147.96010045 Ry
     estimated scf accuracy    <       0.00000038 Ry

     iteration # 18     ecut=   100.00 Ry     beta=0.50
     Davidson diagonalization with overlap
     ethr =  4.29E-11,  avg # of iterations =  5.0

     total cpu time spent up to now is     1469.6 secs

     total energy              =   -1147.96010027 Ry
     Harris-Foulkes estimate   =   -1147.96010031 Ry
     estimated scf accuracy    <       0.00000008 Ry

     iteration # 19     ecut=   100.00 Ry     beta=0.50
     Davidson diagonalization with overlap
     ethr =  2.95E-11,  avg # of iterations =  5.5

     total cpu time spent up to now is     1564.2 secs

     total energy              =   -1147.96010032 Ry
     Harris-Foulkes estimate   =   -1147.96010032 Ry
     estimated scf accuracy    <       0.00000001 Ry

     iteration # 20     ecut=   100.00 Ry     beta=0.50
     Davidson diagonalization with overlap
     ethr =  4.33E-12,  avg # of iterations =  2.6

     total cpu time spent up to now is     1616.6 secs

     total energy              =   -1147.96010032 Ry
     Harris-Foulkes estimate   =   -1147.96010032 Ry
     estimated scf accuracy    <       0.00000001 Ry

     iteration # 21     ecut=   100.00 Ry     beta=0.50
     Davidson diagonalization with overlap
     ethr =  4.33E-12,  avg # of iterations =  1.6

     total cpu time spent up to now is     1667.5 secs

     End of self-consistent calculation

          k = 0.0000 0.0000 0.0000 (103571 PWs)   bands (ev):

   -18.3344 -18.3071 -18.2943 -18.2792 -17.3882 -17.3632 -17.3332 -17.3261
   -16.2837 -16.2810 -16.2718 -16.2675 -14.6602 -14.6473 -14.6438 -14.6409
   -12.4567 -12.4191 -12.4063 -12.3966 -12.2347 -12.2170 -12.1913 -12.1832
   -11.1260 -11.1247 -11.1087 -11.0929 -10.6283 -10.6205 -10.6170 -10.6064
    -9.0636  -9.0384  -9.0243  -9.0243  -8.5277  -8.5262  -8.4623  -8.4590
    -8.0883  -8.0626  -7.9607  -7.9577  -7.4142  -7.3956  -7.3834  -7.3707
    -7.3160  -7.2538  -7.2323  -7.2313  -6.4792  -6.4613  -6.4465  -6.4019
    -6.2950  -6.1699  -6.1624  -6.1460  -5.3869  -5.3766  -5.3744  -5.3564
    -4.8259  -4.6232  -4.6231  -4.6021  -4.5852  -4.5533  -4.4203  -4.4136
    -4.3010  -4.2900  -4.2611  -4.1807  -4.0480  -3.9987  -3.9103  -3.8908
    -3.8529  -3.8477  -3.8429  -3.8101  -3.4130  -3.3420  -3.2611  -3.2152
    -2.8477  -2.7854  -2.7651  -2.7450  -2.5318  -2.4963  -2.4084  -2.3924
    -2.3807  -2.3412  -2.1768  -2.1606  -2.1583  -2.1503  -2.1199  -2.0512
    -1.5679  -1.5491  -1.4867  -1.4829  -1.1453  -1.1198  -1.1018  -1.0190
    -0.9375  -0.9343  -0.9335  -0.8696  -0.5623  -0.5010  -0.4941  -0.4673
     0.2639   0.3499   0.3953   0.4389   0.4824   0.5090   0.5578   0.5886
     0.7399   0.8250   0.8798   1.0413   3.8476   3.8577   3.9485   3.9977
     4.5982   4.7895   4.8828   4.8977   5.2821   5.3519   5.5731   5.6028
     6.5437   6.6543   6.9158   6.9161   6.9655   6.9998   7.0266   7.1121
     7.2573   7.3948   7.4404   7.5141   7.6548   7.8293

          k = 0.0000 0.0000-0.5110 (103460 PWs)   bands (ev):

   -18.3142 -18.3141 -18.2924 -18.2923 -17.3632 -17.3629 -17.3452 -17.3449
   -16.2828 -16.2828 -16.2700 -16.2700 -14.6657 -14.6655 -14.6275 -14.6273
   -12.4269 -12.4269 -12.4096 -12.4096 -12.1986 -12.1986 -12.1815 -12.1815
   -11.1586 -11.1586 -11.1275 -11.1274 -10.6255 -10.6254 -10.6163 -10.6162
    -9.0350  -9.0349  -9.0040  -9.0040  -8.5633  -8.5632  -8.4135  -8.4134
    -8.0425  -8.0424  -7.9914  -7.9914  -7.4032  -7.4031  -7.3670  -7.3670
    -7.3417  -7.3417  -7.2813  -7.2813  -6.4606  -6.4606  -6.4156  -6.4156
    -6.1550  -6.1549  -6.0840  -6.0840  -5.4531  -5.4530  -5.3155  -5.3154
    -4.7644  -4.7644  -4.5742  -4.5741  -4.5500  -4.5500  -4.4828  -4.4827
    -4.3700  -4.3700  -4.2306  -4.2305  -3.9650  -3.9650  -3.8964  -3.8964
    -3.8584  -3.8584  -3.8366  -3.8365  -3.3428  -3.3427  -3.2842  -3.2840
    -2.8266  -2.8264  -2.7352  -2.7352  -2.5039  -2.5038  -2.4057  -2.4057
    -2.3211  -2.3210  -2.1861  -2.1860  -2.1147  -2.1146  -2.0746  -2.0746
    -1.5900  -1.5900  -1.4571  -1.4571  -1.1707  -1.1706  -1.1446  -1.1446
    -0.9400  -0.9400  -0.8979  -0.8979  -0.5333  -0.5332  -0.5221  -0.5220
     0.3226   0.3226   0.4826   0.4826   0.5065   0.5065   0.5811   0.5813
     0.8036   0.8036   0.9667   0.9667   3.8613   3.8613   3.9692   3.9692
     4.7301   4.7301   4.8966   4.8967   5.3297   5.3297   5.5910   5.5911
     6.4991   6.4992   6.8439   6.8441   6.8945   6.8945   7.1241   7.1241
     7.2647   7.2648   7.4458   7.4459   7.5260   7.5263

          k = 0.0000-0.3441 0.0000 (103480 PWs)   bands (ev):

   -18.3239 -18.3238 -18.2837 -18.2836 -17.3770 -17.3769 -17.3284 -17.3283
   -16.2826 -16.2826 -16.2694 -16.2694 -14.6554 -14.6552 -14.6408 -14.6407
   -12.4395 -12.4395 -12.4013 -12.4013 -12.2256 -12.2255 -12.1861 -12.1861
   -11.1255 -11.1255 -11.1011 -11.1011 -10.6234 -10.6233 -10.6123 -10.6123
    -9.0515  -9.0514  -9.0242  -9.0242  -8.5270  -8.5270  -8.4611  -8.4610
    -8.0765  -8.0765  -7.9587  -7.9587  -7.4023  -7.4023  -7.3494  -7.3494
    -7.2905  -7.2905  -7.2588  -7.2588  -6.4645  -6.4645  -6.4400  -6.4400
    -6.2500  -6.2499  -6.1230  -6.1230  -5.3895  -5.3894  -5.3521  -5.3520
    -4.7575  -4.7575  -4.6098  -4.6097  -4.4946  -4.4945  -4.4229  -4.4229
    -4.3785  -4.3785  -4.1952  -4.1950  -4.0144  -4.0143  -3.8842  -3.8842
    -3.8718  -3.8718  -3.8227  -3.8227  -3.3797  -3.3796  -3.2392  -3.2392
    -2.8531  -2.8530  -2.7012  -2.7011  -2.5350  -2.5349  -2.3782  -2.3781
    -2.3508  -2.3508  -2.2063  -2.2063  -2.1319  -2.1317  -2.0962  -2.0962
    -1.5653  -1.5652  -1.4633  -1.4632  -1.1392  -1.1392  -1.0584  -1.0584
    -0.9397  -0.9397  -0.8943  -0.8943  -0.5285  -0.5285  -0.4938  -0.4937
     0.2872   0.2873   0.4315   0.4315   0.4941   0.4941   0.5740   0.5741
     0.7640   0.7641   0.9851   0.9851   3.8896   3.8896   3.9374   3.9374
     4.6809   4.6809   4.9035   4.9035   5.3183   5.3183   5.5818   5.5818
     6.6352   6.6353   6.8188   6.8189   6.9714   6.9714   7.0490   7.0490
     7.4037   7.4038   7.6285   7.6286   7.6831   7.6832

          k = 0.0000-0.3441-0.5110 (103516 PWs)   bands (ev):

   -18.3139 -18.3138 -18.2927 -18.2926 -17.3620 -17.3617 -17.3464 -17.3461
   -16.2829 -16.2828 -16.2700 -16.2699 -14.6649 -14.6648 -14.6283 -14.6282
   -12.4258 -12.4258 -12.4090 -12.4090 -12.1917 -12.1916 -12.1905 -12.1905
   -11.1538 -11.1537 -11.1318 -11.1317 -10.6256 -10.6255 -10.6165 -10.6165
    -9.0327  -9.0326  -9.0055  -9.0055  -8.5640  -8.5640  -8.4139  -8.4139
    -8.0301  -8.0299  -8.0011  -8.0009  -7.4071  -7.4070  -7.3723  -7.3723
    -7.3314  -7.3313  -7.2892  -7.2892  -6.4407  -6.4406  -6.4335  -6.4335
    -6.1195  -6.1194  -6.1148  -6.1147  -5.4420  -5.4419  -5.3333  -5.3332
    -4.7277  -4.7277  -4.6341  -4.6340  -4.5699  -4.5699  -4.4040  -4.4039
    -4.3754  -4.3754  -4.2554  -4.2552  -3.9360  -3.9360  -3.9293  -3.9292
    -3.8701  -3.8701  -3.8282  -3.8281  -3.3464  -3.3462  -3.2804  -3.2803
    -2.8236  -2.8235  -2.7414  -2.7414  -2.4952  -2.4951  -2.4097  -2.4096
    -2.2918  -2.2917  -2.2090  -2.2089  -2.1114  -2.1112  -2.0779  -2.0778
    -1.5607  -1.5605  -1.5021  -1.5020  -1.1517  -1.1516  -1.1478  -1.1477
    -0.9394  -0.9394  -0.9029  -0.9029  -0.5340  -0.5339  -0.5149  -0.5148
     0.3286   0.3287   0.4474   0.4474   0.5259   0.5260   0.5798   0.5799
     0.8140   0.8141   0.9604   0.9605   3.8835   3.8836   3.9480   3.9480
     4.7431   4.7431   4.8848   4.8849   5.3363   5.3363   5.5707   5.5707
     6.5559   6.5560   6.8339   6.8341   6.8930   6.8931   6.9272   6.9273
     7.4213   7.4214   7.5002   7.5004   7.7321   7.7323

          k =-0.5000 0.0000-0.0851 (103532 PWs)   bands (ev):

   -18.3137 -18.3136 -18.2943 -18.2942 -17.3610 -17.3607 -17.3446 -17.3444
   -16.2875 -16.2874 -16.2644 -16.2643 -14.6544 -14.6543 -14.6416 -14.6415
   -12.4371 -12.4370 -12.4024 -12.4024 -12.2269 -12.2268 -12.1867 -12.1867
   -11.1202 -11.1201 -11.1037 -11.1036 -10.6232 -10.6232 -10.6146 -10.6146
    -9.0520  -9.0520  -9.0222  -9.0222  -8.5278  -8.5278  -8.4453  -8.4452
    -8.0349  -8.0347  -8.0199  -8.0196  -7.3950  -7.3950  -7.3428  -7.3428
    -7.3372  -7.3372  -7.2270  -7.2270  -6.4819  -6.4818  -6.4215  -6.4215
    -6.2522  -6.2522  -6.1347  -6.1347  -5.4058  -5.4057  -5.3320  -5.3318
    -4.7147  -4.7147  -4.6152  -4.6151  -4.5057  -4.5056  -4.3970  -4.3970
    -4.3862  -4.3862  -4.2343  -4.2342  -3.9510  -3.9509  -3.8944  -3.8943
    -3.8777  -3.8776  -3.8331  -3.8331  -3.3464  -3.3462  -3.2856  -3.2855
    -2.8708  -2.8707  -2.7478  -2.7478  -2.5480  -2.5480  -2.3643  -2.3642
    -2.3572  -2.3572  -2.1982  -2.1982  -2.1215  -2.1214  -2.0867  -2.0866
    -1.5192  -1.5191  -1.4786  -1.4786  -1.1345  -1.1345  -1.0457  -1.0457
    -0.9416  -0.9416  -0.8996  -0.8995  -0.5455  -0.5454  -0.4846  -0.4845
     0.2786   0.2787   0.4582   0.4583   0.4762   0.4762   0.5607   0.5608
     0.8050   0.8050   0.9383   0.9384   3.8614   3.8614   3.9747   3.9749
     4.7043   4.7043   4.8962   4.8963   5.3352   5.3353   5.5899   5.5900
     6.7672   6.7672   6.8864   6.8866   6.9763   6.9764   7.1250   7.1251
     7.1969   7.1970   7.5275   7.5275   7.5611   7.5613

          k =-0.5000 0.0000-0.5961 (103528 PWs)   bands (ev):

   -18.3216 -18.3082 -18.3023 -18.2793 -17.3734 -17.3713 -17.3482 -17.3257
   -16.2898 -16.2859 -16.2654 -16.2638 -14.6704 -14.6507 -14.6343 -14.6311
   -12.4362 -12.4170 -12.4152 -12.4065 -12.2032 -12.1923 -12.1805 -12.1801
   -11.1710 -11.1500 -11.1316 -11.1183 -10.6339 -10.6241 -10.6155 -10.6124
    -9.0354  -9.0314  -9.0157  -8.9934  -8.5215  -8.5028  -8.4951  -8.4393
    -8.1024  -8.0365  -7.9680  -7.9499  -7.4070  -7.4003  -7.3881  -7.3739
    -7.3660  -7.3225  -7.2746  -7.2571  -6.4664  -6.4537  -6.4205  -6.4005
    -6.1597  -6.1515  -6.1003  -6.0925  -5.4870  -5.3857  -5.3525  -5.3357
    -4.7171  -4.6733  -4.6380  -4.6336  -4.5970  -4.5368  -4.4225  -4.4097
    -4.3867  -4.3800  -4.3501  -4.1925  -4.0401  -3.9471  -3.8935  -3.8863
    -3.8818  -3.8374  -3.8082  -3.8023  -3.4447  -3.4179  -3.2144  -3.1598
    -2.8828  -2.7837  -2.7814  -2.6587  -2.5063  -2.4611  -2.3908  -2.3906
    -2.3292  -2.2752  -2.2399  -2.1959  -2.1014  -2.0995  -2.0900  -2.0676
    -1.6171  -1.6073  -1.5923  -1.3807  -1.2408  -1.1726  -1.1065  -1.0915
    -0.9349  -0.9159  -0.9083  -0.8987  -0.5679  -0.5567  -0.5079  -0.4904
     0.3275   0.3740   0.3900   0.4565   0.5026   0.5117   0.5479   0.6428
     0.7104   0.8886   0.9495   1.0168   3.8520   3.8955   3.9360   3.9510
     4.7071   4.7551   4.8944   4.9080   5.2345   5.4693   5.5575   5.6289
     6.6070   6.6602   6.7604   6.8439   6.8461   6.9171   6.9483   6.9661
     7.2478   7.2794   7.3271   7.3319   7.3967   7.5467

          k =-0.5000-0.3441-0.0851 (103540 PWs)   bands (ev):

   -18.3130 -18.3129 -18.2950 -18.2949 -17.3591 -17.3588 -17.3465 -17.3462
   -16.2875 -16.2875 -16.2643 -16.2643 -14.6539 -14.6537 -14.6421 -14.6420
   -12.4335 -12.4335 -12.4069 -12.4069 -12.2271 -12.2270 -12.1855 -12.1855
   -11.1192 -11.1191 -11.1051 -11.1050 -10.6189 -10.6188 -10.6184 -10.6183
    -9.0504  -9.0504  -9.0241  -9.0240  -8.5285  -8.5285  -8.4460  -8.4459
    -8.0309  -8.0307  -8.0245  -8.0243  -7.3607  -7.3607  -7.3517  -7.3517
    -7.2968  -7.2968  -7.2945  -7.2945  -6.4731  -6.4730  -6.4368  -6.4368
    -6.2487  -6.2487  -6.1283  -6.1283  -5.4067  -5.4066  -5.3263  -5.3262
    -4.6713  -4.6713  -4.6127  -4.6126  -4.5913  -4.5913  -4.4208  -4.4208
    -4.3045  -4.3044  -4.2519  -4.2518  -3.9409  -3.9409  -3.9179  -3.9179
    -3.8613  -3.8613  -3.8498  -3.8497  -3.3474  -3.3472  -3.2816  -3.2814
    -2.8283  -2.8281  -2.7646  -2.7645  -2.5338  -2.5337  -2.4298  -2.4297
    -2.3524  -2.3523  -2.1674  -2.1672  -2.1469  -2.1468  -2.0736  -2.0734
    -1.4988  -1.4987  -1.4776  -1.4775  -1.1289  -1.1289  -1.0812  -1.0811
    -0.9256  -0.9255  -0.8993  -0.8992  -0.5295  -0.5294  -0.5001  -0.5000
     0.2909   0.2909   0.4215   0.4215   0.4987   0.4989   0.5464   0.5465
     0.8197   0.8199   0.9400   0.9400   3.8942   3.8943   3.9417   3.9418
     4.7232   4.7233   4.8794   4.8794   5.3334   5.3335   5.5858   5.5859
     6.6913   6.6914   6.9461   6.9463   6.9605   6.9606   7.1284   7.1285
     7.3578   7.3579   7.4042   7.4043   7.5010   7.5012

          k =-0.5000-0.3441-0.5961 (103536 PWs)   bands (ev):

   -18.3179 -18.3179 -18.2878 -18.2878 -17.3735 -17.3734 -17.3359 -17.3358
   -16.2879 -16.2879 -16.2645 -16.2645 -14.6614 -14.6613 -14.6320 -14.6319
   -12.4290 -12.4290 -12.4069 -12.4069 -12.1949 -12.1949 -12.1850 -12.1850
   -11.1583 -11.1583 -11.1268 -11.1267 -10.6291 -10.6290 -10.6142 -10.6142
    -9.0338  -9.0338  -9.0035  -9.0035  -8.5035  -8.5035  -8.4783  -8.4782
    -8.0670  -8.0670  -7.9579  -7.9579  -7.4212  -7.4212  -7.3791  -7.3791
    -7.3130  -7.3129  -7.2858  -7.2858  -6.4446  -6.4446  -6.4273  -6.4273
    -6.1397  -6.1397  -6.1077  -6.1077  -5.4285  -5.4284  -5.3545  -5.3544
    -4.7298  -4.7298  -4.5793  -4.5793  -4.5591  -4.5591  -4.4790  -4.4790
    -4.3651  -4.3650  -4.2436  -4.2434  -4.0018  -4.0017  -3.8938  -3.8938
    -3.8708  -3.8707  -3.7974  -3.7973  -3.4327  -3.4326  -3.1826  -3.1825
    -2.8226  -2.8225  -2.7442  -2.7442  -2.4809  -2.4808  -2.3901  -2.3899
    -2.3006  -2.3005  -2.1676  -2.1674  -2.1483  -2.1482  -2.0744  -2.0744
    -1.6293  -1.6293  -1.4816  -1.4815  -1.1820  -1.1819  -1.1002  -1.1001
    -0.9224  -0.9223  -0.9189  -0.9188  -0.5787  -0.5787  -0.4789  -0.4789
     0.3260   0.3260   0.4498   0.4498   0.5140   0.5140   0.5905   0.5906
     0.7833   0.7834   0.9938   0.9939   3.8937   3.8938   3.9227   3.9228
     4.7326   4.7327   4.9024   4.9025   5.3474   5.3475   5.5928   5.5929
     6.5639   6.5639   6.8224   6.8224   6.9105   6.9106   7.0183   7.0183
     7.1692   7.1692   7.3878   7.3880   7.5339   7.5340

     highest occupied, lowest unoccupied level (ev):     1.0413    3.8476

!    total energy              =   -1147.96010032 Ry
     Harris-Foulkes estimate   =   -1147.96010032 Ry
     estimated scf accuracy    <          2.6E-09 Ry

     total all-electron energy =     -4571.027238 Ry

     The total energy is the sum of the following terms:

     one-electron contribution =    -660.10363110 Ry
     hartree contribution      =     426.10604169 Ry
     xc contribution           =    -264.32973021 Ry
     ewald contribution        =    -263.63293143 Ry
     Dispersion Correction     =      -0.39858834 Ry
     one-center paw contrib.   =    -385.60126092 Ry

     convergence has been achieved in  21 iterations

     Forces acting on atoms (cartesian axes, Ry/au):

     atom    1 type  2   force =    -0.00063752   -0.00002708   -0.00106560
     atom    2 type  2   force =     0.00064782   -0.00003507    0.00105222
     atom    3 type  2   force =     0.00063752    0.00002708    0.00106560
     atom    4 type  2   force =    -0.00064782    0.00003507   -0.00105222
     atom    5 type  2   force =    -0.00004122    0.00016054   -0.00082394
     atom    6 type  2   force =     0.00005496    0.00018412    0.00083644
     atom    7 type  2   force =     0.00004122   -0.00016054    0.00082394
     atom    8 type  2   force =    -0.00005496   -0.00018412   -0.00083644
     atom    9 type  1   force =    -0.00073837    0.00088211   -0.00002983
     atom   10 type  1   force =     0.00067466    0.00085534    0.00000624
     atom   11 type  1   force =     0.00073837   -0.00088211    0.00002983
     atom   12 type  1   force =    -0.00067466   -0.00085534   -0.00000624
     atom   13 type  1   force =     0.00002818   -0.00023400    0.00041407
     atom   14 type  1   force =     0.00007155   -0.00027443   -0.00029429
     atom   15 type  1   force =    -0.00002818    0.00023400   -0.00041407
     atom   16 type  1   force =    -0.00007155    0.00027443    0.00029429
     atom   17 type  1   force =     0.00023897    0.00089698   -0.00124734
     atom   18 type  1   force =    -0.00026996    0.00087907    0.00119011
     atom   19 type  1   force =    -0.00023897   -0.00089698    0.00124734
     atom   20 type  1   force =     0.00026996   -0.00087907   -0.00119011
     atom   21 type  1   force =     0.00017532    0.00009644    0.00136144
     atom   22 type  1   force =    -0.00013505    0.00011218   -0.00134179
     atom   23 type  1   force =    -0.00017532   -0.00009644   -0.00136144
     atom   24 type  1   force =     0.00013505   -0.00011218    0.00134179
     atom   25 type  1   force =     0.00060889   -0.00059066   -0.00104866
     atom   26 type  1   force =    -0.00067202   -0.00059103    0.00103544
     atom   27 type  1   force =    -0.00060889    0.00059066    0.00104866
     atom   28 type  1   force =     0.00067202    0.00059103   -0.00103544
     atom   29 type  1   force =     0.00024436   -0.00017908    0.00122681
     atom   30 type  1   force =    -0.00021692   -0.00017884   -0.00120760
     atom   31 type  1   force =    -0.00024436    0.00017908   -0.00122681
     atom   32 type  1   force =     0.00021692    0.00017884    0.00120760
     atom   33 type  1   force =    -0.00080456   -0.00102991   -0.00004637
     atom   34 type  1   force =     0.00072791   -0.00103657    0.00001737
     atom   35 type  1   force =     0.00080456    0.00102991    0.00004637
     atom   36 type  1   force =    -0.00072791    0.00103657   -0.00001737
     atom   37 type  1   force =     0.00049206   -0.00006927   -0.00060701
     atom   38 type  1   force =    -0.00044728   -0.00006586    0.00063088
     atom   39 type  1   force =    -0.00049206    0.00006927    0.00060701
     atom   40 type  1   force =     0.00044728    0.00006586   -0.00063088
     atom   41 type  1   force =     0.00026108    0.00119628   -0.00023310
     atom   42 type  1   force =    -0.00019954    0.00119970    0.00023584
     atom   43 type  1   force =    -0.00026108   -0.00119628    0.00023310
     atom   44 type  1   force =     0.00019954   -0.00119970   -0.00023584
     atom   45 type  1   force =    -0.00055560    0.00079854    0.00006705
     atom   46 type  1   force =     0.00048248    0.00080917   -0.00008098
     atom   47 type  1   force =     0.00055560   -0.00079854   -0.00006705
     atom   48 type  1   force =    -0.00048248   -0.00080917    0.00008098
     atom   49 type  1   force =     0.00036686   -0.00069933   -0.00046325
     atom   50 type  1   force =    -0.00030501   -0.00072544    0.00047047
     atom   51 type  1   force =    -0.00036686    0.00069933    0.00046325
     atom   52 type  1   force =     0.00030501    0.00072544   -0.00047047
     atom   53 type  1   force =    -0.00009268    0.00100250    0.00037318
     atom   54 type  1   force =     0.00000167    0.00111517   -0.00038167
     atom   55 type  1   force =     0.00009268   -0.00100250   -0.00037318
     atom   56 type  1   force =    -0.00000167   -0.00111517    0.00038167
     atom   57 type  3   force =     0.00028528   -0.00097707   -0.00016735
     atom   58 type  3   force =    -0.00028130   -0.00096917    0.00016654
     atom   59 type  3   force =    -0.00028528    0.00097707    0.00016735
     atom   60 type  3   force =     0.00028130    0.00096917   -0.00016654
     atom   61 type  3   force =    -0.00020711   -0.00043213    0.00023571
     atom   62 type  3   force =     0.00018604   -0.00043521   -0.00028239
     atom   63 type  3   force =     0.00020711    0.00043213   -0.00023571
     atom   64 type  3   force =    -0.00018604    0.00043521    0.00028239
     atom   65 type  3   force =    -0.00007279    0.00070409   -0.00033729
     atom   66 type  3   force =     0.00007862    0.00069586    0.00034479
     atom   67 type  3   force =     0.00007279   -0.00070409    0.00033729
     atom   68 type  3   force =    -0.00007862   -0.00069586   -0.00034479
     atom   69 type  3   force =     0.00054797    0.00055661   -0.00062642
     atom   70 type  3   force =    -0.00053245    0.00055325    0.00063194
     atom   71 type  3   force =    -0.00054797   -0.00055661    0.00062642
     atom   72 type  3   force =     0.00053245   -0.00055325   -0.00063194
     atom   73 type  3   force =     0.00055048   -0.00061860   -0.00074185
     atom   74 type  3   force =    -0.00054404   -0.00061833    0.00074686
     atom   75 type  3   force =    -0.00055048    0.00061860    0.00074185
     atom   76 type  3   force =     0.00054404    0.00061833   -0.00074686
     atom   77 type  3   force =    -0.00026403    0.00046814   -0.00010762
     atom   78 type  3   force =     0.00026561    0.00047061    0.00010648
     atom   79 type  3   force =     0.00026403   -0.00046814    0.00010762
     atom   80 type  3   force =    -0.00026561   -0.00047061   -0.00010648
     atom   81 type  3   force =    -0.00040988    0.00063320    0.00057962
     atom   82 type  3   force =     0.00041145    0.00064047   -0.00058366
     atom   83 type  3   force =     0.00040988   -0.00063320   -0.00057962
     atom   84 type  3   force =    -0.00041145   -0.00064047    0.00058366
     atom   85 type  3   force =    -0.00019437    0.00042074    0.00004753
     atom   86 type  3   force =     0.00021850    0.00038025   -0.00006062
     atom   87 type  3   force =     0.00019437   -0.00042074   -0.00004753
     atom   88 type  3   force =    -0.00021850   -0.00038025    0.00006062

     Total force =     0.009753     Total SCF correction =     0.000110


     Computing stress (Cartesian axis) and pressure

          total   stress  (Ry/bohr**3)                   (kbar)     P=   -7.19
  -0.00004839  -0.00000007   0.00000376         -7.12     -0.01      0.55
  -0.00000007  -0.00005253  -0.00000004         -0.01     -7.73     -0.01
   0.00000376  -0.00000004  -0.00004571          0.55     -0.01     -6.72


     Writing output data file scf.save
 
     init_run     :     42.30s CPU     44.15s WALL (       1 calls)
     electrons    :   1545.93s CPU   1622.79s WALL (       1 calls)
     forces       :     18.65s CPU     18.85s WALL (       1 calls)
     stress       :    109.17s CPU    109.51s WALL (       1 calls)

     Called by init_run:
     wfcinit      :     30.33s CPU     32.02s WALL (       1 calls)
     potinit      :      4.24s CPU      4.28s WALL (       1 calls)

     Called by electrons:
     c_bands      :   1374.99s CPU   1442.02s WALL (      21 calls)
     sum_band     :    152.80s CPU    160.69s WALL (      21 calls)
     v_of_rho     :      2.96s CPU      3.26s WALL (      22 calls)
     newd         :      6.11s CPU      7.63s WALL (      22 calls)
     PAW_pot      :      8.25s CPU      8.26s WALL (      22 calls)
     mix_rho      :      0.78s CPU      0.94s WALL (      21 calls)

     Called by c_bands:
     init_us_2    :     11.88s CPU     11.96s WALL (     360 calls)
     cegterg      :   1331.41s CPU   1398.21s WALL (     168 calls)

     Called by sum_band:
     sum_band:bec :      0.09s CPU      0.09s WALL (     168 calls)
     addusdens    :      6.62s CPU      8.06s WALL (      21 calls)

     Called by *egterg:
     h_psi        :    834.17s CPU    887.37s WALL (     774 calls)
     s_psi        :    130.64s CPU    130.64s WALL (     774 calls)
     g_psi        :      5.72s CPU      5.72s WALL (     598 calls)
     cdiaghg      :     61.88s CPU     61.89s WALL (     766 calls)

     Called by h_psi:
     h_psi:pot    :    827.77s CPU    880.83s WALL (     774 calls)
     h_psi:calbec :    125.20s CPU    125.59s WALL (     774 calls)
     vloc_psi     :    571.93s CPU    624.56s WALL (     774 calls)
     add_vuspsi   :    130.64s CPU    130.68s WALL (     774 calls)

     General routines
     calbec       :    178.08s CPU    178.63s WALL (     982 calls)
     fft          :      2.98s CPU      3.47s WALL (     310 calls)
     fftw         :    611.64s CPU    668.91s WALL (  187626 calls)
 
     Parallel routines
     fft_scatter  :    112.88s CPU    163.35s WALL (  187936 calls)
 
     PWSCF        : 28m45.59s CPU    30m42.33s WALL

 
   This run was terminated on:  21:16:50  20Dec2017            

=------------------------------------------------------------------------------=
   JOB DONE.
=------------------------------------------------------------------------------=
