
     Program PWSCF v.6.1 (svn rev. 13369) starts on  5Nov2017 at 21:16:45 

     This program is part of the open-source Quantum ESPRESSO suite
     for quantum simulation of materials; please cite
         "P. Giannozzi et al., J. Phys.:Condens. Matter 21 395502 (2009);
          URL http://www.quantum-espresso.org", 
     in publications or presentations arising from this work. More details at
     http://www.quantum-espresso.org/quote

     Parallel version (MPI), running on     8 processors
     R & G space division:  proc/nbgrp/npool/nimage =       8
     Waiting for input...
     Reading input from standard input

     Current dimensions of program PWSCF are:
     Max number of different atomic species (ntypx) = 10
     Max number of k-points (npk) =  40000
     Max angular momentum in pseudopotentials (lmaxx) =  3
               file C.pbe-n-kjpaw_psl.0.1.UPF: wavefunction(s)  2P renormalized
               file N.pbe-n-kjpaw_psl.0.1.UPF: wavefunction(s)  2P renormalized
               file H.pbe-kjpaw_psl.0.1.UPF: wavefunction(s)  1S renormalized
               file O.pbe-n-kjpaw_psl.0.1.UPF: wavefunction(s)  2P renormalized

     -------------------------------------
     Parameters for Dispersion Correction:
     -------------------------------------
       atom      VdW radius       C_6     

        C          2.744         60.710
        N          2.640         42.670
        H          1.892          4.857
        O          2.536         24.284

     Subspace diagonalization in iterative solution of the eigenvalue problem:
     a serial algorithm will be used

 
     Parallelization info
     --------------------
     sticks:   dense  smooth     PW     G-vecs:    dense   smooth      PW
     Min        1088    1088    291                41286    41286    5784
     Max        1089    1089    292                41287    41287    5786
     Sum        8709    8709   2333               330291   330291   46275
 


     bravais-lattice index     =            0
     lattice parameter (alat)  =      13.7194  a.u.
     unit-cell volume          =    2445.0450 (a.u.)^3
     number of atoms/cell      =           32
     number of atomic types    =            4
     number of electrons       =       128.00
     number of Kohn-Sham states=           76
     kinetic-energy cutoff     =     100.0000  Ry
     charge density cutoff     =     400.0000  Ry
     convergence threshold     =      1.0E-08
     mixing beta               =       0.5000
     number of iterations used =            8  plain     mixing
     Exchange-correlation      =  SLA  PW   PBX  PBC ( 1  4  3  4 0 0)

     celldm(1)=  13.719412  celldm(2)=   0.000000  celldm(3)=   0.000000
     celldm(4)=   0.000000  celldm(5)=   0.000000  celldm(6)=   0.000000

     crystal axes: (cart. coord. in units of alat)
               a(1) = (   1.000000   0.000000   0.000000 )  
               a(2) = (   0.000000   1.453168   0.000000 )  
               a(3) = (  -0.205441   0.000000   0.651575 )  

     reciprocal axes: (cart. coord. in units 2 pi/alat)
               b(1) = (  1.000000  0.000000  0.315299 )  
               b(2) = (  0.000000  0.688152  0.000000 )  
               b(3) = (  0.000000  0.000000  1.534742 )  


     PseudoPot. # 1 for  C read from file:
     /scratch/ahofstet/pseudo/C.pbe-n-kjpaw_psl.0.1.UPF
     MD5 check sum: 430fe95172b1e11ef3f8ed03bac87931
     Pseudo is Projector augmented-wave + core cor, Zval =  4.0
     Generated using "atomic" code by A. Dal Corso  v.5.0.99 svn rev. 10869
     Shape of augmentation charge: BESSEL
     Using radial grid of 1073 points,  4 beta functions with: 
                l(1) =   0
                l(2) =   0
                l(3) =   1
                l(4) =   1
     Q(r) pseudized with 0 coefficients 


     PseudoPot. # 2 for  N read from file:
     /scratch/ahofstet/pseudo/N.pbe-n-kjpaw_psl.0.1.UPF
     MD5 check sum: f73187c8b701007e77325f868c9291d7
     Pseudo is Projector augmented-wave + core cor, Zval =  5.0
     Generated using "atomic" code by A. Dal Corso  v.5.0.99 svn rev. 10869
     Shape of augmentation charge: PSQ
     Using radial grid of 1085 points,  4 beta functions with: 
                l(1) =   0
                l(2) =   0
                l(3) =   1
                l(4) =   1
     Q(r) pseudized with 0 coefficients 


     PseudoPot. # 3 for  H read from file:
     /scratch/ahofstet/pseudo/H.pbe-kjpaw_psl.0.1.UPF
     MD5 check sum: 94e484f906d9e9773b2f6e52662335b2
     Pseudo is Projector augmented-wave, Zval =  1.0
     Generated using "atomic" code by A. Dal Corso  v.5.0.99 svn rev. 10869
     Shape of augmentation charge: PSQ
     Using radial grid of  929 points,  2 beta functions with: 
                l(1) =   0
                l(2) =   0
     Q(r) pseudized with 0 coefficients 


     PseudoPot. # 4 for  O read from file:
     /scratch/ahofstet/pseudo/O.pbe-n-kjpaw_psl.0.1.UPF
     MD5 check sum: 3f94a2996a3169367d6eb21d9b593f20
     Pseudo is Projector augmented-wave + core cor, Zval =  6.0
     Generated using "atomic" code by A. Dal Corso  v.5.0.99 svn rev. 10869
     Shape of augmentation charge: BESSEL
     Using radial grid of 1095 points,  4 beta functions with: 
                l(1) =   0
                l(2) =   0
                l(3) =   1
                l(4) =   1
     Q(r) pseudized with 0 coefficients 


     atomic species   valence    mass     pseudopotential
        C              4.00    12.01070      C( 1.00)
        N              5.00    14.00670      N( 1.00)
        H              1.00     1.00794      H( 1.00)
        O              6.00    15.99940      O( 1.00)

      4 Sym. Ops., with inversion, found ( 2 have fractional translation)



   Cartesian axes

     site n.     atom                  positions (alat units)
         1           C   tau(   1) = (   0.1091078   0.6529126   0.2336460  )
         2           C   tau(   2) = (   0.1854513   1.3794966   0.4179293  )
         3           C   tau(   3) = (   0.6854513   0.8002555   0.4179293  )
         4           C   tau(   4) = (   0.6091078   0.0736714   0.2336460  )
         5           C   tau(   5) = (   0.1876623   0.5627789   0.3734463  )
         6           C   tau(   6) = (   0.1068968   1.2893629   0.2781289  )
         7           C   tau(   7) = (   0.6068968   0.8903891   0.2781289  )
         8           C   tau(   8) = (   0.6876623   0.1638051   0.3734463  )
         9           C   tau(   9) = (   0.1718173   0.3700020   0.1357647  )
        10           C   tau(  10) = (   0.1227419   1.0965860   0.5158105  )
        11           C   tau(  11) = (   0.6227419   1.0831660   0.5158105  )
        12           C   tau(  12) = (   0.6718173   0.3565820   0.1357647  )
        13           H   tau(  13) = (   0.0572087   0.7914419   0.2162887  )
        14           H   tau(  14) = (   0.2373504   0.0648579   0.4352866  )
        15           H   tau(  15) = (   0.7373504   0.6617261   0.4352866  )
        16           H   tau(  16) = (   0.5572087   1.3883101   0.2162887  )
        17           H   tau(  17) = (   0.2300228   0.5987699   0.5113061  )
        18           H   tau(  18) = (   0.0645363   1.3253540   0.1402691  )
        19           H   tau(  19) = (   0.5645363   0.8543981   0.1402691  )
        20           H   tau(  20) = (   0.7300228   0.1278141   0.5113061  )
        21           O   tau(  21) = (   0.1002898   0.5370596   0.0818638  )
        22           O   tau(  22) = (   0.1942693   1.2636436   0.5697114  )
        23           O   tau(  23) = (   0.6942693   0.9161085   0.5697114  )
        24           O   tau(  24) = (   0.6002898   0.1895245   0.0818638  )
        25           O   tau(  25) = (   0.2313599   0.3852620   0.3132790  )
        26           O   tau(  26) = (   0.0631992   1.1118460   0.3382963  )
        27           O   tau(  27) = (   0.5631992   1.0679061   0.3382963  )
        28           O   tau(  28) = (   0.7313599   0.3413221   0.3132790  )
        29           O   tau(  29) = (   0.1773157   0.2321220   0.0432373  )
        30           O   tau(  30) = (   0.1172434   0.9587060   0.6083379  )
        31           O   tau(  31) = (   0.6172434   1.2210461   0.6083379  )
        32           O   tau(  32) = (   0.6773157   0.4944621   0.0432373  )

     number of k points=    14
                       cart. coord. in units 2pi/alat
        k(    1) = (   0.0000000   0.0000000   0.0000000), wk =   0.0833333
        k(    2) = (   0.0000000   0.0000000   0.3836856), wk =   0.1666667
        k(    3) = (   0.0000000   0.0000000  -0.7673711), wk =   0.0833333
        k(    4) = (   0.0000000  -0.3440758   0.0000000), wk =   0.0833333
        k(    5) = (   0.0000000  -0.3440758   0.3836856), wk =   0.1666667
        k(    6) = (   0.0000000  -0.3440758  -0.7673711), wk =   0.0833333
        k(    7) = (   0.3333333   0.0000000   0.1050996), wk =   0.1666667
        k(    8) = (   0.3333333   0.0000000   0.4887852), wk =   0.1666667
        k(    9) = (   0.3333333   0.0000000  -0.6622715), wk =   0.1666667
        k(   10) = (   0.3333333   0.0000000  -0.2785860), wk =   0.1666667
        k(   11) = (   0.3333333  -0.3440758   0.1050996), wk =   0.1666667
        k(   12) = (   0.3333333  -0.3440758   0.4887852), wk =   0.1666667
        k(   13) = (   0.3333333  -0.3440758  -0.6622715), wk =   0.1666667
        k(   14) = (   0.3333333  -0.3440758  -0.2785860), wk =   0.1666667

     Dense  grid:   330291 G-vectors     FFT dimensions: (  90, 128,  60)

     Estimated max dynamical RAM per process >     181.85MB

     Estimated total allocated dynamical RAM >    1454.82MB

     Check: negative/imaginary core charge=   -0.000003    0.000000

     Initial potential from superposition of free atoms

     starting charge  127.99941, renormalised to  128.00000
     Starting wfc are  104 randomized atomic wfcs
     Checking if some PAW data can be deallocated... 

     total cpu time spent up to now is       11.8 secs

     per-process dynamical memory:   203.2 Mb

     Self-consistent Calculation

     iteration #  1     ecut=   100.00 Ry     beta=0.50
     Davidson diagonalization with overlap
     ethr =  1.00E-02,  avg # of iterations =  3.1

     total cpu time spent up to now is       33.7 secs

     total energy              =    -729.70827660 Ry
     Harris-Foulkes estimate   =    -731.48987837 Ry
     estimated scf accuracy    <       3.24892981 Ry

     iteration #  2     ecut=   100.00 Ry     beta=0.50
     Davidson diagonalization with overlap
     ethr =  2.54E-03,  avg # of iterations =  3.0

     total cpu time spent up to now is       49.3 secs

     total energy              =    -730.17919506 Ry
     Harris-Foulkes estimate   =    -730.56347678 Ry
     estimated scf accuracy    <       0.80734126 Ry

     iteration #  3     ecut=   100.00 Ry     beta=0.50
     Davidson diagonalization with overlap
     ethr =  6.31E-04,  avg # of iterations =  5.4

     total cpu time spent up to now is       67.5 secs

     total energy              =    -730.37798805 Ry
     Harris-Foulkes estimate   =    -730.45355029 Ry
     estimated scf accuracy    <       0.17898851 Ry

     iteration #  4     ecut=   100.00 Ry     beta=0.50
     Davidson diagonalization with overlap
     ethr =  1.40E-04,  avg # of iterations =  3.0

     total cpu time spent up to now is       81.9 secs

     total energy              =    -730.40817328 Ry
     Harris-Foulkes estimate   =    -730.41433033 Ry
     estimated scf accuracy    <       0.02045176 Ry

     iteration #  5     ecut=   100.00 Ry     beta=0.50
     Davidson diagonalization with overlap
     ethr =  1.60E-05,  avg # of iterations =  6.3

     total cpu time spent up to now is      103.0 secs

     total energy              =    -730.41415496 Ry
     Harris-Foulkes estimate   =    -730.41464041 Ry
     estimated scf accuracy    <       0.00216606 Ry

     iteration #  6     ecut=   100.00 Ry     beta=0.50
     Davidson diagonalization with overlap
     ethr =  1.69E-06,  avg # of iterations =  2.6

     total cpu time spent up to now is      116.7 secs

     total energy              =    -730.41433684 Ry
     Harris-Foulkes estimate   =    -730.41436921 Ry
     estimated scf accuracy    <       0.00023080 Ry

     iteration #  7     ecut=   100.00 Ry     beta=0.50
     Davidson diagonalization with overlap
     ethr =  1.80E-07,  avg # of iterations =  4.0

     total cpu time spent up to now is      138.1 secs

     total energy              =    -730.41444354 Ry
     Harris-Foulkes estimate   =    -730.41448319 Ry
     estimated scf accuracy    <       0.00010218 Ry

     iteration #  8     ecut=   100.00 Ry     beta=0.50
     Davidson diagonalization with overlap
     ethr =  7.98E-08,  avg # of iterations =  1.0

     total cpu time spent up to now is      150.2 secs

     total energy              =    -730.41443906 Ry
     Harris-Foulkes estimate   =    -730.41445228 Ry
     estimated scf accuracy    <       0.00002213 Ry

     iteration #  9     ecut=   100.00 Ry     beta=0.50
     Davidson diagonalization with overlap
     ethr =  1.73E-08,  avg # of iterations =  4.0

     total cpu time spent up to now is      171.5 secs

     total energy              =    -730.41444935 Ry
     Harris-Foulkes estimate   =    -730.41446495 Ry
     estimated scf accuracy    <       0.00002639 Ry

     iteration # 10     ecut=   100.00 Ry     beta=0.50
     Davidson diagonalization with overlap
     ethr =  1.73E-08,  avg # of iterations =  5.0

     total cpu time spent up to now is      188.9 secs

     total energy              =    -730.41445562 Ry
     Harris-Foulkes estimate   =    -730.41445625 Ry
     estimated scf accuracy    <       0.00000096 Ry

     iteration # 11     ecut=   100.00 Ry     beta=0.50
     Davidson diagonalization with overlap
     ethr =  7.47E-10,  avg # of iterations =  4.0

     total cpu time spent up to now is      210.1 secs

     total energy              =    -730.41445627 Ry
     Harris-Foulkes estimate   =    -730.41445645 Ry
     estimated scf accuracy    <       0.00000036 Ry

     iteration # 12     ecut=   100.00 Ry     beta=0.50
     Davidson diagonalization with overlap
     ethr =  2.80E-10,  avg # of iterations =  2.1

     total cpu time spent up to now is      222.8 secs

     total energy              =    -730.41445627 Ry
     Harris-Foulkes estimate   =    -730.41445630 Ry
     estimated scf accuracy    <       0.00000005 Ry

     iteration # 13     ecut=   100.00 Ry     beta=0.50
     Davidson diagonalization with overlap
     ethr =  4.25E-11,  avg # of iterations =  4.0

     total cpu time spent up to now is      245.2 secs

     total energy              =    -730.41445634 Ry
     Harris-Foulkes estimate   =    -730.41445635 Ry
     estimated scf accuracy    <       0.00000004 Ry

     iteration # 14     ecut=   100.00 Ry     beta=0.50
     Davidson diagonalization with overlap
     ethr =  3.01E-11,  avg # of iterations =  1.0

     total cpu time spent up to now is      257.3 secs

     total energy              =    -730.41445633 Ry
     Harris-Foulkes estimate   =    -730.41445634 Ry
     estimated scf accuracy    <       0.00000002 Ry

     iteration # 15     ecut=   100.00 Ry     beta=0.50
     Davidson diagonalization with overlap
     ethr =  1.43E-11,  avg # of iterations =  3.0

     total cpu time spent up to now is      275.0 secs

     End of self-consistent calculation

          k = 0.0000 0.0000 0.0000 ( 41251 PWs)   bands (ev):

   -23.1840 -23.1691 -23.1159 -23.1142 -20.2123 -20.1844 -20.1762 -20.1619
   -19.8508 -19.8364 -19.8218 -19.8136 -12.7028 -12.6588 -12.6237 -12.6011
   -10.0764  -9.9915  -9.9465  -9.9410  -9.1596  -9.1083  -9.0800  -9.0153
    -7.0376  -6.8255  -6.7196  -6.4770  -6.3206  -6.2848  -5.8012  -5.7522
    -5.3682  -5.2681  -5.2624  -5.2110  -4.6548  -4.5719  -4.4684  -4.3631
    -3.7985  -3.5766  -3.5639  -3.3108  -3.1083  -3.0975  -3.0620  -3.0296
    -2.9900  -2.9111  -2.9004  -2.8864  -2.5302  -2.4866  -2.4603  -2.3736
    -0.8567  -0.8133  -0.8074  -0.7934   0.3425   0.5164   0.8213   0.8401
     5.7512   5.8510   5.8548   5.8665   5.8919   5.9995   6.1120   6.1299
     6.1382   6.3375   7.9679   8.1316

          k = 0.0000 0.0000 0.3837 ( 41299 PWs)   bands (ev):

   -23.1716 -23.1607 -23.1186 -23.1130 -20.2079 -20.1909 -20.1846 -20.1706
   -19.8421 -19.8332 -19.8324 -19.8271 -12.7042 -12.6878 -12.6244 -12.6205
   -10.0090  -9.9838  -9.9462  -9.9381  -9.1507  -9.1362  -9.0603  -9.0514
    -6.8262  -6.7987  -6.6902  -6.5909  -6.3952  -6.3180  -5.8626  -5.8231
    -5.3656  -5.3338  -5.2490  -5.2443  -4.6632  -4.5529  -4.4665  -4.3812
    -3.7699  -3.7304  -3.3785  -3.3638  -3.1163  -3.1105  -3.0356  -2.9970
    -2.9166  -2.8963  -2.8659  -2.8474  -2.5339  -2.4356  -2.4265  -2.3651
    -0.8713  -0.8233  -0.8174  -0.8095   0.4695   0.5496   0.8657   0.9317
     5.7255   5.7678   5.8053   5.8495   5.9170   5.9250   5.9627   6.0269
     6.3357   6.8010   7.9287   8.0300

          k = 0.0000 0.0000-0.7674 ( 41330 PWs)   bands (ev):

   -23.1576 -23.1537 -23.1204 -23.1126 -20.2057 -20.2028 -20.1855 -20.1811
   -19.8422 -19.8412 -19.8319 -19.8301 -12.7437 -12.6718 -12.6447 -12.6265
   -10.0120  -9.9458  -9.9262  -9.9191  -9.1590  -9.1303  -9.1015  -9.0205
    -6.7692  -6.7223  -6.6996  -6.5177  -6.4268  -6.4123  -5.9436  -5.8997
    -5.3765  -5.3618  -5.3263  -5.2615  -4.6203  -4.5709  -4.4959  -4.3244
    -3.7497  -3.6347  -3.5587  -3.3001  -3.1138  -3.0621  -3.0455  -2.9978
    -2.9380  -2.9037  -2.8253  -2.8001  -2.4839  -2.3872  -2.3710  -2.3593
    -0.8775  -0.8305  -0.8171  -0.8166   0.5885   0.5978   0.8932   1.0265
     5.6734   5.7413   5.7847   5.8614   5.8817   5.8981   5.9204   5.9285
     6.3904   7.3364   7.7575   7.9180

          k = 0.0000-0.3441 0.0000 ( 41292 PWs)   bands (ev):

   -23.1768 -23.1768 -23.1148 -23.1148 -20.2015 -20.2015 -20.1657 -20.1657
   -19.8437 -19.8437 -19.8176 -19.8176 -12.6838 -12.6838 -12.6094 -12.6094
   -10.0341 -10.0341  -9.9448  -9.9448  -9.1360  -9.1360  -9.0431  -9.0431
    -6.9465  -6.9465  -6.6173  -6.6173  -6.2849  -6.2849  -5.7891  -5.7891
    -5.2729  -5.2729  -5.2333  -5.2333  -4.6036  -4.6036  -4.4596  -4.4596
    -3.6954  -3.6954  -3.3978  -3.3978  -3.1231  -3.1231  -3.0480  -3.0480
    -2.9449  -2.9449  -2.8955  -2.8955  -2.5135  -2.5135  -2.4154  -2.4154
    -0.8364  -0.8364  -0.8008  -0.8008   0.4274   0.4274   0.8361   0.8361
     5.7694   5.7694   5.8601   5.8601   6.0229   6.0229   6.0695   6.0695
     6.2417   6.2417   8.2244   8.2245

          k = 0.0000-0.3441 0.3837 ( 41302 PWs)   bands (ev):

   -23.1664 -23.1664 -23.1155 -23.1155 -20.2014 -20.2014 -20.1756 -20.1756
   -19.8374 -19.8374 -19.8300 -19.8300 -12.6952 -12.6952 -12.6236 -12.6236
    -9.9830  -9.9830  -9.9543  -9.9543  -9.1402  -9.1402  -9.0575  -9.0575
    -6.8069  -6.8069  -6.6740  -6.6740  -6.3504  -6.3504  -5.8377  -5.8377
    -5.3164  -5.3164  -5.2572  -5.2572  -4.5729  -4.5729  -4.4846  -4.4846
    -3.6520  -3.6520  -3.4478  -3.4478  -3.1150  -3.1150  -3.0257  -3.0257
    -2.9052  -2.9052  -2.8549  -2.8549  -2.4993  -2.4993  -2.3807  -2.3807
    -0.8638  -0.8638  -0.7986  -0.7986   0.5102   0.5102   0.9003   0.9003
     5.7455   5.7455   5.8779   5.8779   5.9310   5.9310   5.9672   5.9672
     6.4914   6.4914   8.1584   8.1585

          k = 0.0000-0.3441-0.7674 ( 41220 PWs)   bands (ev):

   -23.1558 -23.1558 -23.1163 -23.1163 -20.2046 -20.2046 -20.1830 -20.1830
   -19.8417 -19.8417 -19.8309 -19.8309 -12.7156 -12.7156 -12.6285 -12.6285
    -9.9791  -9.9791  -9.9193  -9.9193  -9.1460  -9.1460  -9.0588  -9.0588
    -6.7628  -6.7628  -6.6186  -6.6186  -6.4400  -6.4400  -5.8851  -5.8851
    -5.3760  -5.3760  -5.2533  -5.2533  -4.6135  -4.6135  -4.4243  -4.4243
    -3.6759  -3.6759  -3.4405  -3.4405  -3.0976  -3.0976  -3.0191  -3.0191
    -2.9163  -2.9163  -2.8105  -2.8105  -2.4511  -2.4511  -2.3488  -2.3488
    -0.8748  -0.8748  -0.7994  -0.7994   0.5871   0.5871   0.9674   0.9674
     5.6819   5.6819   5.8304   5.8304   5.9023   5.9023   5.9292   5.9292
     6.7570   6.7570   8.0061   8.0061

          k = 0.3333 0.0000 0.1051 ( 41266 PWs)   bands (ev):

   -23.1675 -23.1551 -23.1340 -23.1272 -20.2051 -20.1873 -20.1792 -20.1677
   -19.8422 -19.8294 -19.8277 -19.8179 -12.6781 -12.6510 -12.6320 -12.6258
   -10.0506  -9.9918  -9.9714  -9.9399  -9.1460  -9.1218  -9.0690  -9.0355
    -6.9184  -6.8155  -6.7501  -6.6248  -6.2096  -6.1328  -5.9547  -5.8679
    -5.3409  -5.2644  -5.2389  -5.2173  -4.6825  -4.5978  -4.4359  -4.4171
    -3.7465  -3.6509  -3.4257  -3.3155  -3.0961  -3.0899  -3.0486  -3.0346
    -2.9607  -2.9205  -2.9025  -2.9010  -2.5121  -2.4947  -2.4889  -2.4158
    -0.8485  -0.8298  -0.8072  -0.8039   0.4575   0.5810   0.7060   0.7339
     5.7199   5.7375   5.8533   5.8650   5.9526   5.9842   6.2501   6.3453
     6.4819   6.7824   7.3929   7.8349

          k = 0.3333 0.0000 0.4888 ( 41285 PWs)   bands (ev):

   -23.1519 -23.1458 -23.1383 -23.1284 -20.2037 -20.1966 -20.1786 -20.1781
   -19.8443 -19.8343 -19.8299 -19.8230 -12.7004 -12.6633 -12.6547 -12.6190
   -10.0347  -9.9625  -9.9594  -9.9217  -9.1526  -9.1266  -9.0900  -9.0222
    -6.8062  -6.8029  -6.7527  -6.5730  -6.2852  -6.1529  -5.9941  -5.9502
    -5.4434  -5.2981  -5.2683  -5.2275  -4.6856  -4.5236  -4.4608  -4.4005
    -3.7465  -3.6456  -3.5029  -3.3067  -3.1222  -3.0579  -3.0143  -3.0126
    -2.9363  -2.9117  -2.8653  -2.8584  -2.4993  -2.4684  -2.4102  -2.3897
    -0.8680  -0.8280  -0.8175  -0.8022   0.5697   0.6128   0.7687   0.8185
     5.6033   5.7246   5.8124   5.8726   5.9085   5.9509   6.0861   6.2263
     6.7955   7.3567   7.4229   7.5253

          k = 0.3333 0.0000-0.6623 ( 41334 PWs)   bands (ev):

   -23.1491 -23.1429 -23.1303 -23.1225 -20.2030 -20.2014 -20.1830 -20.1807
   -19.8425 -19.8391 -19.8371 -19.8338 -12.7171 -12.6735 -12.6491 -12.6477
    -9.9943  -9.9517  -9.9338  -9.9204  -9.1599  -9.1433  -9.0759  -9.0374
    -6.7708  -6.7496  -6.6301  -6.4999  -6.3587  -6.2927  -6.0743  -6.0360
    -5.4249  -5.4233  -5.2464  -5.2021  -4.6375  -4.5853  -4.4339  -4.3649
    -3.7646  -3.7449  -3.4329  -3.3368  -3.1279  -3.1005  -3.0165  -2.9802
    -2.9371  -2.8831  -2.8712  -2.8457  -2.4298  -2.3793  -2.3495  -2.3421
    -0.8629  -0.8366  -0.8187  -0.8137   0.6542   0.6968   0.8118   0.9161
     5.6355   5.6887   5.7965   5.8113   5.8667   5.9168   6.0558   6.0680
     6.7331   7.4568   7.6924   7.8246

          k = 0.3333 0.0000-0.2786 ( 41324 PWs)   bands (ev):

   -23.1647 -23.1523 -23.1250 -23.1223 -20.2101 -20.1855 -20.1844 -20.1702
   -19.8506 -19.8387 -19.8273 -19.8220 -12.6869 -12.6740 -12.6620 -12.6146
   -10.0451  -9.9651  -9.9408  -9.9268  -9.1653  -9.1219  -9.0790  -9.0227
    -6.9042  -6.8183  -6.6861  -6.4541  -6.2733  -6.2214  -6.0249  -5.9354
    -5.4574  -5.3541  -5.2580  -5.1576  -4.5861  -4.5703  -4.5315  -4.3416
    -3.7868  -3.6934  -3.4879  -3.3178  -3.1406  -3.0929  -3.0186  -2.9921
    -2.9175  -2.9138  -2.8863  -2.8753  -2.4669  -2.4214  -2.4166  -2.3855
    -0.8448  -0.8416  -0.8044  -0.8018   0.5714   0.6085   0.7916   0.8071
     5.6527   5.7626   5.8491   5.8527   5.8893   5.9256   6.1229   6.1505
     6.5421   6.9702   7.6368   8.0367

          k = 0.3333-0.3441 0.1051 ( 41286 PWs)   bands (ev):

   -23.1618 -23.1618 -23.1302 -23.1302 -20.1978 -20.1978 -20.1717 -20.1717
   -19.8359 -19.8359 -19.8228 -19.8228 -12.6658 -12.6658 -12.6277 -12.6277
   -10.0198 -10.0198  -9.9578  -9.9578  -9.1328  -9.1328  -9.0512  -9.0512
    -6.8729  -6.8729  -6.6942  -6.6942  -6.1686  -6.1686  -5.9223  -5.9223
    -5.2814  -5.2814  -5.2242  -5.2242  -4.5961  -4.5961  -4.4921  -4.4921
    -3.6118  -3.6118  -3.4301  -3.4301  -3.0974  -3.0974  -3.0461  -3.0461
    -2.9414  -2.9414  -2.9063  -2.9063  -2.5056  -2.5056  -2.4512  -2.4512
    -0.8479  -0.8479  -0.7986  -0.7986   0.5191   0.5191   0.7238   0.7238
     5.7497   5.7497   5.8120   5.8120   6.0054   6.0054   6.2830   6.2830
     6.6281   6.6281   7.6191   7.6191

          k = 0.3333-0.3441 0.4888 ( 41274 PWs)   bands (ev):

   -23.1495 -23.1495 -23.1327 -23.1327 -20.2002 -20.2002 -20.1782 -20.1782
   -19.8394 -19.8394 -19.8264 -19.8264 -12.6864 -12.6864 -12.6327 -12.6327
   -10.0014 -10.0014  -9.9366  -9.9366  -9.1396  -9.1396  -9.0547  -9.0547
    -6.8188  -6.8188  -6.6703  -6.6703  -6.2254  -6.2254  -5.9742  -5.9742
    -5.3358  -5.3358  -5.2322  -5.2322  -4.6226  -4.6226  -4.4470  -4.4470
    -3.6464  -3.6464  -3.4356  -3.4356  -3.1039  -3.1039  -3.0170  -3.0170
    -2.9181  -2.9181  -2.8609  -2.8609  -2.4590  -2.4590  -2.4232  -2.4232
    -0.8628  -0.8628  -0.7989  -0.7989   0.5951   0.5951   0.7924   0.7924
     5.6614   5.6614   5.8289   5.8289   5.9555   5.9555   6.1708   6.1708
     6.9933   6.9933   7.5143   7.5143

          k = 0.3333-0.3441-0.6623 ( 41280 PWs)   bands (ev):

   -23.1465 -23.1465 -23.1259 -23.1259 -20.2022 -20.2022 -20.1820 -20.1820
   -19.8408 -19.8408 -19.8354 -19.8354 -12.6974 -12.6974 -12.6471 -12.6471
    -9.9634  -9.9634  -9.9335  -9.9335  -9.1465  -9.1465  -9.0612  -9.0612
    -6.7380  -6.7380  -6.6452  -6.6452  -6.3084  -6.3084  -6.0286  -6.0286
    -5.4054  -5.4054  -5.2180  -5.2180  -4.5685  -4.5685  -4.4683  -4.4683
    -3.6850  -3.6850  -3.4483  -3.4483  -3.1150  -3.1150  -2.9981  -2.9981
    -2.9164  -2.9164  -2.8468  -2.8468  -2.4041  -2.4041  -2.3471  -2.3471
    -0.8612  -0.8612  -0.8066  -0.8066   0.6734   0.6734   0.8677   0.8677
     5.6545   5.6545   5.8102   5.8102   5.8814   5.8814   6.0724   6.0724
     7.0955   7.0955   7.7366   7.7366

          k = 0.3333-0.3441-0.2786 ( 41332 PWs)   bands (ev):

   -23.1589 -23.1589 -23.1232 -23.1232 -20.2016 -20.2016 -20.1735 -20.1735
   -19.8447 -19.8447 -19.8246 -19.8246 -12.6838 -12.6838 -12.6354 -12.6354
   -10.0043 -10.0043  -9.9337  -9.9337  -9.1417  -9.1417  -9.0512  -9.0512
    -6.8662  -6.8662  -6.5971  -6.5971  -6.2522  -6.2522  -5.9757  -5.9757
    -5.3518  -5.3518  -5.2040  -5.2040  -4.6087  -4.6087  -4.4453  -4.4453
    -3.7057  -3.7057  -3.4158  -3.4158  -3.1262  -3.1262  -3.0099  -3.0099
    -2.9140  -2.9140  -2.8783  -2.8783  -2.4580  -2.4580  -2.3890  -2.3890
    -0.8421  -0.8421  -0.8067  -0.8067   0.5980   0.5980   0.7934   0.7934
     5.7217   5.7217   5.8323   5.8323   5.9199   5.9199   6.1475   6.1475
     6.7110   6.7110   7.9091   7.9091

     highest occupied, lowest unoccupied level (ev):     1.0265    5.6033

!    total energy              =    -730.41445633 Ry
     Harris-Foulkes estimate   =    -730.41445633 Ry
     estimated scf accuracy    <          5.8E-10 Ry

     total all-electron energy =     -2729.746348 Ry

     The total energy is the sum of the following terms:

     one-electron contribution =    -407.24687192 Ry
     hartree contribution      =     253.82672787 Ry
     xc contribution           =    -143.87979351 Ry
     ewald contribution        =    -238.95476290 Ry
     Dispersion Correction     =      -0.12272117 Ry
     one-center paw contrib.   =    -194.03703470 Ry

     convergence has been achieved in  15 iterations

     Forces acting on atoms (cartesian axes, Ry/au):

     atom    1 type  1   force =     0.00315737    0.00594158    0.00570653
     atom    2 type  1   force =    -0.00315737    0.00594158   -0.00570653
     atom    3 type  1   force =    -0.00315737   -0.00594158   -0.00570653
     atom    4 type  1   force =     0.00315737   -0.00594158    0.00570653
     atom    5 type  1   force =     0.00320525    0.00090546   -0.00846327
     atom    6 type  1   force =    -0.00320525    0.00090546    0.00846327
     atom    7 type  1   force =    -0.00320525   -0.00090546    0.00846327
     atom    8 type  1   force =     0.00320525   -0.00090546   -0.00846327
     atom    9 type  1   force =    -0.00807544    0.00780020   -0.00051242
     atom   10 type  1   force =     0.00807544    0.00780020    0.00051242
     atom   11 type  1   force =     0.00807544   -0.00780020    0.00051242
     atom   12 type  1   force =    -0.00807544   -0.00780020   -0.00051242
     atom   13 type  3   force =     0.00051013    0.00016417   -0.00016768
     atom   14 type  3   force =    -0.00051013    0.00016417    0.00016768
     atom   15 type  3   force =    -0.00051013   -0.00016417    0.00016768
     atom   16 type  3   force =     0.00051013   -0.00016417   -0.00016768
     atom   17 type  3   force =    -0.00223277    0.00113651    0.00086998
     atom   18 type  3   force =     0.00223277    0.00113651   -0.00086998
     atom   19 type  3   force =     0.00223277   -0.00113651   -0.00086998
     atom   20 type  3   force =    -0.00223277   -0.00113651    0.00086998
     atom   21 type  4   force =     0.00276954   -0.01363865    0.00215682
     atom   22 type  4   force =    -0.00276954   -0.01363865   -0.00215682
     atom   23 type  4   force =    -0.00276954    0.01363865   -0.00215682
     atom   24 type  4   force =     0.00276954    0.01363865    0.00215682
     atom   25 type  4   force =    -0.00014252    0.00051478    0.00116234
     atom   26 type  4   force =     0.00014252    0.00051478   -0.00116234
     atom   27 type  4   force =     0.00014252   -0.00051478   -0.00116234
     atom   28 type  4   force =    -0.00014252   -0.00051478    0.00116234
     atom   29 type  4   force =     0.00091144   -0.00245170   -0.00136674
     atom   30 type  4   force =    -0.00091144   -0.00245170    0.00136674
     atom   31 type  4   force =    -0.00091144    0.00245170    0.00136674
     atom   32 type  4   force =     0.00091144    0.00245170   -0.00136674

     Total force =     0.044851     Total SCF correction =     0.000062


     Computing stress (Cartesian axis) and pressure

          total   stress  (Ry/bohr**3)                   (kbar)     P=   -2.84
  -0.00001914   0.00000000   0.00000957         -2.82      0.00      1.41
   0.00000000  -0.00003855   0.00000000          0.00     -5.67      0.00
   0.00000957   0.00000000  -0.00000016          1.41      0.00     -0.02


     Writing output data file scf.save
 
     init_run     :     10.57s CPU     10.91s WALL (       1 calls)
     electrons    :    252.75s CPU    263.74s WALL (       1 calls)
     forces       :      5.19s CPU      5.24s WALL (       1 calls)
     stress       :     14.49s CPU     14.51s WALL (       1 calls)

     Called by init_run:
     wfcinit      :      5.99s CPU      6.25s WALL (       1 calls)
     potinit      :      1.58s CPU      1.62s WALL (       1 calls)

     Called by electrons:
     c_bands      :    219.08s CPU    228.41s WALL (      15 calls)
     sum_band     :     29.01s CPU     30.08s WALL (      15 calls)
     v_of_rho     :      0.78s CPU      0.85s WALL (      16 calls)
     newd         :      1.51s CPU      1.54s WALL (      16 calls)
     PAW_pot      :      2.20s CPU      2.20s WALL (      16 calls)
     mix_rho      :      0.18s CPU      0.20s WALL (      15 calls)

     Called by c_bands:
     init_us_2    :      3.10s CPU      3.10s WALL (     462 calls)
     cegterg      :    209.89s CPU    219.16s WALL (     210 calls)

     Called by sum_band:
     sum_band:bec :      0.03s CPU      0.03s WALL (     210 calls)
     addusdens    :      1.60s CPU      1.64s WALL (      15 calls)

     Called by *egterg:
     h_psi        :    143.89s CPU    150.35s WALL (     945 calls)
     s_psi        :     14.55s CPU     14.55s WALL (     945 calls)
     g_psi        :      1.29s CPU      1.29s WALL (     721 calls)
     cdiaghg      :     12.88s CPU     12.89s WALL (     931 calls)

     Called by h_psi:
     h_psi:pot    :    142.39s CPU    148.82s WALL (     945 calls)
     h_psi:calbec :     13.29s CPU     13.35s WALL (     945 calls)
     vloc_psi     :    114.80s CPU    121.17s WALL (     945 calls)
     add_vuspsi   :     14.30s CPU     14.30s WALL (     945 calls)

     General routines
     calbec       :     19.09s CPU     19.18s WALL (    1225 calls)
     fft          :      0.46s CPU      0.57s WALL (     232 calls)
     fftw         :    121.47s CPU    128.56s WALL (  109484 calls)
 
     Parallel routines
     fft_scatter  :     30.51s CPU     33.86s WALL (  109716 calls)
 
     PWSCF        :  4m46.80s CPU     5m 0.03s WALL

 
   This run was terminated on:  21:21:45   5Nov2017            

=------------------------------------------------------------------------------=
   JOB DONE.
=------------------------------------------------------------------------------=
