
     Program PWSCF v.6.1 (svn rev. 13369) starts on 19Dec2017 at  6: 1:48 

     This program is part of the open-source Quantum ESPRESSO suite
     for quantum simulation of materials; please cite
         "P. Giannozzi et al., J. Phys.:Condens. Matter 21 395502 (2009);
          URL http://www.quantum-espresso.org", 
     in publications or presentations arising from this work. More details at
     http://www.quantum-espresso.org/quote

     Parallel version (MPI), running on     8 processors
     R & G space division:  proc/nbgrp/npool/nimage =       8
     Waiting for input...
     Reading input from standard input

     Current dimensions of program PWSCF are:
     Max number of different atomic species (ntypx) = 10
     Max number of k-points (npk) =  40000
     Max angular momentum in pseudopotentials (lmaxx) =  3
               file C.pbe-n-kjpaw_psl.0.1.UPF: wavefunction(s)  2P renormalized
               file N.pbe-n-kjpaw_psl.0.1.UPF: wavefunction(s)  2P renormalized
               file H.pbe-kjpaw_psl.0.1.UPF: wavefunction(s)  1S renormalized
               file O.pbe-n-kjpaw_psl.0.1.UPF: wavefunction(s)  2P renormalized

     -------------------------------------
     Parameters for Dispersion Correction:
     -------------------------------------
       atom      VdW radius       C_6     

        C          2.744         60.710
        N          2.640         42.670
        H          1.892          4.857
        O          2.536         24.284

     Subspace diagonalization in iterative solution of the eigenvalue problem:
     a serial algorithm will be used

 
     Parallelization info
     --------------------
     sticks:   dense  smooth     PW     G-vecs:    dense   smooth      PW
     Min        1065    1065    279                99391    99391   13361
     Max        1066    1066    280                99393    99393   13364
     Sum        8521    8521   2233               795135   795135  106901
 


     bravais-lattice index     =            0
     lattice parameter (alat)  =      14.6312  a.u.
     unit-cell volume          =    5885.8188 (a.u.)^3
     number of atoms/cell      =           88
     number of atomic types    =            4
     number of electrons       =       312.00
     number of Kohn-Sham states=          187
     kinetic-energy cutoff     =     100.0000  Ry
     charge density cutoff     =     400.0000  Ry
     convergence threshold     =      1.0E-08
     mixing beta               =       0.5000
     number of iterations used =            8  plain     mixing
     Exchange-correlation      =  SLA  PW   PBX  PBC ( 1  4  3  4 0 0)

     celldm(1)=  14.631205  celldm(2)=   0.000000  celldm(3)=   0.000000
     celldm(4)=   0.000000  celldm(5)=   0.000000  celldm(6)=   0.000000

     crystal axes: (cart. coord. in units of alat)
               a(1) = (   1.000000   0.000000   0.000000 )  
               a(2) = (   0.000000   1.248098   0.000000 )  
               a(3) = (  -0.431960   0.000000   1.505629 )  

     reciprocal axes: (cart. coord. in units 2 pi/alat)
               b(1) = (  1.000000  0.000000  0.286896 )  
               b(2) = (  0.000000  0.801219  0.000000 )  
               b(3) = (  0.000000  0.000000  0.664174 )  


     PseudoPot. # 1 for  C read from file:
     /scratch/ahofstet/pseudo/C.pbe-n-kjpaw_psl.0.1.UPF
     MD5 check sum: 430fe95172b1e11ef3f8ed03bac87931
     Pseudo is Projector augmented-wave + core cor, Zval =  4.0
     Generated using "atomic" code by A. Dal Corso  v.5.0.99 svn rev. 10869
     Shape of augmentation charge: BESSEL
     Using radial grid of 1073 points,  4 beta functions with: 
                l(1) =   0
                l(2) =   0
                l(3) =   1
                l(4) =   1
     Q(r) pseudized with 0 coefficients 


     PseudoPot. # 2 for  N read from file:
     /scratch/ahofstet/pseudo/N.pbe-n-kjpaw_psl.0.1.UPF
     MD5 check sum: f73187c8b701007e77325f868c9291d7
     Pseudo is Projector augmented-wave + core cor, Zval =  5.0
     Generated using "atomic" code by A. Dal Corso  v.5.0.99 svn rev. 10869
     Shape of augmentation charge: PSQ
     Using radial grid of 1085 points,  4 beta functions with: 
                l(1) =   0
                l(2) =   0
                l(3) =   1
                l(4) =   1
     Q(r) pseudized with 0 coefficients 


     PseudoPot. # 3 for  H read from file:
     /scratch/ahofstet/pseudo/H.pbe-kjpaw_psl.0.1.UPF
     MD5 check sum: 94e484f906d9e9773b2f6e52662335b2
     Pseudo is Projector augmented-wave, Zval =  1.0
     Generated using "atomic" code by A. Dal Corso  v.5.0.99 svn rev. 10869
     Shape of augmentation charge: PSQ
     Using radial grid of  929 points,  2 beta functions with: 
                l(1) =   0
                l(2) =   0
     Q(r) pseudized with 0 coefficients 


     PseudoPot. # 4 for  O read from file:
     /scratch/ahofstet/pseudo/O.pbe-n-kjpaw_psl.0.1.UPF
     MD5 check sum: 3f94a2996a3169367d6eb21d9b593f20
     Pseudo is Projector augmented-wave + core cor, Zval =  6.0
     Generated using "atomic" code by A. Dal Corso  v.5.0.99 svn rev. 10869
     Shape of augmentation charge: BESSEL
     Using radial grid of 1095 points,  4 beta functions with: 
                l(1) =   0
                l(2) =   0
                l(3) =   1
                l(4) =   1
     Q(r) pseudized with 0 coefficients 


     atomic species   valence    mass     pseudopotential
        C              4.00    12.01070      C( 1.00)
        N              5.00    14.00670      N( 1.00)
        H              1.00     1.00794      H( 1.00)
        O              6.00    15.99940      O( 1.00)

      4 Sym. Ops., with inversion, found ( 2 have fractional translation)



   Cartesian axes

     site n.     atom                  positions (alat units)
         1           O   tau(   1) = (   0.3595054   1.0002240   0.8465725  )
         2           O   tau(   2) = (  -0.0074449   0.3761749   1.4118706  )
         3           O   tau(   3) = (   0.2085349   0.2478741   0.6590562  )
         4           O   tau(   4) = (   0.5754853   0.8719232   0.0937582  )
         5           O   tau(   5) = (   0.3754375   0.9946718   0.5650659  )
         6           O   tau(   6) = (   0.4085827   0.3706227   0.1877484  )
         7           O   tau(   7) = (   0.1926029   0.2534264   0.9405628  )
         8           O   tau(   8) = (   0.1594577   0.8774755   1.3178803  )
         9           O   tau(   9) = (  -0.1731433   0.2243294   0.7823305  )
        10           O   tau(  10) = (   0.5252039   0.8483785   1.4761126  )
        11           O   tau(  11) = (   0.7411837   1.0237687   0.7232982  )
        12           O   tau(  12) = (   0.0428365   0.3997196   0.0295162  )
        13           O   tau(  13) = (   0.6002624   0.2921125   1.0903596  )
        14           O   tau(  14) = (  -0.2482018   0.9161616   1.1680835  )
        15           O   tau(  15) = (  -0.0322220   0.9559857   0.4152691  )
        16           O   tau(  16) = (   0.8162422   0.3319366   0.3375453  )
        17           N   tau(  17) = (   0.3960623   0.9276418   0.7079215  )
        18           N   tau(  18) = (   0.3879579   0.3035927   0.0448929  )
        19           N   tau(  19) = (   0.1719781   0.3204564   0.7977073  )
        20           N   tau(  20) = (   0.1800825   0.9445054   1.4607358  )
        21           N   tau(  21) = (   0.5767666   0.1094078   0.6786889  )
        22           N   tau(  22) = (   0.2072536   0.7334568   0.0741255  )
        23           N   tau(  23) = (  -0.0087263   1.1386904   0.8269398  )
        24           N   tau(  24) = (   0.3607868   0.5146413   1.4315033  )
        25           H   tau(  25) = (   0.4471404   0.1243154   0.6610839  )
        26           H   tau(  26) = (   0.3368798   0.7483644   0.0917305  )
        27           H   tau(  27) = (   0.1209000   1.1237828   0.8445448  )
        28           H   tau(  28) = (   0.2311606   0.4997337   1.4138983  )
        29           H   tau(  29) = (   0.6303635  -0.0126301   0.6790576  )
        30           H   tau(  30) = (   0.1536567   0.6114190   0.0737568  )
        31           H   tau(  31) = (  -0.0623231   1.2607283   0.8265712  )
        32           H   tau(  32) = (   0.4143837   0.6366792   1.4318719  )
        33           N   tau(  33) = (  -0.2943870   0.5528782   1.1746386  )
        34           N   tau(  34) = (   0.6464476   1.1769273   1.0838045  )
        35           N   tau(  35) = (   0.8624274   0.6952199   0.3309902  )
        36           N   tau(  36) = (  -0.0784072   0.0711709   0.4218242  )
        37           H   tau(  37) = (  -0.2726710   0.5056942   1.2955400  )
        38           H   tau(  38) = (   0.6247316   1.1297433   0.9629031  )
        39           H   tau(  39) = (   0.8407114   0.7424040   0.2100887  )
        40           H   tau(  40) = (  -0.0566912   0.1183549   0.5427257  )
        41           H   tau(  41) = (  -0.2742128   0.6818258   1.1532154  )
        42           H   tau(  42) = (   0.6262733   0.0577768   1.1052277  )
        43           H   tau(  43) = (   0.8422531   0.5662723   0.3524133  )
        44           H   tau(  44) = (  -0.0582329   1.1903214   0.4004010  )
        45           C   tau(  45) = (   0.4665929   0.7524438   0.7165514  )
        46           C   tau(  46) = (   0.3174273   0.1283947   0.0362630  )
        47           C   tau(  47) = (   0.1014474   0.4956544   0.7890774  )
        48           C   tau(  48) = (   0.2506131   1.1197034   1.4693657  )
        49           C   tau(  49) = (   0.4722303   0.6529406   0.5670143  )
        50           C   tau(  50) = (   0.3117899   0.0288915   0.1858000  )
        51           C   tau(  51) = (   0.0958101   0.5951576   0.9386144  )
        52           C   tau(  52) = (   0.2562505   1.2192067   1.3198287  )
        53           H   tau(  53) = (   0.4294777   0.7065918   0.4444055  )
        54           H   tau(  54) = (   0.3545425   0.0825428   0.3084088  )
        55           H   tau(  55) = (   0.1385627   0.5415063   1.0612232  )
        56           H   tau(  56) = (   0.2134979   1.1655554   1.1972199  )
        57           C   tau(  57) = (   0.5336729   0.4843815   0.5790156  )
        58           C   tau(  58) = (   0.2503473   1.1084306   0.1737988  )
        59           C   tau(  59) = (   0.0343675   0.7637167   0.9266131  )
        60           C   tau(  60) = (   0.3176931   0.1396676   1.3318300  )
        61           H   tau(  61) = (   0.5409329   0.4047146   0.4637342  )
        62           H   tau(  62) = (   0.2430873   1.0287637   0.2890802  )
        63           H   tau(  63) = (   0.0271075   0.8433835   1.0418945  )
        64           H   tau(  64) = (   0.3249531   0.2193345   1.2165486  )
        65           C   tau(  65) = (   0.5917152   0.4177614   0.7366530  )
        66           C   tau(  66) = (   0.1923050   1.0418105   0.0161614  )
        67           C   tau(  67) = (  -0.0236748   0.8303368   0.7689758  )
        68           C   tau(  68) = (   0.3757354   0.2062877   1.4894674  )
        69           C   tau(  69) = (   0.5864852   0.5214588   0.8863816  )
        70           C   tau(  70) = (  -0.2344246   1.1455079   1.3720615  )
        71           C   tau(  71) = (  -0.0184448   0.7266394   0.6192472  )
        72           C   tau(  72) = (   0.8024650   0.1025903   0.1335672  )
        73           C   tau(  73) = (   0.5223623   0.6894180   0.8755567  )
        74           C   tau(  74) = (  -0.1703017   0.0653689   1.3828864  )
        75           C   tau(  75) = (   0.0456781   0.5586802   0.6300721  )
        76           C   tau(  76) = (   0.7383421   1.1827292   0.1227423  )
        77           H   tau(  77) = (   0.5157460   0.7717987   0.9891571  )
        78           H   tau(  78) = (  -0.1636854   0.1477496   1.2692860  )
        79           H   tau(  79) = (   0.0522944   0.4762994   0.5164716  )
        80           H   tau(  80) = (   0.7317258   1.1003485   0.2363427  )
        81           C   tau(  81) = (   0.6727545   0.2404969   0.7378482  )
        82           C   tau(  82) = (   0.1112657   0.8645459   0.0149662  )
        83           C   tau(  83) = (  -0.1047141   1.0076013   0.7677806  )
        84           C   tau(  84) = (   0.4567747   0.3835522   1.4906625  )
        85           C   tau(  85) = (   0.6334356   0.4462696   1.0591586  )
        86           C   tau(  86) = (  -0.2813750   1.0703187   1.1992845  )
        87           C   tau(  87) = (  -0.0653952   0.8018286   0.4464701  )
        88           C   tau(  88) = (   0.8494154   0.1777795   0.3063442  )

     number of k points=     8
                       cart. coord. in units 2pi/alat
        k(    1) = (   0.0000000   0.0000000   0.0000000), wk =   0.1666667
        k(    2) = (   0.0000000   0.0000000  -0.3320872), wk =   0.1666667
        k(    3) = (   0.0000000  -0.4006095   0.0000000), wk =   0.1666667
        k(    4) = (   0.0000000  -0.4006095  -0.3320872), wk =   0.1666667
        k(    5) = (   0.3333333   0.0000000   0.0956322), wk =   0.3333333
        k(    6) = (   0.3333333   0.0000000  -0.2364550), wk =   0.3333333
        k(    7) = (   0.3333333  -0.4006095   0.0956322), wk =   0.3333333
        k(    8) = (   0.3333333  -0.4006095  -0.2364550), wk =   0.3333333

     Dense  grid:   795135 G-vectors     FFT dimensions: (  96, 120, 150)

     Estimated max dynamical RAM per process >     782.27MB

     Estimated total allocated dynamical RAM >    6258.13MB

     Check: negative/imaginary core charge=   -0.000002    0.000000

     Initial potential from superposition of free atoms

     starting charge  311.99829, renormalised to  312.00000
     Starting wfc are  268 randomized atomic wfcs
     Checking if some PAW data can be deallocated... 

     total cpu time spent up to now is       48.5 secs

     per-process dynamical memory:   532.9 Mb

     Self-consistent Calculation

     iteration #  1     ecut=   100.00 Ry     beta=0.50
     Davidson diagonalization with overlap
     ethr =  1.00E-02,  avg # of iterations =  3.4

     total cpu time spent up to now is      184.4 secs

     total energy              =   -1626.01822117 Ry
     Harris-Foulkes estimate   =   -1631.48612372 Ry
     estimated scf accuracy    <       9.93865977 Ry

     iteration #  2     ecut=   100.00 Ry     beta=0.50
     Davidson diagonalization with overlap
     ethr =  3.19E-03,  avg # of iterations =  3.0

     total cpu time spent up to now is      268.6 secs

     total energy              =   -1627.54018516 Ry
     Harris-Foulkes estimate   =   -1628.29810394 Ry
     estimated scf accuracy    <       1.58316605 Ry

     iteration #  3     ecut=   100.00 Ry     beta=0.50
     Davidson diagonalization with overlap
     ethr =  5.07E-04,  avg # of iterations =  7.8

     total cpu time spent up to now is      406.7 secs

     total energy              =   -1628.08031883 Ry
     Harris-Foulkes estimate   =   -1628.27712893 Ry
     estimated scf accuracy    <       0.46013947 Ry

     iteration #  4     ecut=   100.00 Ry     beta=0.50
     Davidson diagonalization with overlap
     ethr =  1.47E-04,  avg # of iterations =  5.1

     total cpu time spent up to now is      483.9 secs

     total energy              =   -1628.13140200 Ry
     Harris-Foulkes estimate   =   -1628.15309283 Ry
     estimated scf accuracy    <       0.06268604 Ry

     iteration #  5     ecut=   100.00 Ry     beta=0.50
     Davidson diagonalization with overlap
     ethr =  2.01E-05,  avg # of iterations =  7.4

     total cpu time spent up to now is      640.5 secs

     total energy              =   -1628.16007870 Ry
     Harris-Foulkes estimate   =   -1628.18233007 Ry
     estimated scf accuracy    <       0.06248094 Ry

     iteration #  6     ecut=   100.00 Ry     beta=0.50
     Davidson diagonalization with overlap
     ethr =  2.00E-05,  avg # of iterations =  2.0

     total cpu time spent up to now is      710.8 secs

     total energy              =   -1628.15983042 Ry
     Harris-Foulkes estimate   =   -1628.16738019 Ry
     estimated scf accuracy    <       0.01902321 Ry

     iteration #  7     ecut=   100.00 Ry     beta=0.50
     Davidson diagonalization with overlap
     ethr =  6.10E-06,  avg # of iterations =  8.2

     total cpu time spent up to now is      840.5 secs

     total energy              =   -1628.16635042 Ry
     Harris-Foulkes estimate   =   -1628.16681316 Ry
     estimated scf accuracy    <       0.00201455 Ry

     iteration #  8     ecut=   100.00 Ry     beta=0.50
     Davidson diagonalization with overlap
     ethr =  6.46E-07,  avg # of iterations =  3.0

     total cpu time spent up to now is      914.9 secs

     total energy              =   -1628.16643459 Ry
     Harris-Foulkes estimate   =   -1628.16666568 Ry
     estimated scf accuracy    <       0.00060023 Ry

     iteration #  9     ecut=   100.00 Ry     beta=0.50
     Davidson diagonalization with overlap
     ethr =  1.92E-07,  avg # of iterations =  3.0

     total cpu time spent up to now is     1000.9 secs

     total energy              =   -1628.16654050 Ry
     Harris-Foulkes estimate   =   -1628.16656765 Ry
     estimated scf accuracy    <       0.00006701 Ry

     iteration # 10     ecut=   100.00 Ry     beta=0.50
     Davidson diagonalization with overlap
     ethr =  2.15E-08,  avg # of iterations =  4.1

     total cpu time spent up to now is     1121.0 secs

     total energy              =   -1628.16656733 Ry
     Harris-Foulkes estimate   =   -1628.16657333 Ry
     estimated scf accuracy    <       0.00001430 Ry

     iteration # 11     ecut=   100.00 Ry     beta=0.50
     Davidson diagonalization with overlap
     ethr =  4.58E-09,  avg # of iterations =  3.0

     total cpu time spent up to now is     1196.3 secs

     total energy              =   -1628.16656898 Ry
     Harris-Foulkes estimate   =   -1628.16656974 Ry
     estimated scf accuracy    <       0.00000244 Ry

     iteration # 12     ecut=   100.00 Ry     beta=0.50
     Davidson diagonalization with overlap
     ethr =  7.83E-10,  avg # of iterations =  4.0

     total cpu time spent up to now is     1322.3 secs

     total energy              =   -1628.16657034 Ry
     Harris-Foulkes estimate   =   -1628.16657064 Ry
     estimated scf accuracy    <       0.00000075 Ry

     iteration # 13     ecut=   100.00 Ry     beta=0.50
     Davidson diagonalization with overlap
     ethr =  2.42E-10,  avg # of iterations =  1.0

     total cpu time spent up to now is     1388.1 secs

     total energy              =   -1628.16657036 Ry
     Harris-Foulkes estimate   =   -1628.16657041 Ry
     estimated scf accuracy    <       0.00000012 Ry

     iteration # 14     ecut=   100.00 Ry     beta=0.50
     Davidson diagonalization with overlap
     ethr =  3.74E-11,  avg # of iterations =  4.0

     total cpu time spent up to now is     1528.8 secs

     total energy              =   -1628.16657046 Ry
     Harris-Foulkes estimate   =   -1628.16657052 Ry
     estimated scf accuracy    <       0.00000016 Ry

     iteration # 15     ecut=   100.00 Ry     beta=0.50
     Davidson diagonalization with overlap
     ethr =  3.74E-11,  avg # of iterations =  1.0

     total cpu time spent up to now is     1594.7 secs

     total energy              =   -1628.16657045 Ry
     Harris-Foulkes estimate   =   -1628.16657047 Ry
     estimated scf accuracy    <       0.00000005 Ry

     iteration # 16     ecut=   100.00 Ry     beta=0.50
     Davidson diagonalization with overlap
     ethr =  1.56E-11,  avg # of iterations =  4.0

     total cpu time spent up to now is     1715.0 secs

     total energy              =   -1628.16657048 Ry
     Harris-Foulkes estimate   =   -1628.16657048 Ry
     estimated scf accuracy    <       0.00000001 Ry

     iteration # 17     ecut=   100.00 Ry     beta=0.50
     Davidson diagonalization with overlap
     ethr =  4.80E-12,  avg # of iterations =  1.0

     total cpu time spent up to now is     1780.8 secs

     End of self-consistent calculation

          k = 0.0000 0.0000 0.0000 ( 99477 PWs)   bands (ev):

   -24.0497 -24.0491 -24.0476 -24.0471 -19.5872 -19.5854 -19.5841 -19.5833
   -19.2402 -19.1679 -19.1361 -19.1017 -18.9555 -18.9364 -18.9224 -18.8513
   -15.7489 -15.7444 -15.7217 -15.6745 -15.6059 -15.5862 -15.4849 -15.4655
   -15.2464 -15.2420 -15.1588 -15.1452 -13.3407 -13.3401 -13.3267 -13.3242
   -12.3600 -12.3349 -12.2864 -12.2796 -10.9343 -10.9253 -10.8628 -10.8535
    -9.4404  -9.4376  -9.3415  -9.3195  -8.5309  -8.4672  -8.4490  -8.4047
    -8.1152  -8.0170  -8.0102  -7.8965  -7.4980  -7.4060  -7.3522  -7.2843
    -7.1692  -7.0076  -6.8442  -6.7391  -6.5811  -6.5793  -6.5524  -6.5465
    -6.5121  -6.4868  -6.4825  -6.4701  -6.0462  -6.0437  -5.9811  -5.9232
    -5.9155  -5.8886  -5.8307  -5.7959  -5.6861  -5.6636  -5.1303  -5.0778
    -5.0540  -5.0107  -5.0089  -5.0083  -4.6831  -4.6164  -4.6058  -4.4918
    -4.2640  -4.1206  -4.0566  -3.9146  -3.8800  -3.8393  -3.8177  -3.7564
    -3.6918  -3.5580  -3.3866  -3.3604  -3.2213  -3.2033  -3.1109  -3.0882
    -2.9754  -2.9530  -2.8910  -2.7453  -2.7002  -2.5892  -2.5246  -2.4645
    -2.3507  -2.3022  -2.1959  -2.1719  -1.9657  -1.9621  -1.9607  -1.8490
    -1.0426  -1.0396  -1.0185  -1.0114  -0.7296  -0.7171  -0.6246  -0.6206
    -0.3278  -0.2707  -0.2542  -0.1869  -0.1421  -0.0779   0.0317   0.0327
     0.0650   0.0709   0.1314   0.2310   0.2330   0.2909   0.3012   0.3620
     0.4002   0.4160   0.5717   0.6381   0.6732   0.7153   0.7257   0.7614
     0.8858   0.9586   0.9947   1.0301   3.2436   3.2454   3.2719   3.3313
     4.6577   4.7023   4.7754   4.8764   5.3529   5.4281   5.4370   5.4951
     6.1985   6.3017   6.4435   6.5828   6.9141   6.9248   6.9485   7.0667
     7.2383   7.9829   8.0549   8.2649   8.3465   8.4545   8.6169   8.8296
     8.9283   9.1993   9.2023

          k = 0.0000 0.0000-0.3321 ( 99268 PWs)   bands (ev):

   -24.0494 -24.0494 -24.0473 -24.0473 -19.5857 -19.5857 -19.5843 -19.5843
   -19.2107 -19.2107 -19.1157 -19.1157 -18.9464 -18.9464 -18.8830 -18.8830
   -15.7467 -15.7467 -15.7007 -15.7007 -15.5940 -15.5940 -15.4745 -15.4745
   -15.2450 -15.2450 -15.1514 -15.1514 -13.3359 -13.3359 -13.3302 -13.3302
   -12.3477 -12.3477 -12.2816 -12.2816 -10.9325 -10.9325 -10.8571 -10.8571
    -9.4416  -9.4416  -9.3257  -9.3257  -8.5168  -8.5168  -8.4129  -8.4129
    -8.0618  -8.0618  -7.9566  -7.9566  -7.5118  -7.5118  -7.2995  -7.2995
    -6.9836  -6.9836  -6.8285  -6.8285  -6.5819  -6.5819  -6.5353  -6.5353
    -6.5126  -6.5126  -6.4736  -6.4736  -6.0869  -6.0869  -5.9813  -5.9813
    -5.8718  -5.8718  -5.8317  -5.8317  -5.6682  -5.6682  -5.1532  -5.1532
    -5.0163  -5.0163  -4.9576  -4.9576  -4.6541  -4.6541  -4.5439  -4.5439
    -4.1303  -4.1303  -4.0466  -4.0466  -3.8565  -3.8565  -3.7413  -3.7413
    -3.6631  -3.6631  -3.4070  -3.4070  -3.1710  -3.1710  -3.0589  -3.0589
    -2.9808  -2.9808  -2.8213  -2.8213  -2.6454  -2.6454  -2.5119  -2.5119
    -2.4125  -2.4125  -2.1686  -2.1686  -1.9480  -1.9480  -1.8832  -1.8832
    -1.0248  -1.0248  -1.0148  -1.0148  -0.7208  -0.7208  -0.6177  -0.6177
    -0.3027  -0.3027  -0.2153  -0.2153  -0.1239  -0.1239   0.0365   0.0365
     0.0730   0.0730   0.1969   0.1969   0.2601   0.2601   0.3228   0.3228
     0.4526   0.4526   0.5295   0.5295   0.7163   0.7163   0.7455   0.7455
     0.9240   0.9240   1.0093   1.0093   3.2359   3.2359   3.3049   3.3049
     4.6797   4.6797   4.8155   4.8155   5.3962   5.3962   5.4688   5.4688
     6.2320   6.2320   6.5408   6.5408   6.8957   6.8957   7.1735   7.1735
     7.3320   7.3320   8.2793   8.2793   8.4210   8.4210   8.6355   8.6355
     9.0344   9.0344   9.2952

          k = 0.0000-0.4006 0.0000 ( 99442 PWs)   bands (ev):

   -24.0487 -24.0487 -24.0481 -24.0481 -19.5863 -19.5863 -19.5837 -19.5837
   -19.2102 -19.2102 -19.1100 -19.1100 -18.9554 -18.9554 -18.8816 -18.8816
   -15.7386 -15.7386 -15.6389 -15.6389 -15.6031 -15.6031 -15.5493 -15.5493
   -15.2377 -15.2377 -15.1372 -15.1372 -13.3629 -13.3629 -13.3272 -13.3272
   -12.3497 -12.3497 -12.2806 -12.2806 -10.9066 -10.9066 -10.8326 -10.8326
    -9.4164  -9.4164  -9.3729  -9.3729  -8.5917  -8.5917  -8.3685  -8.3685
    -8.0808  -8.0808  -7.9363  -7.9363  -7.3333  -7.3333  -7.2728  -7.2728
    -7.0657  -7.0657  -6.9315  -6.9315  -6.6765  -6.6765  -6.5359  -6.5359
    -6.4551  -6.4551  -6.4264  -6.4264  -6.1086  -6.1086  -5.9807  -5.9807
    -5.9160  -5.9160  -5.8213  -5.8213  -5.7139  -5.7139  -5.2039  -5.2039
    -5.0723  -5.0723  -4.9050  -4.9050  -4.6388  -4.6388  -4.5335  -4.5335
    -4.0939  -4.0939  -3.9799  -3.9799  -3.8883  -3.8883  -3.7567  -3.7567
    -3.4094  -3.4094  -3.3179  -3.3179  -3.2622  -3.2622  -3.1253  -3.1253
    -2.9884  -2.9884  -2.8304  -2.8304  -2.6527  -2.6527  -2.4896  -2.4896
    -2.4511  -2.4511  -2.1144  -2.1144  -1.9622  -1.9622  -1.9489  -1.9489
    -1.0671  -1.0671  -1.0022  -1.0022  -0.7566  -0.7566  -0.5718  -0.5718
    -0.3429  -0.3429  -0.2696  -0.2696  -0.1639  -0.1639  -0.0160  -0.0160
     0.0294   0.0294   0.1958   0.1958   0.2822   0.2822   0.3592   0.3592
     0.5553   0.5553   0.5886   0.5886   0.7406   0.7406   0.7706   0.7706
     0.8731   0.8731   0.9504   0.9504   3.2813   3.2813   3.3042   3.3042
     4.7002   4.7002   4.8038   4.8038   5.3894   5.3894   5.4470   5.4470
     6.2929   6.2929   6.4822   6.4822   6.9407   6.9407   7.1376   7.1376
     7.3695   7.3695   8.1194   8.1194   8.4746   8.4746   8.7461   8.7461
     8.8375   8.8375   9.2354

          k = 0.0000-0.4006-0.3321 ( 99400 PWs)   bands (ev):

   -24.0485 -24.0485 -24.0482 -24.0482 -19.5852 -19.5852 -19.5848 -19.5848
   -19.2033 -19.2033 -19.1255 -19.1255 -18.9294 -18.9294 -18.8991 -18.8991
   -15.7386 -15.7386 -15.6380 -15.6380 -15.6027 -15.6027 -15.5511 -15.5511
   -15.2365 -15.2365 -15.1382 -15.1382 -13.3627 -13.3627 -13.3273 -13.3273
   -12.3483 -12.3483 -12.2816 -12.2816 -10.9058 -10.9058 -10.8340 -10.8340
    -9.4171  -9.4171  -9.3742  -9.3742  -8.6034  -8.6034  -8.3682  -8.3682
    -8.0601  -8.0601  -7.9306  -7.9306  -7.3290  -7.3290  -7.2551  -7.2551
    -7.0952  -7.0952  -6.9246  -6.9246  -6.6782  -6.6782  -6.5336  -6.5336
    -6.4559  -6.4559  -6.4318  -6.4318  -6.1472  -6.1472  -6.0894  -6.0894
    -5.8016  -5.8016  -5.7828  -5.7828  -5.7237  -5.7237  -5.2057  -5.2057
    -5.0556  -5.0556  -4.9144  -4.9144  -4.5944  -4.5944  -4.5884  -4.5884
    -4.0781  -4.0781  -4.0006  -4.0006  -3.8698  -3.8698  -3.7516  -3.7516
    -3.3794  -3.3794  -3.3194  -3.3194  -3.2935  -3.2935  -3.1640  -3.1640
    -2.9160  -2.9160  -2.9043  -2.9043  -2.6407  -2.6407  -2.4942  -2.4942
    -2.3873  -2.3873  -2.1697  -2.1697  -1.9660  -1.9660  -1.9523  -1.9523
    -1.0566  -1.0566  -0.9991  -0.9991  -0.7593  -0.7593  -0.5712  -0.5712
    -0.3466  -0.3466  -0.2661  -0.2661  -0.1443  -0.1443  -0.0038  -0.0038
     0.0262   0.0262   0.2195   0.2195   0.2511   0.2511   0.3609   0.3609
     0.5349   0.5349   0.5928   0.5928   0.7507   0.7507   0.7605   0.7605
     0.8840   0.8840   0.9414   0.9414   3.2843   3.2843   3.2962   3.2962
     4.7019   4.7019   4.7936   4.7936   5.4026   5.4026   5.4366   5.4366
     6.3070   6.3070   6.4689   6.4689   6.9920   6.9920   7.0963   7.0963
     7.6526   7.6526   7.7179   7.7179   8.4430   8.4430   8.7237   8.7237
     8.9221   8.9221   9.3889

          k = 0.3333 0.0000 0.0956 ( 99360 PWs)   bands (ev):

   -24.0496 -24.0490 -24.0476 -24.0471 -19.5868 -19.5852 -19.5842 -19.5831
   -19.2412 -19.1687 -19.1368 -19.1020 -18.9563 -18.9366 -18.9221 -18.8513
   -15.7418 -15.7386 -15.7115 -15.6805 -15.6068 -15.5878 -15.4800 -15.4679
   -15.2452 -15.2355 -15.1729 -15.1505 -13.3560 -13.3504 -13.3138 -13.3104
   -12.3475 -12.3360 -12.2994 -12.2778 -10.9182 -10.9170 -10.8780 -10.8759
    -9.4607  -9.4253  -9.3322  -9.3170  -8.6102  -8.5334  -8.4191  -8.2853
    -8.0951  -8.0172  -7.9536  -7.9295  -7.5150  -7.4679  -7.3278  -7.2873
    -7.0521  -7.0347  -6.8695  -6.8268  -6.7427  -6.7219  -6.7042  -6.6804
    -6.3638  -6.3404  -6.3331  -6.3272  -6.0919  -6.0199  -5.9673  -5.9470
    -5.9374  -5.8577  -5.8168  -5.7862  -5.5927  -5.5771  -5.1750  -5.1619
    -5.1237  -5.0016  -4.9373  -4.9172  -4.6797  -4.6059  -4.5844  -4.4982
    -4.2694  -4.0725  -4.0120  -3.9512  -3.8678  -3.8340  -3.8220  -3.8170
    -3.6429  -3.5521  -3.3337  -3.3248  -3.2212  -3.2038  -3.0890  -3.0882
    -3.0318  -2.9708  -2.9158  -2.7800  -2.7394  -2.6500  -2.6216  -2.5552
    -2.4610  -2.3125  -2.1721  -2.0999  -1.9762  -1.9700  -1.9415  -1.8697
    -1.0543  -1.0211  -1.0201  -0.9892  -0.7050  -0.6920  -0.6241  -0.6241
    -0.3666  -0.3161  -0.2007  -0.1412  -0.1275  -0.0930  -0.0675   0.0233
     0.0942   0.1102   0.1990   0.2089   0.2345   0.2500   0.3460   0.3593
     0.3776   0.4142   0.6096   0.6105   0.6890   0.7200   0.7300   0.7509
     0.8871   0.9491   1.0099   1.0181   3.1823   3.2515   3.3518   3.3556
     4.6452   4.7115   4.7969   4.8136   5.3394   5.3695   5.5256   5.5414
     6.1485   6.3129   6.5299   6.5517   6.8294   6.9372   7.1217   7.2258
     7.2370   7.9874   8.1190   8.2795   8.4390   8.4559   8.6834   8.8435
     8.9659   9.1558   9.2947

          k = 0.3333 0.0000-0.2365 ( 99372 PWs)   bands (ev):

   -24.0493 -24.0493 -24.0473 -24.0473 -19.5857 -19.5854 -19.5841 -19.5841
   -19.2119 -19.2116 -19.1164 -19.1163 -18.9466 -18.9460 -18.8833 -18.8830
   -15.7406 -15.7398 -15.7021 -15.6928 -15.5968 -15.5961 -15.4821 -15.4641
   -15.2438 -15.2371 -15.1627 -15.1611 -13.3552 -13.3523 -13.3129 -13.3101
   -12.3468 -12.3369 -12.2943 -12.2835 -10.9208 -10.9108 -10.8830 -10.8731
    -9.4515  -9.4331  -9.3349  -9.3136  -8.6009  -8.5548  -8.3833  -8.3291
    -8.0655  -8.0564  -7.9476  -7.9157  -7.4749  -7.4444  -7.3462  -7.2458
    -7.1879  -7.0656  -6.8401  -6.7902  -6.7375  -6.7326  -6.6944  -6.6939
    -6.3424  -6.3339  -6.3246  -6.3105  -6.0703  -6.0249  -5.9954  -5.9541
    -5.9133  -5.8908  -5.7894  -5.7881  -5.5970  -5.5805  -5.1941  -5.1267
    -5.1077  -5.0140  -4.9694  -4.9165  -4.6487  -4.6486  -4.5519  -4.5450
    -4.1629  -4.1379  -4.0245  -4.0035  -3.8806  -3.8800  -3.7472  -3.7158
    -3.6518  -3.6373  -3.3667  -3.3471  -3.2011  -3.1869  -3.0882  -3.0838
    -2.9932  -2.9817  -2.8461  -2.8428  -2.6734  -2.6611  -2.6204  -2.5533
    -2.4194  -2.4167  -2.2069  -2.1564  -1.9260  -1.9201  -1.9045  -1.8937
    -1.0445  -1.0441  -1.0101  -1.0084  -0.6991  -0.6972  -0.6286  -0.6169
    -0.3484  -0.3457  -0.1884  -0.1557  -0.1130  -0.0709  -0.0490  -0.0163
     0.0986   0.1444   0.1725   0.2007   0.2201   0.2831   0.3180   0.3458
     0.4473   0.4787   0.5192   0.5306   0.7218   0.7239   0.7436   0.7722
     0.9174   0.9230   1.0027   1.0064   3.1991   3.2324   3.3476   3.3619
     4.6625   4.6799   4.7769   4.8424   5.3495   5.3625   5.5362   5.5407
     6.2009   6.2274   6.4931   6.5678   6.9021   6.9577   7.1423   7.1742
     7.3618   7.6044   8.1641   8.3528   8.4316   8.6163   8.7403   8.7872
     9.0835   9.1219   9.1772

          k = 0.3333-0.4006 0.0956 ( 99416 PWs)   bands (ev):

   -24.0486 -24.0486 -24.0480 -24.0480 -19.5860 -19.5860 -19.5836 -19.5836
   -19.2110 -19.2110 -19.1106 -19.1106 -18.9558 -18.9558 -18.8815 -18.8815
   -15.7423 -15.7423 -15.6339 -15.6339 -15.5929 -15.5929 -15.5501 -15.5501
   -15.2318 -15.2318 -15.1502 -15.1502 -13.3580 -13.3580 -13.3352 -13.3352
   -12.3424 -12.3424 -12.2882 -12.2882 -10.9221 -10.9221 -10.8132 -10.8132
    -9.4073  -9.4073  -9.3831  -9.3831  -8.5504  -8.5504  -8.4294  -8.4294
    -8.1052  -8.1052  -7.9202  -7.9202  -7.3596  -7.3596  -7.2386  -7.2386
    -7.0497  -7.0497  -6.9629  -6.9629  -6.7236  -6.7236  -6.6135  -6.6135
    -6.4175  -6.4175  -6.3564  -6.3564  -6.0985  -6.0985  -6.0184  -6.0184
    -5.8419  -5.8419  -5.8134  -5.8134  -5.6738  -5.6738  -5.1368  -5.1368
    -5.0542  -5.0542  -4.9542  -4.9542  -4.6343  -4.6343  -4.5546  -4.5546
    -4.0630  -4.0630  -3.9578  -3.9578  -3.8975  -3.8975  -3.7879  -3.7879
    -3.3599  -3.3599  -3.3154  -3.3154  -3.2555  -3.2555  -3.1283  -3.1283
    -3.0128  -3.0128  -2.8521  -2.8521  -2.6902  -2.6902  -2.5590  -2.5590
    -2.4583  -2.4583  -2.1977  -2.1977  -1.9934  -1.9934  -1.9087  -1.9087
    -1.0512  -1.0512  -1.0101  -1.0101  -0.7263  -0.7263  -0.5686  -0.5686
    -0.4355  -0.4355  -0.1974  -0.1974  -0.1320  -0.1320  -0.0159  -0.0159
     0.1231   0.1231   0.1619   0.1619   0.2284   0.2284   0.3730   0.3730
     0.5568   0.5568   0.5977   0.5977   0.7344   0.7344   0.7825   0.7825
     0.8749   0.8749   0.9521   0.9521   3.2308   3.2308   3.3371   3.3371
     4.6815   4.6815   4.8285   4.8285   5.2798   5.2798   5.5797   5.5797
     6.3245   6.3245   6.4612   6.4612   6.9520   6.9520   7.0934   7.0934
     7.5661   7.5661   8.2201   8.2201   8.5081   8.5081   8.6909   8.6909
     9.0228   9.0228   9.1812

          k = 0.3333-0.4006-0.2365 ( 99352 PWs)   bands (ev):

   -24.0485 -24.0485 -24.0482 -24.0482 -19.5851 -19.5851 -19.5845 -19.5845
   -19.2041 -19.2041 -19.1263 -19.1263 -18.9295 -18.9295 -18.8992 -18.8992
   -15.7423 -15.7423 -15.6346 -15.6346 -15.5902 -15.5902 -15.5525 -15.5525
   -15.2300 -15.2300 -15.1516 -15.1516 -13.3580 -13.3580 -13.3353 -13.3353
   -12.3414 -12.3414 -12.2892 -12.2892 -10.9215 -10.9215 -10.8135 -10.8135
    -9.4060  -9.4060  -9.3841  -9.3841  -8.5486  -8.5486  -8.4256  -8.4256
    -8.0966  -8.0966  -7.9408  -7.9408  -7.3563  -7.3563  -7.2558  -7.2558
    -7.0574  -7.0574  -6.9495  -6.9495  -6.7186  -6.7186  -6.6187  -6.6187
    -6.4138  -6.4138  -6.3213  -6.3213  -6.0812  -6.0812  -6.0084  -6.0084
    -5.8953  -5.8953  -5.8122  -5.8122  -5.6715  -5.6715  -5.1450  -5.1450
    -5.0498  -5.0498  -4.9503  -4.9503  -4.6062  -4.6062  -4.5937  -4.5937
    -4.0627  -4.0627  -3.9741  -3.9741  -3.8559  -3.8559  -3.7976  -3.7976
    -3.3415  -3.3415  -3.3089  -3.3089  -3.2875  -3.2875  -3.1578  -3.1578
    -2.9463  -2.9463  -2.9121  -2.9121  -2.6708  -2.6708  -2.5401  -2.5401
    -2.5015  -2.5015  -2.1434  -2.1434  -1.9735  -1.9735  -1.9518  -1.9518
    -1.0407  -1.0407  -1.0279  -1.0279  -0.7285  -0.7285  -0.5694  -0.5694
    -0.4396  -0.4396  -0.1889  -0.1889  -0.1063  -0.1063  -0.0316  -0.0316
     0.1214   0.1214   0.1635   0.1635   0.2419   0.2419   0.3713   0.3713
     0.5455   0.5455   0.5777   0.5777   0.7653   0.7653   0.7752   0.7752
     0.8611   0.8611   0.9531   0.9531   3.2310   3.2310   3.3382   3.3382
     4.6754   4.6754   4.8251   4.8251   5.2921   5.2921   5.5786   5.5786
     6.3341   6.3341   6.4402   6.4402   6.9889   6.9889   7.0518   7.0518
     7.7154   7.7154   7.9171   7.9171   8.5901   8.5901   8.8115   8.8116
     9.0589   9.0589   9.2857

     highest occupied, lowest unoccupied level (ev):     1.0301    3.1823

!    total energy              =   -1628.16657047 Ry
     Harris-Foulkes estimate   =   -1628.16657048 Ry
     estimated scf accuracy    <          8.4E-09 Ry

     total all-electron energy =     -6193.753586 Ry

     The total energy is the sum of the following terms:

     one-electron contribution =    -818.03700006 Ry
     hartree contribution      =     535.73896452 Ry
     xc contribution           =    -335.61533230 Ry
     ewald contribution        =    -545.28277186 Ry
     Dispersion Correction     =      -0.43275351 Ry
     one-center paw contrib.   =    -464.53767726 Ry

     convergence has been achieved in  17 iterations

     Forces acting on atoms (cartesian axes, Ry/au):

     atom    1 type  4   force =     0.00180216    0.00177423    0.00023664
     atom    2 type  4   force =    -0.00180216    0.00177423   -0.00023664
     atom    3 type  4   force =    -0.00180216   -0.00177423   -0.00023664
     atom    4 type  4   force =     0.00180216   -0.00177423    0.00023664
     atom    5 type  4   force =    -0.00049041    0.00043167   -0.00040856
     atom    6 type  4   force =     0.00049041    0.00043167    0.00040856
     atom    7 type  4   force =     0.00049041   -0.00043167    0.00040856
     atom    8 type  4   force =    -0.00049041   -0.00043167   -0.00040856
     atom    9 type  4   force =     0.00033943   -0.00092417   -0.00149218
     atom   10 type  4   force =    -0.00033943   -0.00092417    0.00149218
     atom   11 type  4   force =    -0.00033943    0.00092417    0.00149218
     atom   12 type  4   force =     0.00033943    0.00092417   -0.00149218
     atom   13 type  4   force =     0.00083663   -0.00138683    0.00090187
     atom   14 type  4   force =    -0.00083663   -0.00138683   -0.00090187
     atom   15 type  4   force =    -0.00083663    0.00138683   -0.00090187
     atom   16 type  4   force =     0.00083663    0.00138683    0.00090187
     atom   17 type  2   force =     0.00023572   -0.00090211    0.00058056
     atom   18 type  2   force =    -0.00023572   -0.00090211   -0.00058056
     atom   19 type  2   force =    -0.00023572    0.00090211   -0.00058056
     atom   20 type  2   force =     0.00023572    0.00090211    0.00058056
     atom   21 type  2   force =    -0.00126896    0.00028000    0.00076546
     atom   22 type  2   force =     0.00126896    0.00028000   -0.00076546
     atom   23 type  2   force =     0.00126896   -0.00028000   -0.00076546
     atom   24 type  2   force =    -0.00126896   -0.00028000    0.00076546
     atom   25 type  3   force =    -0.00083866    0.00043484    0.00014957
     atom   26 type  3   force =     0.00083866    0.00043484   -0.00014957
     atom   27 type  3   force =     0.00083866   -0.00043484   -0.00014957
     atom   28 type  3   force =    -0.00083866   -0.00043484    0.00014957
     atom   29 type  3   force =    -0.00002015   -0.00015534    0.00003139
     atom   30 type  3   force =     0.00002015   -0.00015534   -0.00003139
     atom   31 type  3   force =     0.00002015    0.00015534   -0.00003139
     atom   32 type  3   force =    -0.00002015    0.00015534    0.00003139
     atom   33 type  2   force =    -0.00048509   -0.00054226   -0.00031177
     atom   34 type  2   force =     0.00048509   -0.00054226    0.00031177
     atom   35 type  2   force =     0.00048509    0.00054226    0.00031177
     atom   36 type  2   force =    -0.00048509    0.00054226   -0.00031177
     atom   37 type  3   force =     0.00008922   -0.00024199    0.00001402
     atom   38 type  3   force =    -0.00008922   -0.00024199   -0.00001402
     atom   39 type  3   force =    -0.00008922    0.00024199   -0.00001402
     atom   40 type  3   force =     0.00008922    0.00024199    0.00001402
     atom   41 type  3   force =     0.00067465    0.00081690    0.00076247
     atom   42 type  3   force =    -0.00067465    0.00081690   -0.00076247
     atom   43 type  3   force =    -0.00067465   -0.00081690   -0.00076247
     atom   44 type  3   force =     0.00067465   -0.00081690    0.00076247
     atom   45 type  1   force =    -0.00134760   -0.00018997   -0.00029516
     atom   46 type  1   force =     0.00134760   -0.00018997    0.00029516
     atom   47 type  1   force =     0.00134760    0.00018997    0.00029516
     atom   48 type  1   force =    -0.00134760    0.00018997   -0.00029516
     atom   49 type  1   force =     0.00041768    0.00002355    0.00030481
     atom   50 type  1   force =    -0.00041768    0.00002355   -0.00030481
     atom   51 type  1   force =    -0.00041768   -0.00002355   -0.00030481
     atom   52 type  1   force =     0.00041768   -0.00002355    0.00030481
     atom   53 type  3   force =    -0.00057968   -0.00032482    0.00023017
     atom   54 type  3   force =     0.00057968   -0.00032482   -0.00023017
     atom   55 type  3   force =     0.00057968    0.00032482   -0.00023017
     atom   56 type  3   force =    -0.00057968    0.00032482    0.00023017
     atom   57 type  1   force =     0.00110777    0.00001508   -0.00002284
     atom   58 type  1   force =    -0.00110777    0.00001508    0.00002284
     atom   59 type  1   force =    -0.00110777   -0.00001508    0.00002284
     atom   60 type  1   force =     0.00110777   -0.00001508   -0.00002284
     atom   61 type  3   force =    -0.00006684    0.00003379   -0.00054714
     atom   62 type  3   force =     0.00006684    0.00003379    0.00054714
     atom   63 type  3   force =     0.00006684   -0.00003379    0.00054714
     atom   64 type  3   force =    -0.00006684   -0.00003379   -0.00054714
     atom   65 type  1   force =     0.00040401   -0.00099493    0.00093048
     atom   66 type  1   force =    -0.00040401   -0.00099493   -0.00093048
     atom   67 type  1   force =    -0.00040401    0.00099493   -0.00093048
     atom   68 type  1   force =     0.00040401    0.00099493    0.00093048
     atom   69 type  1   force =    -0.00055653    0.00022032    0.00046410
     atom   70 type  1   force =     0.00055653    0.00022032   -0.00046410
     atom   71 type  1   force =     0.00055653   -0.00022032   -0.00046410
     atom   72 type  1   force =    -0.00055653   -0.00022032    0.00046410
     atom   73 type  1   force =     0.00034048   -0.00060939    0.00111529
     atom   74 type  1   force =    -0.00034048   -0.00060939   -0.00111529
     atom   75 type  1   force =    -0.00034048    0.00060939   -0.00111529
     atom   76 type  1   force =     0.00034048    0.00060939    0.00111529
     atom   77 type  3   force =    -0.00048037    0.00047966    0.00049264
     atom   78 type  3   force =     0.00048037    0.00047966   -0.00049264
     atom   79 type  3   force =     0.00048037   -0.00047966   -0.00049264
     atom   80 type  3   force =    -0.00048037   -0.00047966    0.00049264
     atom   81 type  1   force =     0.00010038    0.00118601    0.00055492
     atom   82 type  1   force =    -0.00010038    0.00118601   -0.00055492
     atom   83 type  1   force =    -0.00010038   -0.00118601   -0.00055492
     atom   84 type  1   force =     0.00010038   -0.00118601    0.00055492
     atom   85 type  1   force =     0.00057753    0.00084070    0.00035483
     atom   86 type  1   force =    -0.00057753    0.00084070   -0.00035483
     atom   87 type  1   force =    -0.00057753   -0.00084070   -0.00035483
     atom   88 type  1   force =     0.00057753   -0.00084070    0.00035483

     Total force =     0.011428     Total SCF correction =     0.000222


     Computing stress (Cartesian axis) and pressure

          total   stress  (Ry/bohr**3)                   (kbar)     P=   -1.42
  -0.00000505   0.00000000   0.00000280         -0.74      0.00      0.41
   0.00000000  -0.00001870   0.00000000          0.00     -2.75      0.00
   0.00000280   0.00000000  -0.00000526          0.41      0.00     -0.77


     Writing output data file scf.save
 
     init_run     :     46.47s CPU     47.72s WALL (       1 calls)
     electrons    :   1671.12s CPU   1732.46s WALL (       1 calls)
     forces       :     23.14s CPU     23.32s WALL (       1 calls)
     stress       :     98.35s CPU     98.68s WALL (       1 calls)

     Called by init_run:
     wfcinit      :     36.66s CPU     37.80s WALL (       1 calls)
     potinit      :      3.50s CPU      3.52s WALL (       1 calls)

     Called by electrons:
     c_bands      :   1512.01s CPU   1565.05s WALL (      17 calls)
     sum_band     :    145.53s CPU    152.56s WALL (      17 calls)
     v_of_rho     :      2.06s CPU      2.26s WALL (      18 calls)
     newd         :      4.84s CPU      5.89s WALL (      18 calls)
     PAW_pot      :      6.20s CPU      6.20s WALL (      18 calls)
     mix_rho      :      0.47s CPU      0.51s WALL (      17 calls)

     Called by c_bands:
     init_us_2    :      7.55s CPU      7.60s WALL (     296 calls)
     cegterg      :   1480.36s CPU   1533.28s WALL (     136 calls)

     Called by sum_band:
     sum_band:bec :      0.09s CPU      0.09s WALL (     136 calls)
     addusdens    :      5.04s CPU      6.02s WALL (      17 calls)

     Called by *egterg:
     h_psi        :    772.77s CPU    813.51s WALL (     664 calls)
     s_psi        :    181.77s CPU    181.83s WALL (     664 calls)
     g_psi        :      3.84s CPU      3.85s WALL (     520 calls)
     cdiaghg      :     99.72s CPU     99.75s WALL (     656 calls)

     Called by h_psi:
     h_psi:pot    :    767.14s CPU    807.77s WALL (     664 calls)
     h_psi:calbec :    176.10s CPU    176.42s WALL (     664 calls)
     vloc_psi     :    408.47s CPU    448.77s WALL (     664 calls)
     add_vuspsi   :    182.57s CPU    182.58s WALL (     664 calls)

     General routines
     calbec       :    254.82s CPU    255.25s WALL (     840 calls)
     fft          :      2.90s CPU      3.23s WALL (     258 calls)
     fftw         :    436.11s CPU    478.94s WALL (  173164 calls)
 
     Parallel routines
     fft_scatter  :     98.15s CPU    134.17s WALL (  173422 calls)
 
     PWSCF        : 30m49.75s CPU    32m43.54s WALL

 
   This run was terminated on:   6:34:31  19Dec2017            

=------------------------------------------------------------------------------=
   JOB DONE.
=------------------------------------------------------------------------------=
