
     Program PWSCF v.6.1 (svn rev. 13369) starts on  5Dec2017 at  5:51:35 

     This program is part of the open-source Quantum ESPRESSO suite
     for quantum simulation of materials; please cite
         "P. Giannozzi et al., J. Phys.:Condens. Matter 21 395502 (2009);
          URL http://www.quantum-espresso.org", 
     in publications or presentations arising from this work. More details at
     http://www.quantum-espresso.org/quote

     Parallel version (MPI), running on     8 processors
     R & G space division:  proc/nbgrp/npool/nimage =       8
     Waiting for input...
     Reading input from standard input

     Current dimensions of program PWSCF are:
     Max number of different atomic species (ntypx) = 10
     Max number of k-points (npk) =  40000
     Max angular momentum in pseudopotentials (lmaxx) =  3
               file C.pbe-n-kjpaw_psl.0.1.UPF: wavefunction(s)  2P renormalized
               file N.pbe-n-kjpaw_psl.0.1.UPF: wavefunction(s)  2P renormalized
               file H.pbe-kjpaw_psl.0.1.UPF: wavefunction(s)  1S renormalized
               file O.pbe-n-kjpaw_psl.0.1.UPF: wavefunction(s)  2P renormalized

     -------------------------------------
     Parameters for Dispersion Correction:
     -------------------------------------
       atom      VdW radius       C_6     

        C          2.744         60.710
        N          2.640         42.670
        H          1.892          4.857
        O          2.536         24.284

     Subspace diagonalization in iterative solution of the eigenvalue problem:
     a serial algorithm will be used

 
     Parallelization info
     --------------------
     sticks:   dense  smooth     PW     G-vecs:    dense   smooth      PW
     Min         577     577    156                45049    45049    6361
     Max         579     579    157                45050    45050    6363
     Sum        4621    4621   1249               360395   360395   50899
 


     bravais-lattice index     =            0
     lattice parameter (alat)  =       7.1564  a.u.
     unit-cell volume          =    2667.7059 (a.u.)^3
     number of atoms/cell      =           40
     number of atomic types    =            4
     number of electrons       =       120.00
     number of Kohn-Sham states=           72
     kinetic-energy cutoff     =     100.0000  Ry
     charge density cutoff     =     400.0000  Ry
     convergence threshold     =      1.0E-08
     mixing beta               =       0.5000
     number of iterations used =            8  plain     mixing
     Exchange-correlation      =  SLA  PW   PBX  PBC ( 1  4  3  4 0 0)

     celldm(1)=   7.156393  celldm(2)=   0.000000  celldm(3)=   0.000000
     celldm(4)=   0.000000  celldm(5)=   0.000000  celldm(6)=   0.000000

     crystal axes: (cart. coord. in units of alat)
               a(1) = (   1.000000   0.000000   0.000000 )  
               a(2) = (   0.000000   2.836414   0.000000 )  
               a(3) = (  -0.062761   0.000000   2.566172 )  

     reciprocal axes: (cart. coord. in units 2 pi/alat)
               b(1) = (  1.000000  0.000000  0.024457 )  
               b(2) = (  0.000000  0.352558  0.000000 )  
               b(3) = (  0.000000  0.000000  0.389685 )  


     PseudoPot. # 1 for  C read from file:
     /scratch/ahofstet/pseudo/C.pbe-n-kjpaw_psl.0.1.UPF
     MD5 check sum: 430fe95172b1e11ef3f8ed03bac87931
     Pseudo is Projector augmented-wave + core cor, Zval =  4.0
     Generated using "atomic" code by A. Dal Corso  v.5.0.99 svn rev. 10869
     Shape of augmentation charge: BESSEL
     Using radial grid of 1073 points,  4 beta functions with: 
                l(1) =   0
                l(2) =   0
                l(3) =   1
                l(4) =   1
     Q(r) pseudized with 0 coefficients 


     PseudoPot. # 2 for  N read from file:
     /scratch/ahofstet/pseudo/N.pbe-n-kjpaw_psl.0.1.UPF
     MD5 check sum: f73187c8b701007e77325f868c9291d7
     Pseudo is Projector augmented-wave + core cor, Zval =  5.0
     Generated using "atomic" code by A. Dal Corso  v.5.0.99 svn rev. 10869
     Shape of augmentation charge: PSQ
     Using radial grid of 1085 points,  4 beta functions with: 
                l(1) =   0
                l(2) =   0
                l(3) =   1
                l(4) =   1
     Q(r) pseudized with 0 coefficients 


     PseudoPot. # 3 for  H read from file:
     /scratch/ahofstet/pseudo/H.pbe-kjpaw_psl.0.1.UPF
     MD5 check sum: 94e484f906d9e9773b2f6e52662335b2
     Pseudo is Projector augmented-wave, Zval =  1.0
     Generated using "atomic" code by A. Dal Corso  v.5.0.99 svn rev. 10869
     Shape of augmentation charge: PSQ
     Using radial grid of  929 points,  2 beta functions with: 
                l(1) =   0
                l(2) =   0
     Q(r) pseudized with 0 coefficients 


     PseudoPot. # 4 for  O read from file:
     /scratch/ahofstet/pseudo/O.pbe-n-kjpaw_psl.0.1.UPF
     MD5 check sum: 3f94a2996a3169367d6eb21d9b593f20
     Pseudo is Projector augmented-wave + core cor, Zval =  6.0
     Generated using "atomic" code by A. Dal Corso  v.5.0.99 svn rev. 10869
     Shape of augmentation charge: BESSEL
     Using radial grid of 1095 points,  4 beta functions with: 
                l(1) =   0
                l(2) =   0
                l(3) =   1
                l(4) =   1
     Q(r) pseudized with 0 coefficients 


     atomic species   valence    mass     pseudopotential
        C              4.00    12.01070      C( 1.00)
        N              5.00    14.00670      N( 1.00)
        H              1.00     1.00794      H( 1.00)
        O              6.00    15.99940      O( 1.00)

      2 Sym. Ops., with inversion, found
          (note:  2 additional sym.ops. were found but ignored
           their fractional translations are incommensurate with FFT grid)


   Cartesian axes

     site n.     atom                  positions (alat units)
         1           N   tau(   1) = (   0.8141914   2.5337229   0.9342776  )
         2           N   tau(   2) = (   0.6544282   1.1155158   0.3488085  )
         3           N   tau(   3) = (   0.1230479   0.3026912   1.6318946  )
         4           N   tau(   4) = (   0.2828110   1.7208982   2.2173637  )
         5           N   tau(   5) = (   0.6745682   2.2863969   0.7130160  )
         6           N   tau(   6) = (   0.7940514   0.8681899   0.5700701  )
         7           N   tau(   7) = (   0.2626711   0.5500171   1.8531562  )
         8           N   tau(   8) = (   0.1431878   1.9682241   1.9961021  )
         9           C   tau(   9) = (   0.8355232   2.2181033   0.4001517  )
        10           C   tau(  10) = (   0.6330964   0.7998963   0.8829344  )
        11           C   tau(  11) = (   0.1017161   0.6183107   2.1660205  )
        12           C   tau(  12) = (   0.3041429   2.0365177   1.6832378  )
        13           C   tau(  13) = (   0.1331699   2.3733967   0.2942218  )
        14           C   tau(  14) = (   0.3354497   0.9551897   0.9888643  )
        15           C   tau(  15) = (   0.8040694   0.4630173   2.2719504  )
        16           C   tau(  16) = (   0.6017896   1.8812243   1.5773079  )
        17           C   tau(  17) = (   0.3260284   2.5603824   0.5582790  )
        18           C   tau(  18) = (   0.1425912   1.1421754   0.7248071  )
        19           C   tau(  19) = (   0.6112109   0.2760316   2.0078932  )
        20           C   tau(  20) = (   0.7946481   1.6942387   1.8413650  )
        21           C   tau(  21) = (   0.1195859   2.6693290   0.8616536  )
        22           C   tau(  22) = (   0.3490337   1.2511220   0.4214324  )
        23           C   tau(  23) = (   0.8176534   0.1670850   1.7045185  )
        24           C   tau(  24) = (   0.5882056   1.5852920   2.1447397  )
        25           H   tau(  25) = (   0.6740207   2.0716374   0.2156109  )
        26           H   tau(  26) = (   0.7945990   0.6534304   1.0674752  )
        27           H   tau(  27) = (   0.2632186   0.7647767   2.3505613  )
        28           H   tau(  28) = (   0.1426403   2.1829837   1.4986970  )
        29           H   tau(  29) = (   0.2274727   2.3320334   0.0270831  )
        30           H   tau(  30) = (   0.2411469   0.9138264   1.2560029  )
        31           H   tau(  31) = (   0.7097666   0.5043807   2.5390890  )
        32           H   tau(  32) = (   0.6960923   1.9225877   1.3101692  )
        33           H   tau(  33) = (   0.5025238  -0.0728737   0.4597139  )
        34           H   tau(  34) = (  -0.0339042   1.3453333   0.8233722  )
        35           H   tau(  35) = (   0.4347155   2.9092877   2.1064583  )
        36           H   tau(  36) = (   0.9711435   1.4910807   1.7428000  )
        37           H   tau(  37) = (   0.2048937   0.0436019   1.0370861  )
        38           H   tau(  38) = (   0.2637259   1.4618089   0.2459999  )
        39           H   tau(  39) = (   0.7323456   2.7928122   1.5290860  )
        40           H   tau(  40) = (   0.6735133   1.3746052   2.3201722  )

     number of k points=    12
                       cart. coord. in units 2pi/alat
        k(    1) = (   0.0000000   0.0000000   0.0000000), wk =   0.1000000
        k(    2) = (   0.0000000   0.0000000  -0.1948427), wk =   0.1000000
        k(    3) = (   0.0000000  -0.1762789   0.0000000), wk =   0.1000000
        k(    4) = (   0.0000000  -0.1762789  -0.1948427), wk =   0.1000000
        k(    5) = (   0.2000000   0.0000000   0.0048914), wk =   0.2000000
        k(    6) = (   0.2000000   0.0000000  -0.1899513), wk =   0.2000000
        k(    7) = (   0.2000000  -0.1762789   0.0048914), wk =   0.2000000
        k(    8) = (   0.2000000  -0.1762789  -0.1899513), wk =   0.2000000
        k(    9) = (   0.4000000   0.0000000   0.0097828), wk =   0.2000000
        k(   10) = (   0.4000000   0.0000000  -0.1850600), wk =   0.2000000
        k(   11) = (   0.4000000  -0.1762789   0.0097828), wk =   0.2000000
        k(   12) = (   0.4000000  -0.1762789  -0.1850600), wk =   0.2000000

     Dense  grid:   360395 G-vectors     FFT dimensions: (  45, 135, 120)

     Estimated max dynamical RAM per process >     178.30MB

     Estimated total allocated dynamical RAM >    1426.42MB

     Check: negative/imaginary core charge=   -0.000002    0.000000

     Initial potential from superposition of free atoms

     starting charge  119.99912, renormalised to  120.00000
     Starting wfc are  112 randomized atomic wfcs
     Checking if some PAW data can be deallocated... 

     total cpu time spent up to now is       12.3 secs

     per-process dynamical memory:   178.1 Mb

     Self-consistent Calculation

     iteration #  1     ecut=   100.00 Ry     beta=0.50
     Davidson diagonalization with overlap
     ethr =  1.00E-02,  avg # of iterations =  3.3

     total cpu time spent up to now is       36.1 secs

     total energy              =    -538.49858914 Ry
     Harris-Foulkes estimate   =    -540.38583955 Ry
     estimated scf accuracy    <       3.80205239 Ry

     iteration #  2     ecut=   100.00 Ry     beta=0.50
     Davidson diagonalization with overlap
     ethr =  3.17E-03,  avg # of iterations =  1.0

     total cpu time spent up to now is       47.9 secs

     total energy              =    -538.37452870 Ry
     Harris-Foulkes estimate   =    -538.69935579 Ry
     estimated scf accuracy    <       0.60002041 Ry

     iteration #  3     ecut=   100.00 Ry     beta=0.50
     Davidson diagonalization with overlap
     ethr =  5.00E-04,  avg # of iterations =  5.0

     total cpu time spent up to now is       74.8 secs

     total energy              =    -538.98933059 Ry
     Harris-Foulkes estimate   =    -539.22198617 Ry
     estimated scf accuracy    <       0.79544344 Ry

     iteration #  4     ecut=   100.00 Ry     beta=0.50
     Davidson diagonalization with overlap
     ethr =  5.00E-04,  avg # of iterations =  1.1

     total cpu time spent up to now is       86.4 secs

     total energy              =    -538.70628566 Ry
     Harris-Foulkes estimate   =    -539.00271112 Ry
     estimated scf accuracy    <       0.39438787 Ry

     iteration #  5     ecut=   100.00 Ry     beta=0.50
     Davidson diagonalization with overlap
     ethr =  3.29E-04,  avg # of iterations =  5.1

     total cpu time spent up to now is      110.2 secs

     total energy              =    -538.88075304 Ry
     Harris-Foulkes estimate   =    -539.12614065 Ry
     estimated scf accuracy    <       0.51775595 Ry

     iteration #  6     ecut=   100.00 Ry     beta=0.50
     Davidson diagonalization with overlap
     ethr =  3.29E-04,  avg # of iterations =  1.0

     total cpu time spent up to now is      121.8 secs

     total energy              =    -538.86179487 Ry
     Harris-Foulkes estimate   =    -538.90528978 Ry
     estimated scf accuracy    <       0.12084561 Ry

     iteration #  7     ecut=   100.00 Ry     beta=0.50
     Davidson diagonalization with overlap
     ethr =  1.01E-04,  avg # of iterations =  5.3

     total cpu time spent up to now is      143.9 secs

     total energy              =    -538.94447907 Ry
     Harris-Foulkes estimate   =    -538.94815912 Ry
     estimated scf accuracy    <       0.00851308 Ry

     iteration #  8     ecut=   100.00 Ry     beta=0.50
     Davidson diagonalization with overlap
     ethr =  7.09E-06,  avg # of iterations =  3.1

     total cpu time spent up to now is      156.5 secs

     total energy              =    -538.94416385 Ry
     Harris-Foulkes estimate   =    -538.94508202 Ry
     estimated scf accuracy    <       0.00195276 Ry

     iteration #  9     ecut=   100.00 Ry     beta=0.50
     Davidson diagonalization with overlap
     ethr =  1.63E-06,  avg # of iterations =  6.2

     total cpu time spent up to now is      181.0 secs

     total energy              =    -538.94578654 Ry
     Harris-Foulkes estimate   =    -538.94594521 Ry
     estimated scf accuracy    <       0.00054962 Ry

     iteration # 10     ecut=   100.00 Ry     beta=0.50
     Davidson diagonalization with overlap
     ethr =  4.58E-07,  avg # of iterations =  1.0

     total cpu time spent up to now is      192.7 secs

     total energy              =    -538.94567684 Ry
     Harris-Foulkes estimate   =    -538.94580275 Ry
     estimated scf accuracy    <       0.00024568 Ry

     iteration # 11     ecut=   100.00 Ry     beta=0.50
     Davidson diagonalization with overlap
     ethr =  2.05E-07,  avg # of iterations =  3.7

     total cpu time spent up to now is      210.6 secs

     total energy              =    -538.94575723 Ry
     Harris-Foulkes estimate   =    -538.94576130 Ry
     estimated scf accuracy    <       0.00000872 Ry

     iteration # 12     ecut=   100.00 Ry     beta=0.50
     Davidson diagonalization with overlap
     ethr =  7.27E-09,  avg # of iterations =  3.8

     total cpu time spent up to now is      231.2 secs

     total energy              =    -538.94576084 Ry
     Harris-Foulkes estimate   =    -538.94576127 Ry
     estimated scf accuracy    <       0.00000144 Ry

     iteration # 13     ecut=   100.00 Ry     beta=0.50
     Davidson diagonalization with overlap
     ethr =  1.20E-09,  avg # of iterations =  4.2

     total cpu time spent up to now is      247.8 secs

     total energy              =    -538.94576094 Ry
     Harris-Foulkes estimate   =    -538.94576127 Ry
     estimated scf accuracy    <       0.00000125 Ry

     iteration # 14     ecut=   100.00 Ry     beta=0.50
     Davidson diagonalization with overlap
     ethr =  1.04E-09,  avg # of iterations =  1.0

     total cpu time spent up to now is      259.5 secs

     total energy              =    -538.94576076 Ry
     Harris-Foulkes estimate   =    -538.94576099 Ry
     estimated scf accuracy    <       0.00000064 Ry

     iteration # 15     ecut=   100.00 Ry     beta=0.50
     Davidson diagonalization with overlap
     ethr =  5.34E-10,  avg # of iterations =  3.0

     total cpu time spent up to now is      275.0 secs

     total energy              =    -538.94576086 Ry
     Harris-Foulkes estimate   =    -538.94576088 Ry
     estimated scf accuracy    <       0.00000008 Ry

     iteration # 16     ecut=   100.00 Ry     beta=0.50
     Davidson diagonalization with overlap
     ethr =  6.76E-11,  avg # of iterations =  4.0

     total cpu time spent up to now is      294.0 secs

     total energy              =    -538.94576087 Ry
     Harris-Foulkes estimate   =    -538.94576089 Ry
     estimated scf accuracy    <       0.00000002 Ry

     iteration # 17     ecut=   100.00 Ry     beta=0.50
     Davidson diagonalization with overlap
     ethr =  2.07E-11,  avg # of iterations =  4.0

     total cpu time spent up to now is      314.0 secs

     End of self-consistent calculation

          k = 0.0000 0.0000 0.0000 ( 45105 PWs)   bands (ev):

   -19.4324 -19.4153 -19.4145 -19.4069 -14.6939 -14.6233 -14.6159 -14.5848
   -13.1436 -13.1066 -13.1036 -13.0729 -10.6108 -10.6088 -10.5971 -10.5784
    -9.0925  -9.0041  -8.9920  -8.9746  -7.1225  -6.9204  -6.8500  -6.8397
    -6.3735  -6.3612  -6.3493  -6.3355  -5.1136  -5.1064  -5.0652  -4.8526
    -4.7556  -4.5648  -4.5523  -4.2950  -3.9536  -3.7848  -3.7618  -3.6637
    -3.3605  -3.3038  -3.0841  -2.8935  -2.0353  -1.8208  -1.7454  -1.7320
    -0.8343  -0.8334  -0.7704  -0.7419  -0.3815  -0.1851  -0.0908  -0.0777
     0.6449   0.6874   0.7679   0.7807   4.3240   4.3381   4.4480   4.7450
     5.9655   6.0557   6.1116   6.3065   6.3130   6.5813   7.2571   7.3635

          k = 0.0000 0.0000-0.1948 ( 45082 PWs)   bands (ev):

   -19.4235 -19.4235 -19.4111 -19.4111 -14.6576 -14.6576 -14.6017 -14.6017
   -13.1113 -13.1113 -13.1023 -13.1023 -10.6119 -10.6119 -10.5852 -10.5852
    -9.0432  -9.0432  -8.9887  -8.9887  -7.0083  -7.0083  -6.8592  -6.8591
    -6.3750  -6.3750  -6.3351  -6.3351  -5.0844  -5.0844  -4.9919  -4.9919
    -4.7153  -4.7153  -4.3857  -4.3857  -3.8469  -3.8469  -3.7776  -3.7776
    -3.2061  -3.2061  -3.0274  -3.0273  -1.9200  -1.9200  -1.7631  -1.7631
    -0.8372  -0.8372  -0.7283  -0.7282  -0.3636  -0.3636  -0.0367  -0.0367
     0.6524   0.6524   0.7878   0.7878   4.3898   4.3898   4.5197   4.5197
     6.1118   6.1118   6.2197   6.2197   6.3764   6.3764   7.2792   7.2792

          k = 0.0000-0.1763 0.0000 ( 45064 PWs)   bands (ev):

   -19.4263 -19.4263 -19.4082 -19.4082 -14.6686 -14.6686 -14.5904 -14.5904
   -13.1321 -13.1321 -13.0812 -13.0812 -10.6114 -10.6114 -10.5865 -10.5865
    -9.0579  -9.0579  -8.9731  -8.9731  -7.0395  -7.0395  -6.8314  -6.8314
    -6.3618  -6.3618  -6.3498  -6.3498  -5.0985  -5.0985  -4.9556  -4.9556
    -4.6816  -4.6816  -4.4250  -4.4250  -3.8862  -3.8862  -3.6934  -3.6933
    -3.3326  -3.3326  -2.9814  -2.9814  -1.9281  -1.9281  -1.7318  -1.7318
    -0.8017  -0.8017  -0.7901  -0.7901  -0.2931  -0.2931  -0.0778  -0.0778
     0.6654   0.6654   0.7753   0.7753   4.3039   4.3039   4.6214   4.6214
     6.0807   6.0807   6.1902   6.1902   6.3479   6.3479   7.3636   7.3636

          k = 0.0000-0.1763-0.1948 ( 45060 PWs)   bands (ev):

   -19.4230 -19.4230 -19.4116 -19.4116 -14.6555 -14.6555 -14.6038 -14.6038
   -13.1111 -13.1111 -13.1024 -13.1024 -10.6108 -10.6108 -10.5866 -10.5866
    -9.0360  -9.0360  -8.9953  -8.9953  -6.9904  -6.9904  -6.8812  -6.8812
    -6.3699  -6.3699  -6.3436  -6.3436  -5.0964  -5.0964  -4.9520  -4.9520
    -4.6696  -4.6696  -4.4671  -4.4671  -3.8235  -3.8235  -3.7967  -3.7967
    -3.1947  -3.1947  -3.0308  -3.0308  -1.8931  -1.8931  -1.7861  -1.7861
    -0.7991  -0.7991  -0.7678  -0.7678  -0.3567  -0.3567  -0.0458  -0.0458
     0.6625   0.6625   0.7772   0.7772   4.4423   4.4423   4.4637   4.4637
     6.1656   6.1656   6.1823   6.1823   6.4086   6.4086   7.1662   7.1662

          k = 0.2000 0.0000 0.0049 ( 45086 PWs)   bands (ev):

   -19.3046 -19.2892 -19.2887 -19.2815 -14.6585 -14.6080 -14.5863 -14.5695
   -13.5691 -13.5466 -13.5309 -13.5116 -10.2756 -10.2590 -10.2482 -10.2301
    -9.4911  -9.4506  -9.4235  -9.3913  -7.0525  -6.8433  -6.8361  -6.7889
    -6.1588  -6.1408  -6.0862  -6.0782  -5.1962  -5.1631  -5.1138  -4.9289
    -4.2794  -4.2733  -4.1787  -4.1273  -4.0667  -4.0539  -4.0397  -3.9937
    -3.5597  -3.3955  -3.2810  -3.0131  -1.8052  -1.6110  -1.5835  -1.4324
    -0.9905  -0.9859  -0.9078  -0.8534  -0.0672  -0.0578   0.1034   0.1742
     0.6983   0.7968   0.8106   0.8806   4.4981   4.6488   4.6738   4.7851
     5.3077   5.3146   5.4655   5.5588   6.6153   6.8162   7.5725   7.5878

          k = 0.2000 0.0000-0.1900 ( 45091 PWs)   bands (ev):

   -19.2978 -19.2960 -19.2854 -19.2849 -14.6409 -14.6273 -14.5798 -14.5741
   -13.5572 -13.5439 -13.5313 -13.5266 -10.3080 -10.2447 -10.2425 -10.2166
    -9.4543  -9.4535  -9.4442  -9.4038  -7.0444  -6.8738  -6.8615  -6.7362
    -6.1655  -6.1250  -6.0971  -6.0740  -5.1996  -5.1355  -5.0905  -4.9810
    -4.4425  -4.2328  -4.2087  -4.0888  -4.0746  -4.0614  -3.9906  -3.9784
    -3.4325  -3.3852  -3.2034  -3.1532  -1.8354  -1.6070  -1.5182  -1.4812
    -0.9997  -0.9572  -0.9132  -0.8371  -0.1266  -0.0938   0.1350   0.1929
     0.6874   0.7946   0.8127   0.8965   4.4808   4.6306   4.6898   4.8068
     5.3513   5.3690   5.3961   5.5316   6.7150   6.7748   7.5415   7.5811

          k = 0.2000-0.1763 0.0049 ( 45036 PWs)   bands (ev):

   -19.2992 -19.2992 -19.2828 -19.2828 -14.6382 -14.6382 -14.5730 -14.5730
   -13.5602 -13.5602 -13.5189 -13.5189 -10.2635 -10.2635 -10.2433 -10.2433
    -9.4745  -9.4745  -9.4033  -9.4033  -6.9733  -6.9733  -6.7904  -6.7904
    -6.1473  -6.1473  -6.0870  -6.0870  -5.1790  -5.1790  -5.0074  -5.0074
    -4.2886  -4.2886  -4.1686  -4.1686  -4.0509  -4.0509  -4.0071  -4.0071
    -3.5169  -3.5169  -3.1121  -3.1121  -1.7277  -1.7277  -1.4812  -1.4812
    -0.9925  -0.9925  -0.8732  -0.8732  -0.0656  -0.0656   0.1331   0.1331
     0.7350   0.7350   0.8576   0.8576   4.5538   4.5538   4.7683   4.7683
     5.3013   5.3013   5.4986   5.4986   6.7024   6.7024   7.6046   7.6046

          k = 0.2000-0.1763-0.1900 ( 45104 PWs)   bands (ev):

   -19.2965 -19.2965 -19.2855 -19.2855 -14.6332 -14.6332 -14.5779 -14.5779
   -13.5501 -13.5501 -13.5293 -13.5293 -10.2836 -10.2836 -10.2227 -10.2227
    -9.4577  -9.4577  -9.4197  -9.4197  -6.9798  -6.9798  -6.7815  -6.7815
    -6.1475  -6.1475  -6.0864  -6.0864  -5.1374  -5.1374  -5.0561  -5.0561
    -4.3578  -4.3578  -4.1428  -4.1428  -4.0345  -4.0345  -4.0132  -4.0132
    -3.4080  -3.4080  -3.1781  -3.1781  -1.7207  -1.7207  -1.4964  -1.4964
    -0.9810  -0.9810  -0.8687  -0.8687  -0.1068  -0.1068   0.1579   0.1579
     0.7218   0.7218   0.8702   0.8702   4.5593   4.5593   4.7535   4.7535
     5.3586   5.3587   5.4527   5.4527   6.7558   6.7558   7.5052   7.5052

          k = 0.4000 0.0000 0.0098 ( 45023 PWs)   bands (ev):

   -19.0643 -19.0576 -19.0522 -19.0490 -14.8544 -14.8437 -14.8097 -14.8081
   -13.8514 -13.8233 -13.8175 -13.8057 -10.1744 -10.1564 -10.1442 -10.1306
    -9.7189  -9.6862  -9.6644  -9.6581  -6.6218  -6.4953  -6.4723  -6.4563
    -5.8997  -5.8354  -5.8094  -5.7748  -5.7689  -5.7196  -5.6948  -5.6810
    -4.8693  -4.7965  -4.7464  -4.6869  -3.8483  -3.7596  -3.5196  -3.5165
    -2.9231  -2.8752  -2.8267  -2.7733  -1.6508  -1.5087  -1.4889  -1.3651
    -1.0960  -1.0136  -0.9723  -0.8613   0.0846   0.1341   0.2750   0.3452
     1.0442   1.2484   1.2859   1.3686   3.7357   3.9417   4.0323   4.0555
     5.3662   5.3908   5.4312   5.5402   7.3667   7.4735   8.0804   8.2733

          k = 0.4000 0.0000-0.1851 ( 44994 PWs)   bands (ev):

   -19.0626 -19.0590 -19.0514 -19.0501 -14.8602 -14.8416 -14.8087 -14.8056
   -13.8405 -13.8297 -13.8208 -13.8063 -10.1838 -10.1650 -10.1500 -10.1095
    -9.7263  -9.6923  -9.6737  -9.6319  -6.6643  -6.5139  -6.4869  -6.3596
    -5.9107  -5.8572  -5.8439  -5.7745  -5.7501  -5.6992  -5.6866  -5.6591
    -4.8967  -4.8675  -4.7185  -4.6292  -3.8734  -3.7246  -3.5952  -3.4882
    -2.9548  -2.8382  -2.8148  -2.7872  -1.5839  -1.5365  -1.4120  -1.3777
    -1.1043  -1.0870  -0.9917  -0.8292   0.0417   0.1470   0.2797   0.3547
     1.0948   1.2348   1.2574   1.3622   3.7380   3.9173   4.0274   4.0733
     5.3507   5.4253   5.4404   5.5187   7.3361   7.5248   7.9804   8.2394

          k = 0.4000-0.1763 0.0098 ( 45028 PWs)   bands (ev):

   -19.0614 -19.0614 -19.0502 -19.0502 -14.8488 -14.8488 -14.8091 -14.8091
   -13.8404 -13.8404 -13.8086 -13.8086 -10.1607 -10.1607 -10.1425 -10.1425
    -9.7053  -9.7053  -9.6581  -9.6581  -6.5709  -6.5709  -6.4528  -6.4528
    -5.8779  -5.8779  -5.7862  -5.7862  -5.7442  -5.7442  -5.6828  -5.6828
    -4.8308  -4.8308  -4.7227  -4.7227  -3.8000  -3.8000  -3.5181  -3.5181
    -2.8779  -2.8779  -2.8197  -2.8197  -1.6196  -1.6196  -1.3894  -1.3893
    -1.0573  -1.0573  -0.9146  -0.9146   0.1111   0.1111   0.3100   0.3100
     1.1398   1.1398   1.3298   1.3298   3.8607   3.8607   4.0117   4.0117
     5.3835   5.3835   5.4981   5.4981   7.4144   7.4144   8.1844   8.1844

          k = 0.4000-0.1763-0.1851 ( 45008 PWs)   bands (ev):

   -19.0607 -19.0607 -19.0508 -19.0508 -14.8513 -14.8513 -14.8067 -14.8067
   -13.8355 -13.8355 -13.8132 -13.8132 -10.1718 -10.1718 -10.1331 -10.1331
    -9.7152  -9.7152  -9.6460  -9.6460  -6.6094  -6.6094  -6.4051  -6.4051
    -5.8837  -5.8837  -5.8154  -5.8154  -5.7342  -5.7342  -5.6553  -5.6553
    -4.8861  -4.8861  -4.6721  -4.6721  -3.8083  -3.8083  -3.5319  -3.5319
    -2.9034  -2.9034  -2.7910  -2.7910  -1.5653  -1.5653  -1.3905  -1.3905
    -1.1041  -1.1041  -0.9065  -0.9065   0.0998   0.0998   0.3182   0.3182
     1.1581   1.1581   1.3104   1.3104   3.8604   3.8604   4.0066   4.0066
     5.4068   5.4068   5.4804   5.4804   7.3985   7.3985   8.2368   8.2368

     highest occupied, lowest unoccupied level (ev):     1.3686    3.7357

!    total energy              =    -538.94576088 Ry
     Harris-Foulkes estimate   =    -538.94576089 Ry
     estimated scf accuracy    <          9.7E-09 Ry

     total all-electron energy =     -2113.561723 Ry

     The total energy is the sum of the following terms:

     one-electron contribution =    -332.47452844 Ry
     hartree contribution      =     210.81553699 Ry
     xc contribution           =    -121.16091695 Ry
     ewald contribution        =    -123.20607322 Ry
     Dispersion Correction     =      -0.18068727 Ry
     one-center paw contrib.   =    -172.73909199 Ry

     convergence has been achieved in  17 iterations

     Forces acting on atoms (cartesian axes, Ry/au):

     atom    1 type  2   force =     0.02482783    0.00285000    0.02877278
     atom    2 type  2   force =    -0.02482880    0.00285052   -0.02877282
     atom    3 type  2   force =    -0.02482783   -0.00285000   -0.02877278
     atom    4 type  2   force =     0.02482880   -0.00285052    0.02877282
     atom    5 type  2   force =    -0.04762145    0.02183172    0.01339889
     atom    6 type  2   force =     0.04762092    0.02183251   -0.01339901
     atom    7 type  2   force =     0.04762145   -0.02183172   -0.01339889
     atom    8 type  2   force =    -0.04762092   -0.02183251    0.01339901
     atom    9 type  1   force =    -0.00616660   -0.01557625   -0.02958525
     atom   10 type  1   force =     0.00615888   -0.01557579    0.02958530
     atom   11 type  1   force =     0.00616660    0.01557625    0.02958525
     atom   12 type  1   force =    -0.00615888    0.01557579   -0.02958530
     atom   13 type  1   force =     0.00257671   -0.00799293   -0.01576751
     atom   14 type  1   force =    -0.00257597   -0.00799307    0.01576745
     atom   15 type  1   force =    -0.00257671    0.00799293    0.01576751
     atom   16 type  1   force =     0.00257597    0.00799307   -0.01576745
     atom   17 type  1   force =     0.03015187   -0.00621618    0.00419597
     atom   18 type  1   force =    -0.03013307   -0.00621480   -0.00419490
     atom   19 type  1   force =    -0.03015187    0.00621618   -0.00419597
     atom   20 type  1   force =     0.03013307    0.00621480    0.00419490
     atom   21 type  1   force =    -0.01901236    0.00049865    0.00709596
     atom   22 type  1   force =     0.01900804    0.00049803   -0.00709667
     atom   23 type  1   force =     0.01901236   -0.00049865   -0.00709596
     atom   24 type  1   force =    -0.01900804   -0.00049803    0.00709667
     atom   25 type  3   force =    -0.00270482   -0.01619543   -0.00324825
     atom   26 type  3   force =     0.00270545   -0.01619558    0.00324862
     atom   27 type  3   force =     0.00270482    0.01619543    0.00324825
     atom   28 type  3   force =    -0.00270545    0.01619558   -0.00324862
     atom   29 type  3   force =     0.00401657    0.00294461   -0.00429556
     atom   30 type  3   force =    -0.00401696    0.00294465    0.00429562
     atom   31 type  3   force =    -0.00401657   -0.00294461    0.00429556
     atom   32 type  3   force =     0.00401696   -0.00294465   -0.00429562
     atom   33 type  3   force =     0.00586479    0.01498467   -0.00484799
     atom   34 type  3   force =    -0.00586480    0.01498457    0.00484779
     atom   35 type  3   force =    -0.00586479   -0.01498467    0.00484799
     atom   36 type  3   force =     0.00586480   -0.01498457   -0.00484779
     atom   37 type  3   force =     0.00895307    0.00007720    0.00388317
     atom   38 type  3   force =    -0.00895318    0.00007701   -0.00388289
     atom   39 type  3   force =    -0.00895307   -0.00007720   -0.00388317
     atom   40 type  3   force =     0.00895318   -0.00007701    0.00388289

     Total force =     0.178093     Total SCF correction =     0.000241


     Computing stress (Cartesian axis) and pressure

          total   stress  (Ry/bohr**3)                   (kbar)     P=   57.11
   0.00084867   0.00000000  -0.00002887        124.84      0.00     -4.25
   0.00000000   0.00005500  -0.00000000          0.00      8.09     -0.00
  -0.00002887  -0.00000000   0.00026104         -4.25     -0.00     38.40


     Writing output data file scf.save
 
     init_run     :     11.37s CPU     11.67s WALL (       1 calls)
     electrons    :    295.62s CPU    301.71s WALL (       1 calls)
     forces       :      5.68s CPU      5.71s WALL (       1 calls)
     stress       :     14.71s CPU     14.73s WALL (       1 calls)

     Called by init_run:
     wfcinit      :      6.88s CPU      7.15s WALL (       1 calls)
     potinit      :      1.60s CPU      1.61s WALL (       1 calls)

     Called by electrons:
     c_bands      :    258.79s CPU    264.22s WALL (      17 calls)
     sum_band     :     31.16s CPU     31.71s WALL (      17 calls)
     v_of_rho     :      0.85s CPU      0.91s WALL (      18 calls)
     newd         :      1.74s CPU      1.77s WALL (      18 calls)
     PAW_pot      :      2.81s CPU      2.81s WALL (      18 calls)
     mix_rho      :      0.21s CPU      0.22s WALL (      17 calls)

     Called by c_bands:
     init_us_2    :      2.40s CPU      2.41s WALL (     444 calls)
     cegterg      :    249.79s CPU    255.12s WALL (     204 calls)

     Called by sum_band:
     sum_band:bec :      0.03s CPU      0.03s WALL (     204 calls)
     addusdens    :      1.79s CPU      1.84s WALL (      17 calls)

     Called by *egterg:
     h_psi        :    160.27s CPU    163.44s WALL (     885 calls)
     s_psi        :     20.88s CPU     20.89s WALL (     885 calls)
     g_psi        :      1.02s CPU      1.02s WALL (     669 calls)
     cdiaghg      :     11.32s CPU     11.33s WALL (     873 calls)

     Called by h_psi:
     h_psi:pot    :    159.30s CPU    162.45s WALL (     885 calls)
     h_psi:calbec :     22.17s CPU     22.26s WALL (     885 calls)
     vloc_psi     :    116.39s CPU    119.44s WALL (     885 calls)
     add_vuspsi   :     20.74s CPU     20.75s WALL (     885 calls)

     General routines
     calbec       :     34.33s CPU     34.46s WALL (    1149 calls)
     fft          :      1.03s CPU      1.14s WALL (     258 calls)
     fftw         :    126.32s CPU    129.62s WALL (  104056 calls)
 
     Parallel routines
     fft_scatter  :     37.82s CPU     39.70s WALL (  104314 calls)
 
     PWSCF        :  5m30.69s CPU     5m38.56s WALL

 
   This run was terminated on:   5:57:14   5Dec2017            

=------------------------------------------------------------------------------=
   JOB DONE.
=------------------------------------------------------------------------------=
