
     Program PWSCF v.6.1 (svn rev. 13369) starts on  4Nov2017 at  6:11:39 

     This program is part of the open-source Quantum ESPRESSO suite
     for quantum simulation of materials; please cite
         "P. Giannozzi et al., J. Phys.:Condens. Matter 21 395502 (2009);
          URL http://www.quantum-espresso.org", 
     in publications or presentations arising from this work. More details at
     http://www.quantum-espresso.org/quote

     Parallel version (MPI), running on     8 processors
     R & G space division:  proc/nbgrp/npool/nimage =       8
     Waiting for input...
     Reading input from standard input

     Current dimensions of program PWSCF are:
     Max number of different atomic species (ntypx) = 10
     Max number of k-points (npk) =  40000
     Max angular momentum in pseudopotentials (lmaxx) =  3
               file C.pbe-n-kjpaw_psl.0.1.UPF: wavefunction(s)  2P renormalized
               file N.pbe-n-kjpaw_psl.0.1.UPF: wavefunction(s)  2P renormalized
               file H.pbe-kjpaw_psl.0.1.UPF: wavefunction(s)  1S renormalized
               file O.pbe-n-kjpaw_psl.0.1.UPF: wavefunction(s)  2P renormalized

     -------------------------------------
     Parameters for Dispersion Correction:
     -------------------------------------
       atom      VdW radius       C_6     

        C          2.744         60.710
        N          2.640         42.670
        H          1.892          4.857
        O          2.536         24.284

     Subspace diagonalization in iterative solution of the eigenvalue problem:
     a serial algorithm will be used

 
     Parallelization info
     --------------------
     sticks:   dense  smooth     PW     G-vecs:    dense   smooth      PW
     Min        1263    1263    340               149209   149209   20723
     Max        1264    1264    341               149214   149214   20727
     Sum       10105   10105   2725              1193679  1193679  165803
 


     bravais-lattice index     =            0
     lattice parameter (alat)  =      42.6398  a.u.
     unit-cell volume          =    8834.6479 (a.u.)^3
     number of atoms/cell      =          152
     number of atomic types    =            4
     number of electrons       =       464.00
     number of Kohn-Sham states=          278
     kinetic-energy cutoff     =     100.0000  Ry
     charge density cutoff     =     400.0000  Ry
     convergence threshold     =      1.0E-08
     mixing beta               =       0.5000
     number of iterations used =            8  plain     mixing
     Exchange-correlation      =  SLA  PW   PBX  PBC ( 1  4  3  4 0 0)

     celldm(1)=  42.639780  celldm(2)=   0.000000  celldm(3)=   0.000000
     celldm(4)=   0.000000  celldm(5)=   0.000000  celldm(6)=   0.000000

     crystal axes: (cart. coord. in units of alat)
               a(1) = (   1.000000   0.000000   0.000000 )  
               a(2) = (   0.000000   0.174614   0.000000 )  
               a(3) = (  -0.162597   0.000000   0.652626 )  

     reciprocal axes: (cart. coord. in units 2 pi/alat)
               b(1) = (  1.000000  0.000000  0.249143 )  
               b(2) = (  0.000000  5.726904  0.000000 )  
               b(3) = (  0.000000  0.000000  1.532272 )  


     PseudoPot. # 1 for  C read from file:
     /scratch/ahofstet/pseudo/C.pbe-n-kjpaw_psl.0.1.UPF
     MD5 check sum: 430fe95172b1e11ef3f8ed03bac87931
     Pseudo is Projector augmented-wave + core cor, Zval =  4.0
     Generated using "atomic" code by A. Dal Corso  v.5.0.99 svn rev. 10869
     Shape of augmentation charge: BESSEL
     Using radial grid of 1073 points,  4 beta functions with: 
                l(1) =   0
                l(2) =   0
                l(3) =   1
                l(4) =   1
     Q(r) pseudized with 0 coefficients 


     PseudoPot. # 2 for  N read from file:
     /scratch/ahofstet/pseudo/N.pbe-n-kjpaw_psl.0.1.UPF
     MD5 check sum: f73187c8b701007e77325f868c9291d7
     Pseudo is Projector augmented-wave + core cor, Zval =  5.0
     Generated using "atomic" code by A. Dal Corso  v.5.0.99 svn rev. 10869
     Shape of augmentation charge: PSQ
     Using radial grid of 1085 points,  4 beta functions with: 
                l(1) =   0
                l(2) =   0
                l(3) =   1
                l(4) =   1
     Q(r) pseudized with 0 coefficients 


     PseudoPot. # 3 for  H read from file:
     /scratch/ahofstet/pseudo/H.pbe-kjpaw_psl.0.1.UPF
     MD5 check sum: 94e484f906d9e9773b2f6e52662335b2
     Pseudo is Projector augmented-wave, Zval =  1.0
     Generated using "atomic" code by A. Dal Corso  v.5.0.99 svn rev. 10869
     Shape of augmentation charge: PSQ
     Using radial grid of  929 points,  2 beta functions with: 
                l(1) =   0
                l(2) =   0
     Q(r) pseudized with 0 coefficients 


     PseudoPot. # 4 for  O read from file:
     /scratch/ahofstet/pseudo/O.pbe-n-kjpaw_psl.0.1.UPF
     MD5 check sum: 3f94a2996a3169367d6eb21d9b593f20
     Pseudo is Projector augmented-wave + core cor, Zval =  6.0
     Generated using "atomic" code by A. Dal Corso  v.5.0.99 svn rev. 10869
     Shape of augmentation charge: BESSEL
     Using radial grid of 1095 points,  4 beta functions with: 
                l(1) =   0
                l(2) =   0
                l(3) =   1
                l(4) =   1
     Q(r) pseudized with 0 coefficients 


     atomic species   valence    mass     pseudopotential
        C              4.00    12.01070      C( 1.00)
        N              5.00    14.00670      N( 1.00)
        H              1.00     1.00794      H( 1.00)
        O              6.00    15.99940      O( 1.00)

      2 Sym. Ops., with inversion, found



   Cartesian axes

     site n.     atom                  positions (alat units)
         1           O   tau(   1) = (  -0.0553287   0.0424740   0.5429720  )
         2           O   tau(   2) = (   0.4446708   0.1297756   0.5429751  )
         3           O   tau(   3) = (   0.0259847   0.1321510   0.2166717  )
         4           O   tau(   4) = (   0.5259673   0.0448305   0.2166560  )
         5           O   tau(   5) = (   0.8927317   0.1321405   0.1096538  )
         6           O   tau(   6) = (   0.3927323   0.0448389   0.1096507  )
         7           O   tau(   7) = (   0.8114184   0.0424634   0.4359541  )
         8           O   tau(   8) = (   0.3114358   0.1297839   0.4359698  )
         9           O   tau(   9) = (  -0.1035539   0.1178698   0.5859636  )
        10           O   tau(  10) = (   0.3964342   0.2051805   0.5859729  )
        11           O   tau(  11) = (  -0.0222565   0.0567431   0.2596447  )
        12           O   tau(  12) = (   0.4777382  -0.0305614   0.2596640  )
        13           O   tau(  13) = (   0.9409570   0.0567447   0.0666622  )
        14           O   tau(  14) = (   0.4409689  -0.0305661   0.0666529  )
        15           O   tau(  15) = (   0.8596596   0.1178713   0.3929811  )
        16           O   tau(  16) = (   0.3596649   0.2051759   0.3929618  )
        17           N   tau(  17) = (   0.0358678   0.0458640   0.1415823  )
        18           N   tau(  18) = (   0.5358686   0.1331634   0.1415917  )
        19           N   tau(  19) = (  -0.0454377   0.1287591   0.4679042  )
        20           N   tau(  20) = (   0.4545777   0.0414433   0.4679060  )
        21           N   tau(  21) = (   0.8015352   0.1287504   0.5110435  )
        22           N   tau(  22) = (   0.3015345   0.0414510   0.5110341  )
        23           N   tau(  23) = (   0.8828408   0.0458553   0.1847216  )
        24           N   tau(  24) = (   0.3828254   0.1331712   0.1847198  )
        25           N   tau(  25) = (   0.1333858   0.1308686   0.1514352  )
        26           N   tau(  26) = (   0.6333912   0.0435547   0.1514157  )
        27           N   tau(  27) = (   0.0520904   0.0437541   0.4777480  )
        28           N   tau(  28) = (   0.5520969   0.1310581   0.4777450  )
        29           N   tau(  29) = (   0.7040173   0.0437458   0.5011906  )
        30           N   tau(  30) = (   0.2040119   0.1310597   0.5012101  )
        31           N   tau(  31) = (   0.7853127   0.1308603   0.1748778  )
        32           N   tau(  32) = (   0.2853062   0.0435563   0.1748808  )
        33           C   tau(  33) = (  -0.0564306   0.0478198   0.6475716  )
        34           C   tau(  34) = (   0.4435796   0.1351374   0.6475527  )
        35           C   tau(  35) = (   0.0248623   0.1268006   0.3212428  )
        36           C   tau(  36) = (   0.5248751   0.0394830   0.3212497  )
        37           C   tau(  37) = (   0.8938337   0.1267946   0.0050542  )
        38           C   tau(  38) = (   0.3938235   0.0394771   0.0050731  )
        39           C   tau(  39) = (   0.8125408   0.0478138   0.3313829  )
        40           C   tau(  40) = (   0.3125280   0.1351315   0.3313761  )
        41           C   tau(  41) = (   0.0843010   0.0733027   0.0472648  )
        42           C   tau(  42) = (   0.5843067   0.1606271   0.0472503  )
        43           C   tau(  43) = (   0.0030019   0.1013067   0.3735710  )
        44           C   tau(  44) = (   0.5030114   0.0139956   0.3735804  )
        45           C   tau(  45) = (   0.7531021   0.1013117   0.6053610  )
        46           C   tau(  46) = (   0.2530964   0.0139874   0.6053755  )
        47           C   tau(  47) = (   0.8344012   0.0733077   0.2790548  )
        48           C   tau(  48) = (   0.3343917   0.1606188   0.2790454  )
        49           C   tau(  49) = (   0.0869997   0.0399622   0.1015454  )
        50           C   tau(  50) = (   0.5869883   0.1272643   0.1015230  )
        51           C   tau(  51) = (   0.0056831   0.1346573   0.4278403  )
        52           C   tau(  52) = (   0.5057069   0.0473350   0.4278525  )
        53           C   tau(  53) = (   0.7504034   0.1346523   0.5510804  )
        54           C   tau(  54) = (   0.2504148   0.0473501   0.5511028  )
        55           C   tau(  55) = (   0.8317200   0.0399571   0.2247855  )
        56           C   tau(  56) = (   0.3316962   0.1272794   0.2247733  )
        57           C   tau(  57) = (   0.1239022   0.1654722   0.1040061  )
        58           C   tau(  58) = (   0.6239083   0.0781722   0.1039950  )
        59           C   tau(  59) = (   0.0426190   0.0091308   0.4303177  )
        60           C   tau(  60) = (   0.5426062   0.0964461   0.4303159  )
        61           C   tau(  61) = (   0.7135009   0.0091422   0.5486197  )
        62           C   tau(  62) = (   0.2134948   0.0964423   0.5486308  )
        63           C   tau(  63) = (   0.7947841   0.1654836   0.2223081  )
        64           C   tau(  64) = (   0.2947969   0.0781683   0.2223099  )
        65           C   tau(  65) = (   0.1490193   0.1428773   0.0498981  )
        66           C   tau(  66) = (   0.6490143   0.0555664   0.0498910  )
        67           C   tau(  67) = (   0.0677213   0.0317396   0.3762167  )
        68           C   tau(  68) = (   0.5677116   0.1190452   0.3762174  )
        69           C   tau(  69) = (   0.6883838   0.0317371   0.6027277  )
        70           C   tau(  70) = (   0.1883888   0.1190480   0.6027348  )
        71           C   tau(  71) = (   0.7696818   0.1428748   0.2764091  )
        72           C   tau(  72) = (   0.2696915   0.0555693   0.2764084  )
        73           C   tau(  73) = (  -0.0203881  -0.0005138   0.6501345  )
        74           C   tau(  74) = (   0.4796212   0.0868051   0.6501322  )
        75           C   tau(  75) = (   0.0609176   0.1751273   0.3238236  )
        76           C   tau(  76) = (   0.5609064   0.0878205   0.3238239  )
        77           C   tau(  77) = (   0.8577912   0.1751282   0.0024913  )
        78           C   tau(  78) = (   0.3577819   0.0878094   0.0024936  )
        79           C   tau(  79) = (   0.7764855  -0.0005129   0.3288022  )
        80           C   tau(  80) = (   0.2764967   0.0867939   0.3288019  )
        81           C   tau(  81) = (  -0.0725666   0.0719695   0.5891008  )
        82           C   tau(  82) = (   0.4274160   0.1592757   0.5890934  )
        83           C   tau(  83) = (   0.0087198   0.1026543   0.2627806  )
        84           C   tau(  84) = (   0.5087184   0.0153417   0.2627876  )
        85           C   tau(  85) = (   0.9099697   0.1026449   0.0635250  )
        86           C   tau(  86) = (   0.4099871   0.0153388   0.0635324  )
        87           C   tau(  87) = (   0.8286833   0.0719601   0.3898452  )
        88           C   tau(  88) = (   0.3286847   0.1592728   0.3898382  )
        89           H   tau(  89) = (   0.0482013   0.1051436   0.0427708  )
        90           H   tau(  90) = (   0.5482034   0.1924615   0.0427803  )
        91           H   tau(  91) = (  -0.0330950   0.0694657   0.3690879  )
        92           H   tau(  92) = (   0.4669071  -0.0178416   0.3690965  )
        93           H   tau(  93) = (   0.7892018   0.0694708   0.6098550  )
        94           H   tau(  94) = (   0.2891997  -0.0178470   0.6098455  )
        95           H   tau(  95) = (   0.8704981   0.1051487   0.2835379  )
        96           H   tau(  96) = (   0.3704959   0.1924560   0.2835293  )
        97           H   tau(  97) = (  -0.0034054   0.0458272   0.1158432  )
        98           H   tau(  98) = (   0.4965923   0.1331201   0.1158388  )
        99           H   tau(  99) = (  -0.0847098   0.1287903   0.4421509  )
       100           H   tau( 100) = (   0.4153053   0.0414845   0.4421562  )
       101           H   tau( 101) = (   0.8408085   0.1287872   0.5367826  )
       102           H   tau( 102) = (   0.3408108   0.0414943   0.5367870  )
       103           H   tau( 103) = (   0.9221129   0.0458241   0.2104749  )
       104           H   tau( 104) = (   0.4220978   0.1331299   0.2104696  )
       105           H   tau( 105) = (   0.0319425   0.1869287   0.1734212  )
       106           H   tau( 106) = (   0.5319571   0.0996036   0.1734342  )
       107           H   tau( 107) = (  -0.0493603  -0.0123033   0.4997476  )
       108           H   tau( 108) = (   0.4506545   0.0749952   0.4997364  )
       109           H   tau( 109) = (   0.8054606  -0.0123143   0.4792046  )
       110           H   tau( 110) = (   0.3054460   0.0750108   0.4791916  )
       111           H   tau( 111) = (   0.8867634   0.1869178   0.1528782  )
       112           H   tau( 112) = (   0.3867486   0.0996192   0.1528894  )
       113           H   tau( 113) = (   0.0334586   0.0851070   0.1677885  )
       114           H   tau( 114) = (   0.5334726   0.1724228   0.1677904  )
       115           H   tau( 115) = (  -0.0478323   0.0894935   0.4941007  )
       116           H   tau( 116) = (   0.4521650   0.0021922   0.4941050  )
       117           H   tau( 117) = (   0.8039445   0.0895074   0.4848373  )
       118           H   tau( 118) = (   0.3039305   0.0021917   0.4848354  )
       119           H   tau( 119) = (   0.8852354   0.0851210   0.1585251  )
       120           H   tau( 120) = (   0.3852380   0.1724222   0.1585208  )
       121           H   tau( 121) = (   0.1070054   0.1382802   0.1877162  )
       122           H   tau( 122) = (   0.6070242   0.0509890   0.1876969  )
       123           H   tau( 123) = (   0.0257072   0.0363241   0.5140246  )
       124           H   tau( 124) = (   0.5257225   0.1236299   0.5140339  )
       125           H   tau( 125) = (   0.7303977   0.0363343   0.4649096  )
       126           H   tau( 126) = (   0.2303789   0.1236255   0.4649289  )
       127           H   tau( 127) = (   0.8116959   0.1382903   0.1386012  )
       128           H   tau( 128) = (   0.3116806   0.0509845   0.1385919  )
       129           H   tau( 129) = (   0.1344000   0.0856682   0.1385833  )
       130           H   tau( 130) = (   0.6344093  -0.0016506   0.1385724  )
       131           H   tau( 131) = (   0.0531031   0.0889466   0.4648974  )
       132           H   tau( 132) = (   0.5531069   0.1762529   0.4648938  )
       133           H   tau( 133) = (   0.7030031   0.0889462   0.5140425  )
       134           H   tau( 134) = (   0.2029938   0.1762650   0.5140534  )
       135           H   tau( 135) = (   0.7843000   0.0856679   0.1877284  )
       136           H   tau( 136) = (   0.2842962  -0.0016385   0.1877320  )
       137           H   tau( 137) = (   0.1842174   0.1101601   0.0539530  )
       138           H   tau( 138) = (   0.6842323   0.0228689   0.0539377  )
       139           H   tau( 139) = (   0.1029237   0.0644558   0.3802576  )
       140           H   tau( 140) = (   0.6029293   0.1517524   0.3802586  )
       141           H   tau( 141) = (   0.6531856   0.0644543   0.5986728  )
       142           H   tau( 142) = (   0.1531708   0.1517456   0.5986881  )
       143           H   tau( 143) = (   0.7344794   0.1101586   0.2723682  )
       144           H   tau( 144) = (   0.2344737   0.0228620   0.2723672  )
       145           H   tau( 145) = (  -0.0005723  -0.0163856   0.6091959  )
       146           H   tau( 146) = (   0.4994437   0.0709274   0.6092047  )
       147           H   tau( 147) = (   0.0807328   0.1909951   0.2828871  )
       148           H   tau( 148) = (   0.5807183   0.1036867   0.2828886  )
       149           H   tau( 149) = (   0.8379754   0.1910001   0.0434298  )
       150           H   tau( 150) = (   0.3379594   0.1036870   0.0434211  )
       151           H   tau( 151) = (   0.7566703  -0.0163807   0.3697387  )
       152           H   tau( 152) = (   0.2566848   0.0709277   0.3697372  )

     number of k points=     6
                       cart. coord. in units 2pi/alat
        k(    1) = (   0.0000000   0.0000000   0.0000000), wk =   0.2000000
        k(    2) = (   0.0000000   0.0000000  -0.7661358), wk =   0.2000000
        k(    3) = (   0.0000000   1.1453807   0.0000000), wk =   0.4000000
        k(    4) = (   0.0000000   1.1453807  -0.7661358), wk =   0.4000000
        k(    5) = (   0.0000000   2.2907614   0.0000000), wk =   0.4000000
        k(    6) = (   0.0000000   2.2907614  -0.7661358), wk =   0.4000000

     Dense  grid:  1193679 G-vectors     FFT dimensions: ( 288,  48, 192)

     Estimated max dynamical RAM per process >    1553.94MB

     Estimated total allocated dynamical RAM >   12431.54MB

     Check: negative/imaginary core charge=   -0.000002    0.000000

     Initial potential from superposition of free atoms

     starting charge  463.99692, renormalised to  464.00000
     Starting wfc are  416 randomized atomic wfcs
     Checking if some PAW data can be deallocated... 

     total cpu time spent up to now is       96.4 secs

     per-process dynamical memory:   957.0 Mb

     Self-consistent Calculation

     iteration #  1     ecut=   100.00 Ry     beta=0.50
     Davidson diagonalization with overlap
     ethr =  1.00E-02,  avg # of iterations =  3.3

     total cpu time spent up to now is      390.5 secs

     total energy              =   -2223.35666129 Ry
     Harris-Foulkes estimate   =   -2232.02124892 Ry
     estimated scf accuracy    <      16.06697267 Ry

     iteration #  2     ecut=   100.00 Ry     beta=0.50
     Davidson diagonalization with overlap
     ethr =  3.46E-03,  avg # of iterations =  2.3

     total cpu time spent up to now is      549.8 secs

     total energy              =   -2225.12100622 Ry
     Harris-Foulkes estimate   =   -2225.88372634 Ry
     estimated scf accuracy    <       1.71987695 Ry

     iteration #  3     ecut=   100.00 Ry     beta=0.50
     Davidson diagonalization with overlap
     ethr =  3.71E-04,  avg # of iterations =  5.0

     total cpu time spent up to now is      889.6 secs

     total energy              =   -2226.16363545 Ry
     Harris-Foulkes estimate   =   -2226.59626607 Ry
     estimated scf accuracy    <       1.03836741 Ry

     iteration #  4     ecut=   100.00 Ry     beta=0.50
     Davidson diagonalization with overlap
     ethr =  2.24E-04,  avg # of iterations =  7.7

     total cpu time spent up to now is     1054.0 secs

     total energy              =   -2226.18148207 Ry
     Harris-Foulkes estimate   =   -2226.28042239 Ry
     estimated scf accuracy    <       0.20008071 Ry

     iteration #  5     ecut=   100.00 Ry     beta=0.50
     Davidson diagonalization with overlap
     ethr =  4.31E-05,  avg # of iterations =  8.0

     total cpu time spent up to now is     1397.8 secs

     total energy              =   -2226.29447965 Ry
     Harris-Foulkes estimate   =   -2226.37199970 Ry
     estimated scf accuracy    <       0.22110380 Ry

     iteration #  6     ecut=   100.00 Ry     beta=0.50
     Davidson diagonalization with overlap
     ethr =  4.31E-05,  avg # of iterations =  1.5

     total cpu time spent up to now is     1536.0 secs

     total energy              =   -2226.28057744 Ry
     Harris-Foulkes estimate   =   -2226.31098049 Ry
     estimated scf accuracy    <       0.06308225 Ry

     iteration #  7     ecut=   100.00 Ry     beta=0.50
     Davidson diagonalization with overlap
     ethr =  1.36E-05,  avg # of iterations =  7.8

     total cpu time spent up to now is     1857.1 secs

     total energy              =   -2226.30917919 Ry
     Harris-Foulkes estimate   =   -2226.31179008 Ry
     estimated scf accuracy    <       0.00843387 Ry

     iteration #  8     ecut=   100.00 Ry     beta=0.50
     Davidson diagonalization with overlap
     ethr =  1.82E-06,  avg # of iterations =  2.0

     total cpu time spent up to now is     1997.1 secs

     total energy              =   -2226.30838551 Ry
     Harris-Foulkes estimate   =   -2226.30968000 Ry
     estimated scf accuracy    <       0.00268402 Ry

     iteration #  9     ecut=   100.00 Ry     beta=0.50
     Davidson diagonalization with overlap
     ethr =  5.78E-07,  avg # of iterations =  5.8

     total cpu time spent up to now is     2267.4 secs

     total energy              =   -2226.30982817 Ry
     Harris-Foulkes estimate   =   -2226.31002415 Ry
     estimated scf accuracy    <       0.00085950 Ry

     iteration # 10     ecut=   100.00 Ry     beta=0.50
     Davidson diagonalization with overlap
     ethr =  1.85E-07,  avg # of iterations =  1.3

     total cpu time spent up to now is     2404.9 secs

     total energy              =   -2226.30961635 Ry
     Harris-Foulkes estimate   =   -2226.30985617 Ry
     estimated scf accuracy    <       0.00043458 Ry

     iteration # 11     ecut=   100.00 Ry     beta=0.50
     Davidson diagonalization with overlap
     ethr =  9.37E-08,  avg # of iterations =  3.8

     total cpu time spent up to now is     2650.6 secs

     total energy              =   -2226.30979960 Ry
     Harris-Foulkes estimate   =   -2226.30983258 Ry
     estimated scf accuracy    <       0.00010678 Ry

     iteration # 12     ecut=   100.00 Ry     beta=0.50
     Davidson diagonalization with overlap
     ethr =  2.30E-08,  avg # of iterations =  1.0

     total cpu time spent up to now is     2787.2 secs

     total energy              =   -2226.30978495 Ry
     Harris-Foulkes estimate   =   -2226.30980395 Ry
     estimated scf accuracy    <       0.00004413 Ry

     iteration # 13     ecut=   100.00 Ry     beta=0.50
     Davidson diagonalization with overlap
     ethr =  9.51E-09,  avg # of iterations =  4.0

     total cpu time spent up to now is     3029.6 secs

     total energy              =   -2226.30980267 Ry
     Harris-Foulkes estimate   =   -2226.30980304 Ry
     estimated scf accuracy    <       0.00000259 Ry

     iteration # 14     ecut=   100.00 Ry     beta=0.50
     Davidson diagonalization with overlap
     ethr =  5.57E-10,  avg # of iterations =  2.3

     total cpu time spent up to now is     3177.0 secs

     total energy              =   -2226.30980197 Ry
     Harris-Foulkes estimate   =   -2226.30980294 Ry
     estimated scf accuracy    <       0.00000189 Ry

     iteration # 15     ecut=   100.00 Ry     beta=0.50
     Davidson diagonalization with overlap
     ethr =  4.07E-10,  avg # of iterations =  3.7

     total cpu time spent up to now is     3369.4 secs

     total energy              =   -2226.30980243 Ry
     Harris-Foulkes estimate   =   -2226.30980244 Ry
     estimated scf accuracy    <       0.00000007 Ry

     iteration # 16     ecut=   100.00 Ry     beta=0.50
     Davidson diagonalization with overlap
     ethr =  1.43E-11,  avg # of iterations =  4.0

     total cpu time spent up to now is     3659.7 secs

     total energy              =   -2226.30980245 Ry
     Harris-Foulkes estimate   =   -2226.30980248 Ry
     estimated scf accuracy    <       0.00000006 Ry

     iteration # 17     ecut=   100.00 Ry     beta=0.50
     Davidson diagonalization with overlap
     ethr =  1.19E-11,  avg # of iterations =  2.5

     total cpu time spent up to now is     3801.6 secs

     End of self-consistent calculation

          k = 0.0000 0.0000 0.0000 (149077 PWs)   bands (ev):

   -19.3212 -19.3199 -19.3089 -19.3076 -19.2635 -19.2623 -19.2621 -19.2608
   -17.3768 -17.3733 -17.3290 -17.3253 -17.2568 -17.2522 -17.1939 -17.1890
   -16.6718 -16.6703 -16.6400 -16.6385 -16.6099 -16.6061 -16.5767 -16.5727
   -15.7929 -15.7834 -15.7705 -15.7606 -15.6954 -15.6894 -15.6869 -15.6810
   -14.1331 -14.1310 -14.1237 -14.1218 -14.0642 -14.0632 -14.0514 -14.0502
   -11.3679 -11.3672 -11.3148 -11.3141 -11.1175 -11.1144 -11.1135 -11.1095
   -10.7246 -10.7203 -10.7181 -10.7150 -10.6995 -10.6901 -10.6785 -10.6690
    -8.7711  -8.7706  -8.7045  -8.7040  -8.6594  -8.6564  -8.6167  -8.6138
    -8.1649  -8.1584  -8.1175  -8.1114  -8.0665  -8.0600  -7.9498  -7.9446
    -7.4094  -7.4052  -7.3252  -7.3236  -6.7503  -6.7485  -6.6643  -6.6606
    -6.5568  -6.5441  -6.4299  -6.4266  -6.2706  -6.2651  -6.0223  -6.0178
    -5.9882  -5.9832  -5.9789  -5.9714  -5.9325  -5.9277  -5.7890  -5.7849
    -5.5916  -5.5893  -5.5130  -5.5103  -5.2628  -5.2584  -5.2038  -5.1990
    -5.1431  -5.1427  -5.1382  -5.1368  -5.0614  -5.0577  -4.9755  -4.9745
    -4.9476  -4.9328  -4.8641  -4.8469  -4.5899  -4.5872  -4.4574  -4.4548
    -4.3638  -4.3556  -4.2327  -4.2259  -4.1337  -4.1181  -4.0757  -4.0633
    -3.9920  -3.9751  -3.9217  -3.9042  -3.9017  -3.8830  -3.8180  -3.7950
    -3.6633  -3.6609  -3.6120  -3.6011  -3.5230  -3.5195  -3.4644  -3.4626
    -3.0600  -3.0547  -3.0000  -2.9991  -2.9265  -2.9234  -2.7417  -2.7358
    -2.6759  -2.6732  -2.6422  -2.6398  -2.5094  -2.4849  -2.3383  -2.3351
    -2.0890  -2.0839  -2.0709  -2.0514  -2.0490  -2.0324  -1.9179  -1.8959
    -1.8780  -1.8560  -1.8027  -1.7724  -1.7083  -1.6816  -1.6626  -1.6260
    -1.4413  -1.4284  -1.4206  -1.4138  -1.3963  -1.3833  -1.2799  -1.2764
    -0.6077  -0.5933  -0.5736  -0.5571  -0.4712  -0.4519  -0.4398  -0.4275
    -0.2397  -0.2026  -0.1740  -0.1569  -0.1420  -0.1081  -0.1043  -0.1031
     0.4337   0.4393   0.4452   0.4821   0.4922   0.5027   0.5033   0.5347
     0.6295   0.6395   0.6445   0.6647   0.6860   0.6909   0.7063   0.7156
     0.9737   0.9806   1.1732   1.1794   1.2956   1.2994   1.3475   1.3639
     1.5723   1.6039   1.6212   1.6288   1.6416   1.6541   1.6688   1.6952
     5.1395   5.1896   5.2123   5.2303   5.2617   5.2953   5.3166   5.3873
     6.3538   6.4320   6.4984   6.5869   6.6239   6.6247   6.9846   7.0149
     7.1226   7.1270   7.1764   7.2077   7.2361   7.2643   7.5609   7.6025
     7.7539   7.7717   7.8054   7.8512   7.8957   7.9433   7.9564   8.2737
     8.3135   8.3527   8.5101   8.6230   8.7007   8.7540   8.7612   8.8323
     9.1040   9.1579   9.1588   9.2548   9.3195   9.4226

          k = 0.0000 0.0000-0.7661 (149132 PWs)   bands (ev):

   -19.3153 -19.3152 -19.3140 -19.3139 -19.2627 -19.2626 -19.2614 -19.2613
   -17.3536 -17.3536 -17.3501 -17.3501 -17.2263 -17.2263 -17.2216 -17.2216
   -16.6553 -16.6552 -16.6537 -16.6537 -16.5923 -16.5923 -16.5884 -16.5884
   -15.7816 -15.7816 -15.7720 -15.7719 -15.6923 -15.6923 -15.6839 -15.6839
   -14.1010 -14.1004 -14.0986 -14.0986 -14.0880 -14.0874 -14.0857 -14.0856
   -11.2584 -11.2580 -11.2568 -11.2562 -11.2109 -11.2105 -11.2096 -11.2089
   -10.7091 -10.7088 -10.7073 -10.7071 -10.6852 -10.6849 -10.6836 -10.6834
    -8.7168  -8.7159  -8.7146  -8.7145  -8.6556  -8.6548  -8.6533  -8.6530
    -8.1468  -8.1466  -8.1434  -8.1434  -8.0353  -8.0351  -8.0327  -8.0327
    -7.1536  -7.1536  -7.1523  -7.1522  -7.0033  -7.0029  -7.0016  -7.0013
    -6.4384  -6.4378  -6.4330  -6.4328  -6.0572  -6.0565  -6.0557  -6.0556
    -5.9769  -5.9766  -5.9670  -5.9668  -5.8815  -5.8812  -5.8789  -5.8788
    -5.5803  -5.5791  -5.5788  -5.5785  -5.2319  -5.2316  -5.2228  -5.2225
    -5.1570  -5.1569  -5.1551  -5.1550  -5.0992  -5.0992  -5.0956  -5.0955
    -4.7182  -4.7179  -4.7149  -4.7147  -4.5584  -4.5576  -4.5565  -4.5563
    -4.2761  -4.2760  -4.2702  -4.2701  -4.1699  -4.1696  -4.1568  -4.1567
    -3.9339  -3.9336  -3.9258  -3.9256  -3.8902  -3.8900  -3.8811  -3.8809
    -3.6349  -3.6349  -3.6255  -3.6254  -3.4669  -3.4666  -3.4660  -3.4657
    -3.1251  -3.1249  -3.1215  -3.1211  -2.7443  -2.7442  -2.7410  -2.7408
    -2.6210  -2.6210  -2.6181  -2.6180  -2.4698  -2.4697  -2.4652  -2.4650
    -2.0614  -2.0613  -2.0445  -2.0445  -1.9896  -1.9896  -1.9586  -1.9586
    -1.8334  -1.8332  -1.8148  -1.8147  -1.6630  -1.6629  -1.6541  -1.6539
    -1.4533  -1.4528  -1.4295  -1.4292  -1.3609  -1.3605  -1.3521  -1.3519
    -0.5489  -0.5485  -0.5453  -0.5452  -0.4810  -0.4806  -0.4740  -0.4737
    -0.1907  -0.1906  -0.1755  -0.1754  -0.1319  -0.1317  -0.1227  -0.1227
     0.4332   0.4334   0.4631   0.4632   0.5183   0.5185   0.5370   0.5372
     0.6606   0.6607   0.6654   0.6655   0.6953   0.6953   0.7028   0.7029
     1.0429   1.0429   1.0461   1.0461   1.3072   1.3072   1.3137   1.3137
     1.6055   1.6058   1.6272   1.6274   1.6685   1.6688   1.6879   1.6881
     5.1826   5.1827   5.2325   5.2325   5.2677   5.2679   5.3148   5.3151
     6.4406   6.4406   6.5169   6.5171   6.7173   6.7175   6.8260   6.8261
     7.1337   7.1337   7.1436   7.1438   7.5193   7.5194   7.5498   7.5500
     7.7759   7.7761   7.8249   7.8251   7.9251   7.9255   7.9553   7.9558
     8.2708   8.2708   8.4079   8.4079   8.8892   8.8894   8.9085   8.9087
     9.0107   9.0108   9.2364   9.2368   9.4444   9.4446

          k = 0.0000 1.1454 0.0000 (149098 PWs)   bands (ev):

   -19.2503 -19.2491 -19.2398 -19.2386 -19.2023 -19.2011 -19.2007 -19.1995
   -17.2531 -17.2505 -17.2130 -17.2103 -17.1380 -17.1346 -17.0926 -17.0891
   -16.7119 -16.7103 -16.6788 -16.6771 -16.6239 -16.6207 -16.5946 -16.5914
   -15.8566 -15.8482 -15.8403 -15.8317 -15.7980 -15.7904 -15.7888 -15.7811
   -14.0220 -14.0212 -14.0054 -14.0045 -13.9398 -13.9385 -13.9249 -13.9236
   -11.4358 -11.4339 -11.3778 -11.3761 -11.2853 -11.2826 -11.2640 -11.2616
   -11.0922 -11.0867 -11.0744 -11.0688 -11.0230 -11.0200 -11.0065 -11.0035
    -8.8033  -8.8028  -8.7362  -8.7323  -8.6752  -8.6739  -8.6024  -8.5976
    -8.2171  -8.2133  -8.1554  -8.1494  -8.0861  -8.0805  -8.0322  -8.0262
    -7.4564  -7.4540  -7.4210  -7.4180  -6.8090  -6.8037  -6.7016  -6.6976
    -6.6611  -6.6581  -6.6199  -6.6184  -6.3171  -6.3154  -6.1236  -6.1160
    -6.0913  -6.0879  -5.9710  -5.9599  -5.9208  -5.9107  -5.8832  -5.8801
    -5.6735  -5.6716  -5.5847  -5.5834  -5.4082  -5.4010  -5.2982  -5.2921
    -5.2687  -5.2666  -5.1925  -5.1892  -5.0748  -5.0709  -4.9899  -4.9768
    -4.7867  -4.7812  -4.7784  -4.7774  -4.6290  -4.6279  -4.5756  -4.5708
    -4.3484  -4.3448  -4.2792  -4.2709  -4.0346  -4.0317  -3.9758  -3.9747
    -3.7292  -3.7235  -3.6631  -3.6461  -3.6381  -3.6129  -3.5500  -3.5276
    -3.5056  -3.5000  -3.4837  -3.4832  -3.2739  -3.2708  -3.2456  -3.2293
    -3.0940  -3.0906  -3.0261  -3.0221  -3.0177  -3.0170  -2.9190  -2.9084
    -2.8087  -2.8059  -2.7551  -2.7425  -2.4726  -2.4689  -2.3537  -2.3420
    -2.3121  -2.3026  -2.2686  -2.2522  -2.1539  -2.1235  -2.0922  -2.0763
    -2.0298  -2.0164  -1.9902  -1.9580  -1.9021  -1.8922  -1.8778  -1.8558
    -1.3494  -1.3454  -1.3315  -1.2976  -1.2264  -1.2246  -1.2164  -1.1963
    -0.6313  -0.6274  -0.5485  -0.5407  -0.4743  -0.4365  -0.3649  -0.3521
     0.1001   0.1021   0.1056   0.1205   0.2332   0.2462   0.2474   0.2497
     0.3776   0.3940   0.3994   0.4230   0.5678   0.5961   0.7895   0.7956
     0.8245   0.8294   0.9048   0.9407   1.0329   1.0500   1.1089   1.1169
     1.1545   1.1628   1.3397   1.3471   1.4780   1.4877   1.5479   1.5522
     1.7835   1.8221   1.8822   1.9082   2.0542   2.0890   2.0927   2.1263
     5.1082   5.1196   5.1331   5.1371   5.2721   5.2814   5.3327   5.3396
     6.2372   6.2827   6.3494   6.3902   6.5583   6.5813   6.5862   6.6490
     6.9566   6.9669   7.1507   7.1655   7.3416   7.3695   7.5376   7.5704
     7.6346   7.6390   7.7253   7.7855   7.8453   7.9613   8.1173   8.3195
     8.5077   8.5490   8.6010   8.7045   8.8684   8.8949   8.9917   9.0228
     9.1475   9.1902   9.2496   9.4096   9.4273   9.4476

          k = 0.0000 1.1454-0.7661 (149138 PWs)   bands (ev):

   -19.2453 -19.2452 -19.2440 -19.2440 -19.2014 -19.2013 -19.2001 -19.2001
   -17.2337 -17.2336 -17.2310 -17.2310 -17.1158 -17.1158 -17.1123 -17.1123
   -16.6954 -16.6953 -16.6938 -16.6938 -16.6083 -16.6082 -16.6051 -16.6050
   -15.8484 -15.8483 -15.8400 -15.8399 -15.7933 -15.7931 -15.7856 -15.7855
   -13.9835 -13.9828 -13.9816 -13.9814 -13.9657 -13.9650 -13.9637 -13.9636
   -11.3585 -11.3580 -11.3574 -11.3568 -11.3126 -11.3122 -11.3114 -11.3108
   -11.0624 -11.0623 -11.0600 -11.0600 -11.0454 -11.0452 -11.0431 -11.0430
    -8.7595  -8.7589  -8.7565  -8.7564  -8.6563  -8.6557  -8.6533  -8.6531
    -8.1585  -8.1582  -8.1558  -8.1556  -8.0863  -8.0860  -8.0831  -8.0830
    -7.2502  -7.2499  -7.2477  -7.2475  -7.1311  -7.1309  -7.1285  -7.1284
    -6.4430  -6.4425  -6.4368  -6.4365  -6.1337  -6.1332  -6.1320  -6.1317
    -6.0802  -6.0796  -6.0765  -6.0763  -5.9241  -5.9236  -5.9191  -5.9189
    -5.6156  -5.6152  -5.6133  -5.6132  -5.4590  -5.4588  -5.4584  -5.4579
    -5.1888  -5.1884  -5.1851  -5.1850  -5.0976  -5.0972  -5.0959  -5.0956
    -4.6269  -4.6261  -4.6257  -4.6250  -4.5038  -4.5031  -4.5018  -4.5013
    -4.2923  -4.2922  -4.2876  -4.2875  -4.1835  -4.1832  -4.1783  -4.1781
    -3.6883  -3.6881  -3.6871  -3.6870  -3.6192  -3.6191  -3.6141  -3.6140
    -3.4864  -3.4861  -3.4655  -3.4652  -3.3687  -3.3686  -3.3545  -3.3544
    -2.9912  -2.9908  -2.9903  -2.9901  -2.9599  -2.9594  -2.9590  -2.9588
    -2.6823  -2.6822  -2.6805  -2.6802  -2.3991  -2.3989  -2.3980  -2.3976
    -2.2371  -2.2370  -2.2204  -2.2202  -2.1995  -2.1993  -2.1818  -2.1817
    -1.9931  -1.9929  -1.9693  -1.9691  -1.9589  -1.9587  -1.9328  -1.9326
    -1.3236  -1.3231  -1.2975  -1.2970  -1.2276  -1.2271  -1.2001  -1.1997
    -0.5531  -0.5531  -0.5431  -0.5428  -0.4543  -0.4540  -0.4528  -0.4528
     0.1283   0.1285   0.1440   0.1442   0.1733   0.1735   0.1770   0.1771
     0.4731   0.4732   0.4825   0.4826   0.5912   0.5912   0.5978   0.5979
     0.9375   0.9377   0.9472   0.9474   1.0928   1.0929   1.1014   1.1015
     1.2062   1.2063   1.2204   1.2205   1.4845   1.4846   1.4943   1.4943
     1.9505   1.9506   1.9591   1.9591   2.0147   2.0148   2.0238   2.0238
     5.1258   5.1260   5.1321   5.1322   5.2929   5.2930   5.3034   5.3034
     6.3751   6.3753   6.4001   6.4003   6.4818   6.4821   6.5183   6.5185
     7.0569   7.0571   7.0903   7.0904   7.4195   7.4197   7.5217   7.5219
     7.6679   7.6681   7.7718   7.7721   7.9924   7.9929   7.9931   7.9936
     8.5627   8.5628   8.5830   8.5832   8.9476   8.9479   8.9915   8.9918
     9.2319   9.2320   9.3101   9.3103   9.4842   9.4845

          k = 0.0000 2.2908 0.0000 (149332 PWs)   bands (ev):

   -19.1234 -19.1222 -19.1166 -19.1154 -19.0957 -19.0945 -19.0928 -19.0915
   -17.0076 -17.0067 -16.9992 -16.9981 -16.9936 -16.9924 -16.9881 -16.9872
   -16.6616 -16.6600 -16.6426 -16.6407 -16.6298 -16.6282 -16.6280 -16.6267
   -16.0227 -16.0194 -16.0186 -16.0156 -16.0062 -16.0025 -15.9960 -15.9922
   -13.7683 -13.7673 -13.7451 -13.7443 -13.7026 -13.7017 -13.6920 -13.6912
   -11.8185 -11.8150 -11.7888 -11.7882 -11.7837 -11.7835 -11.7739 -11.7712
   -11.4205 -11.4192 -11.3743 -11.3732 -11.2833 -11.2818 -11.2690 -11.2677
    -8.7880  -8.7848  -8.6993  -8.6955  -8.6108  -8.6085  -8.5232  -8.5203
    -8.3743  -8.3683  -8.2869  -8.2805  -8.1719  -8.1713  -8.1425  -8.1420
    -7.4643  -7.4631  -7.4208  -7.4198  -7.0903  -7.0844  -7.0264  -7.0214
    -6.7703  -6.7693  -6.7433  -6.7420  -6.3842  -6.3833  -6.3583  -6.3573
    -6.3379  -6.3291  -6.1882  -6.1863  -6.0750  -6.0691  -6.0266  -6.0230
    -5.6870  -5.6861  -5.6646  -5.6617  -5.5093  -5.5053  -5.4427  -5.4407
    -5.3203  -5.3162  -5.0918  -5.0893  -5.0168  -5.0113  -4.9573  -4.9520
    -4.7084  -4.7073  -4.6666  -4.6632  -4.5726  -4.5700  -4.5686  -4.5681
    -4.2157  -4.2064  -4.1692  -4.1551  -4.0005  -3.9966  -3.9716  -3.9651
    -3.7447  -3.7407  -3.6490  -3.6476  -3.5795  -3.5786  -3.5222  -3.5214
    -3.5069  -3.5057  -3.2465  -3.2413  -3.1953  -3.1929  -3.1601  -3.1583
    -2.9695  -2.9606  -2.9505  -2.9475  -2.8572  -2.8562  -2.8242  -2.8162
    -2.6580  -2.6547  -2.6457  -2.6410  -2.5410  -2.5405  -2.5302  -2.5281
    -2.3650  -2.3457  -2.2600  -2.2521  -2.1940  -2.1865  -2.1841  -2.1780
    -2.1465  -2.1373  -2.1340  -2.1291  -2.0600  -2.0440  -1.9682  -1.9631
    -1.4379  -1.4186  -1.4140  -1.3973  -1.3931  -1.3567  -1.2972  -1.2617
    -0.6319  -0.6048  -0.5994  -0.5701  -0.5131  -0.5034  -0.4640  -0.4553
     0.4222   0.4373   0.5077   0.5092   0.5397   0.5637   0.5713   0.5726
     0.7006   0.7036   0.7877   0.7900   0.8652   0.8737   0.9142   0.9247
     1.1559   1.1653   1.2408   1.2424   1.2666   1.2681   1.3337   1.3377
     1.9707   2.0114   2.0130   2.0292   2.1235   2.1681   2.1736   2.2042
     2.7008   2.7148   2.7359   2.7490   2.8105   2.8250   2.8347   2.8587
     4.6278   4.6948   4.7129   4.7685   4.8281   4.8680   4.8991   4.9307
     5.6928   5.7535   5.7727   5.8376   5.8696   5.8847   5.8981   5.9012
     7.4209   7.4380   7.4408   7.4728   7.4874   7.5536   7.6289   7.6545
     7.8131   7.8520   7.9006   7.9308   8.3094   8.3337   8.5788   8.5907
     8.7536   8.8226   8.8627   8.8843   8.9626   9.0425   9.1157   9.1176
     9.1401   9.1663   9.2930   9.3400   9.4054   9.4650

          k = 0.0000 2.2908-0.7661 (149232 PWs)   bands (ev):

   -19.1203 -19.1202 -19.1191 -19.1189 -19.0940 -19.0939 -19.0928 -19.0927
   -17.0013 -17.0005 -17.0002 -16.9997 -16.9939 -16.9931 -16.9928 -16.9923
   -16.6498 -16.6482 -16.6472 -16.6465 -16.6333 -16.6317 -16.6306 -16.6299
   -16.0217 -16.0213 -16.0179 -16.0176 -16.0006 -16.0002 -15.9969 -15.9967
   -13.7393 -13.7385 -13.7373 -13.7370 -13.7170 -13.7163 -13.7151 -13.7147
   -11.8059 -11.8057 -11.8025 -11.8024 -11.7803 -11.7801 -11.7769 -11.7768
   -11.3613 -11.3607 -11.3595 -11.3591 -11.3114 -11.3108 -11.3096 -11.3091
    -8.7317  -8.7311  -8.7304  -8.7300  -8.6051  -8.6047  -8.6037  -8.6033
    -8.2733  -8.2729  -8.2701  -8.2700  -8.1888  -8.1883  -8.1851  -8.1850
    -7.3431  -7.3427  -7.3409  -7.3409  -7.2537  -7.2533  -7.2513  -7.2512
    -6.5309  -6.5305  -6.5274  -6.5271  -6.3918  -6.3915  -6.3876  -6.3874
    -6.3277  -6.3272  -6.3232  -6.3229  -6.1410  -6.1407  -6.1351  -6.1349
    -5.6218  -5.6215  -5.6202  -5.6200  -5.5320  -5.5311  -5.5305  -5.5302
    -5.2601  -5.2593  -5.2580  -5.2578  -4.9936  -4.9928  -4.9923  -4.9917
    -4.4778  -4.4776  -4.4738  -4.4735  -4.4325  -4.4322  -4.4277  -4.4273
    -4.1930  -4.1926  -4.1908  -4.1908  -4.1745  -4.1737  -4.1736  -4.1731
    -3.7838  -3.7836  -3.7807  -3.7806  -3.6452  -3.6450  -3.6427  -3.6427
    -3.3640  -3.3638  -3.3592  -3.3591  -3.1393  -3.1392  -3.1372  -3.1371
    -2.9384  -2.9382  -2.9290  -2.9289  -2.8203  -2.8201  -2.8087  -2.8085
    -2.6017  -2.6015  -2.5922  -2.5921  -2.5473  -2.5469  -2.5413  -2.5411
    -2.2901  -2.2899  -2.2857  -2.2856  -2.2035  -2.2033  -2.1983  -2.1982
    -2.1040  -2.1039  -2.1005  -2.1001  -2.0381  -2.0381  -2.0332  -2.0331
    -1.4304  -1.4301  -1.4137  -1.4135  -1.3373  -1.3371  -1.3185  -1.3182
    -0.5846  -0.5844  -0.5759  -0.5757  -0.5407  -0.5404  -0.5320  -0.5318
     0.4754   0.4756   0.4790   0.4792   0.5695   0.5696   0.5752   0.5753
     0.7785   0.7787   0.7793   0.7795   0.8494   0.8495   0.8537   0.8538
     1.2093   1.2097   1.2101   1.2102   1.3000   1.3003   1.3022   1.3024
     1.9985   1.9985   2.0193   2.0194   2.1528   2.1529   2.1670   2.1671
     2.7412   2.7414   2.7460   2.7465   2.8126   2.8128   2.8213   2.8217
     4.6722   4.6726   4.7335   4.7340   4.8463   4.8467   4.9134   4.9138
     5.7770   5.7774   5.8060   5.8065   5.8456   5.8461   5.8702   5.8707
     7.4547   7.4557   7.4585   7.4585   7.5626   7.5633   7.5923   7.5928
     7.8382   7.8384   7.8967   7.8968   8.4120   8.4123   8.4396   8.4400
     8.8408   8.8408   8.8843   8.8843   8.9598   8.9599   9.0098   9.0099
     9.2870   9.2873   9.3125   9.3129   9.4739   9.4742

     highest occupied, lowest unoccupied level (ev):     2.8587    4.6278

!    total energy              =   -2226.30980245 Ry
     Harris-Foulkes estimate   =   -2226.30980245 Ry
     estimated scf accuracy    <          5.3E-09 Ry

     total all-electron energy =     -8503.430301 Ry

     The total energy is the sum of the following terms:

     one-electron contribution =   -1587.67594851 Ry
     hartree contribution      =     987.71075715 Ry
     xc contribution           =    -486.37665951 Ry
     ewald contribution        =    -481.90914398 Ry
     Dispersion Correction     =      -0.85456625 Ry
     one-center paw contrib.   =    -657.20424136 Ry

     convergence has been achieved in  17 iterations

     Forces acting on atoms (cartesian axes, Ry/au):

     atom    1 type  4   force =     0.01042956    0.01951406    0.00299245
     atom    2 type  4   force =     0.01026182    0.01962309    0.00281090
     atom    3 type  4   force =     0.01034203   -0.01951707    0.00257840
     atom    4 type  4   force =     0.01032453   -0.01953612    0.00301794
     atom    5 type  4   force =    -0.01042956   -0.01951406   -0.00299245
     atom    6 type  4   force =    -0.01026182   -0.01962309   -0.00281090
     atom    7 type  4   force =    -0.01034203    0.01951707   -0.00257840
     atom    8 type  4   force =    -0.01032453    0.01953612   -0.00301794
     atom    9 type  4   force =    -0.02364171   -0.00580014   -0.00494638
     atom   10 type  4   force =    -0.02369547   -0.00587018   -0.00513525
     atom   11 type  4   force =    -0.02364651    0.00597309   -0.00504119
     atom   12 type  4   force =    -0.02377978    0.00575542   -0.00506611
     atom   13 type  4   force =     0.02364171    0.00580014    0.00494638
     atom   14 type  4   force =     0.02369547    0.00587018    0.00513525
     atom   15 type  4   force =     0.02364651   -0.00597309    0.00504119
     atom   16 type  4   force =     0.02377978   -0.00575542    0.00506611
     atom   17 type  2   force =     0.00663848   -0.00150709   -0.01986823
     atom   18 type  2   force =     0.00668482   -0.00148978   -0.02022273
     atom   19 type  2   force =     0.00673394    0.00125074   -0.02015371
     atom   20 type  2   force =     0.00659845    0.00133651   -0.02031527
     atom   21 type  2   force =    -0.00663848    0.00150709    0.01986823
     atom   22 type  2   force =    -0.00668482    0.00148978    0.02022273
     atom   23 type  2   force =    -0.00673394   -0.00125074    0.02015371
     atom   24 type  2   force =    -0.00659845   -0.00133651    0.02031527
     atom   25 type  2   force =     0.01404541   -0.01257046    0.05351688
     atom   26 type  2   force =     0.01405298   -0.01243919    0.05352998
     atom   27 type  2   force =     0.01393014    0.01203835    0.05338937
     atom   28 type  2   force =     0.01385924    0.01209703    0.05360387
     atom   29 type  2   force =    -0.01404541    0.01257046   -0.05351688
     atom   30 type  2   force =    -0.01405298    0.01243919   -0.05352998
     atom   31 type  2   force =    -0.01393014   -0.01203835   -0.05338937
     atom   32 type  2   force =    -0.01385924   -0.01209703   -0.05360387
     atom   33 type  1   force =     0.00035201    0.01163308   -0.02521093
     atom   34 type  1   force =     0.00017416    0.01162150   -0.02475397
     atom   35 type  1   force =     0.00034513   -0.01169724   -0.02457913
     atom   36 type  1   force =     0.00015797   -0.01163515   -0.02475895
     atom   37 type  1   force =    -0.00035201   -0.01163308    0.02521093
     atom   38 type  1   force =    -0.00017416   -0.01162150    0.02475397
     atom   39 type  1   force =    -0.00034513    0.01169724    0.02457913
     atom   40 type  1   force =    -0.00015797    0.01163515    0.02475895
     atom   41 type  1   force =    -0.05372053   -0.03497808    0.01703884
     atom   42 type  1   force =    -0.05360616   -0.03519511    0.01717716
     atom   43 type  1   force =    -0.05371457    0.03515210    0.01685839
     atom   44 type  1   force =    -0.05365863    0.03489668    0.01675353
     atom   45 type  1   force =     0.05372053    0.03497808   -0.01703884
     atom   46 type  1   force =     0.05360616    0.03519511   -0.01717716
     atom   47 type  1   force =     0.05371457   -0.03515210   -0.01685839
     atom   48 type  1   force =     0.05365863   -0.03489668   -0.01675353
     atom   49 type  1   force =    -0.04986183    0.00776971   -0.04763148
     atom   50 type  1   force =    -0.04971768    0.00779333   -0.04728212
     atom   51 type  1   force =    -0.04954089   -0.00752074   -0.04719258
     atom   52 type  1   force =    -0.04983638   -0.00744422   -0.04722632
     atom   53 type  1   force =     0.04986183   -0.00776971    0.04763148
     atom   54 type  1   force =     0.04971768   -0.00779333    0.04728212
     atom   55 type  1   force =     0.04954089    0.00752074    0.04719258
     atom   56 type  1   force =     0.04983638    0.00744422    0.04722632
     atom   57 type  1   force =     0.02623082   -0.02355106   -0.04031940
     atom   58 type  1   force =     0.02611481   -0.02372431   -0.04032321
     atom   59 type  1   force =     0.02590583    0.02378655   -0.04006185
     atom   60 type  1   force =     0.02619557    0.02357286   -0.04000022
     atom   61 type  1   force =    -0.02623082    0.02355106    0.04031940
     atom   62 type  1   force =    -0.02611481    0.02372431    0.04032321
     atom   63 type  1   force =    -0.02590583   -0.02378655    0.04006185
     atom   64 type  1   force =    -0.02619557   -0.02357286    0.04000022
     atom   65 type  1   force =     0.03961371    0.03511263    0.04258332
     atom   66 type  1   force =     0.03968690    0.03520327    0.04242825
     atom   67 type  1   force =     0.03976570   -0.03521859    0.04226223
     atom   68 type  1   force =     0.03987525   -0.03491522    0.04223362
     atom   69 type  1   force =    -0.03961371   -0.03511263   -0.04258332
     atom   70 type  1   force =    -0.03968690   -0.03520327   -0.04242825
     atom   71 type  1   force =    -0.03976570    0.03521859   -0.04226223
     atom   72 type  1   force =    -0.03987525    0.03491522   -0.04223362
     atom   73 type  1   force =     0.02090541   -0.00882852   -0.01069825
     atom   74 type  1   force =     0.02080169   -0.00882327   -0.01076141
     atom   75 type  1   force =     0.02070235    0.00874332   -0.01068303
     atom   76 type  1   force =     0.02082748    0.00872188   -0.01066258
     atom   77 type  1   force =    -0.02090541    0.00882852    0.01069825
     atom   78 type  1   force =    -0.02080169    0.00882327    0.01076141
     atom   79 type  1   force =    -0.02070235   -0.00874332    0.01068303
     atom   80 type  1   force =    -0.02082748   -0.00872188    0.01066258
     atom   81 type  1   force =    -0.01533442   -0.01425665    0.00461711
     atom   82 type  1   force =    -0.01496165   -0.01421932    0.00468618
     atom   83 type  1   force =    -0.01513208    0.01405399    0.00480514
     atom   84 type  1   force =    -0.01502873    0.01424580    0.00454548
     atom   85 type  1   force =     0.01533442    0.01425665   -0.00461711
     atom   86 type  1   force =     0.01496165    0.01421932   -0.00468618
     atom   87 type  1   force =     0.01513208   -0.01405399   -0.00480514
     atom   88 type  1   force =     0.01502873   -0.01424580   -0.00454548
     atom   89 type  3   force =    -0.00041881   -0.00195025   -0.00170602
     atom   90 type  3   force =    -0.00048528   -0.00189516   -0.00183307
     atom   91 type  3   force =    -0.00048083    0.00189413   -0.00177179
     atom   92 type  3   force =    -0.00042283    0.00196270   -0.00176277
     atom   93 type  3   force =     0.00041881    0.00195025    0.00170602
     atom   94 type  3   force =     0.00048528    0.00189516    0.00183307
     atom   95 type  3   force =     0.00048083   -0.00189413    0.00177179
     atom   96 type  3   force =     0.00042283   -0.00196270    0.00176277
     atom   97 type  3   force =    -0.00202264    0.00194230   -0.00439537
     atom   98 type  3   force =    -0.00187241    0.00197652   -0.00414795
     atom   99 type  3   force =    -0.00195390   -0.00194137   -0.00420991
     atom  100 type  3   force =    -0.00193303   -0.00194984   -0.00426206
     atom  101 type  3   force =     0.00202264   -0.00194230    0.00439537
     atom  102 type  3   force =     0.00187241   -0.00197652    0.00414795
     atom  103 type  3   force =     0.00195390    0.00194137    0.00420991
     atom  104 type  3   force =     0.00193303    0.00194984    0.00426206
     atom  105 type  3   force =     0.00055388   -0.00601123    0.00069651
     atom  106 type  3   force =     0.00053162   -0.00580035    0.00054894
     atom  107 type  3   force =     0.00057418    0.00588965    0.00060247
     atom  108 type  3   force =     0.00055964    0.00607258    0.00078307
     atom  109 type  3   force =    -0.00055388    0.00601123   -0.00069651
     atom  110 type  3   force =    -0.00053162    0.00580035   -0.00054894
     atom  111 type  3   force =    -0.00057418   -0.00588965   -0.00060247
     atom  112 type  3   force =    -0.00055964   -0.00607258   -0.00078307
     atom  113 type  3   force =     0.00074995    0.01001417    0.00228115
     atom  114 type  3   force =     0.00064525    0.00978184    0.00221853
     atom  115 type  3   force =     0.00066086   -0.00969472    0.00219746
     atom  116 type  3   force =     0.00071690   -0.00994500    0.00229610
     atom  117 type  3   force =    -0.00074995   -0.01001417   -0.00228115
     atom  118 type  3   force =    -0.00064525   -0.00978184   -0.00221853
     atom  119 type  3   force =    -0.00066086    0.00969472   -0.00219746
     atom  120 type  3   force =    -0.00071690    0.00994500   -0.00229610
     atom  121 type  3   force =     0.00321513   -0.00473088   -0.00128929
     atom  122 type  3   force =     0.00317825   -0.00483400   -0.00116892
     atom  123 type  3   force =     0.00327013    0.00482987   -0.00131924
     atom  124 type  3   force =     0.00332209    0.00483984   -0.00143619
     atom  125 type  3   force =    -0.00321513    0.00473088    0.00128929
     atom  126 type  3   force =    -0.00317825    0.00483400    0.00116892
     atom  127 type  3   force =    -0.00327013   -0.00482987    0.00131924
     atom  128 type  3   force =    -0.00332209   -0.00483984    0.00143619
     atom  129 type  3   force =     0.01503267    0.03261413    0.02364340
     atom  130 type  3   force =     0.01497118    0.03274734    0.02362117
     atom  131 type  3   force =     0.01501198   -0.03250754    0.02359890
     atom  132 type  3   force =     0.01501512   -0.03247881    0.02361558
     atom  133 type  3   force =    -0.01503267   -0.03261413   -0.02364340
     atom  134 type  3   force =    -0.01497118   -0.03274734   -0.02362117
     atom  135 type  3   force =    -0.01501198    0.03250754   -0.02359890
     atom  136 type  3   force =    -0.01501512    0.03247881   -0.02361558
     atom  137 type  3   force =     0.00161072   -0.00294425    0.00269158
     atom  138 type  3   force =     0.00157435   -0.00297601    0.00272961
     atom  139 type  3   force =     0.00157835    0.00292771    0.00274627
     atom  140 type  3   force =     0.00145681    0.00284689    0.00273622
     atom  141 type  3   force =    -0.00161072    0.00294425   -0.00269158
     atom  142 type  3   force =    -0.00157435    0.00297601   -0.00272961
     atom  143 type  3   force =    -0.00157835   -0.00292771   -0.00274627
     atom  144 type  3   force =    -0.00145681   -0.00284689   -0.00273622
     atom  145 type  3   force =     0.00165373   -0.00332976    0.00249728
     atom  146 type  3   force =     0.00168457   -0.00337159    0.00233730
     atom  147 type  3   force =     0.00170006    0.00341763    0.00242558
     atom  148 type  3   force =     0.00173971    0.00345245    0.00235363
     atom  149 type  3   force =    -0.00165373    0.00332976   -0.00249728
     atom  150 type  3   force =    -0.00168457    0.00337159   -0.00233730
     atom  151 type  3   force =    -0.00170006   -0.00341763   -0.00242558
     atom  152 type  3   force =    -0.00173971   -0.00345245   -0.00235363

     Total force =     0.450176     Total SCF correction =     0.000147


     Computing stress (Cartesian axis) and pressure

          total   stress  (Ry/bohr**3)                   (kbar)     P=   62.33
   0.00022282  -0.00000016   0.00011416         32.78     -0.02     16.79
  -0.00000016   0.00067495  -0.00000009         -0.02     99.29     -0.01
   0.00011416  -0.00000009   0.00037335         16.79     -0.01     54.92


     Writing output data file scf.save
 
     init_run     :     92.36s CPU     95.74s WALL (       1 calls)
     electrons    :   3583.35s CPU   3705.54s WALL (       1 calls)
     forces       :     49.03s CPU     49.41s WALL (       1 calls)
     stress       :    229.54s CPU    230.08s WALL (       1 calls)

     Called by init_run:
     wfcinit      :     78.24s CPU     81.33s WALL (       1 calls)
     potinit      :      4.99s CPU      5.10s WALL (       1 calls)

     Called by electrons:
     c_bands      :   3278.04s CPU   3381.29s WALL (      17 calls)
     sum_band     :    282.04s CPU    298.33s WALL (      17 calls)
     v_of_rho     :      2.97s CPU      3.28s WALL (      18 calls)
     newd         :      9.04s CPU     11.28s WALL (      18 calls)
     PAW_pot      :     10.46s CPU     10.47s WALL (      18 calls)
     mix_rho      :      0.70s CPU      0.77s WALL (      17 calls)

     Called by c_bands:
     init_us_2    :     12.16s CPU     12.24s WALL (     222 calls)
     cegterg      :   3227.84s CPU   3331.01s WALL (     102 calls)

     Called by sum_band:
     sum_band:bec :      0.18s CPU      0.18s WALL (     102 calls)
     addusdens    :      9.01s CPU     11.10s WALL (      17 calls)

     Called by *egterg:
     h_psi        :   1524.60s CPU   1608.24s WALL (     505 calls)
     s_psi        :    451.44s CPU    451.53s WALL (     505 calls)
     g_psi        :      6.44s CPU      6.44s WALL (     397 calls)
     cdiaghg      :    216.04s CPU    216.10s WALL (     499 calls)

     Called by h_psi:
     h_psi:pot    :   1515.82s CPU   1599.32s WALL (     505 calls)
     h_psi:calbec :    435.66s CPU    436.26s WALL (     505 calls)
     vloc_psi     :    627.89s CPU    710.71s WALL (     505 calls)
     add_vuspsi   :    452.27s CPU    452.35s WALL (     505 calls)

     General routines
     calbec       :    624.71s CPU    625.54s WALL (     637 calls)
     fft          :      1.93s CPU      2.46s WALL (     258 calls)
     fftw         :    660.84s CPU    757.36s WALL (  195198 calls)
 
     Parallel routines
     fft_scatter  :    138.81s CPU    233.37s WALL (  195456 calls)
 
     PWSCF        :     1h 6m CPU        1h 8m WALL

 
   This run was terminated on:   7:20:38   4Nov2017            

=------------------------------------------------------------------------------=
   JOB DONE.
=------------------------------------------------------------------------------=
