
     Program PWSCF v.6.1 (svn rev. 13369) starts on  4Nov2017 at  2:38: 3 

     This program is part of the open-source Quantum ESPRESSO suite
     for quantum simulation of materials; please cite
         "P. Giannozzi et al., J. Phys.:Condens. Matter 21 395502 (2009);
          URL http://www.quantum-espresso.org", 
     in publications or presentations arising from this work. More details at
     http://www.quantum-espresso.org/quote

     Parallel version (MPI), running on     8 processors
     R & G space division:  proc/nbgrp/npool/nimage =       8
     Waiting for input...
     Reading input from standard input

     Current dimensions of program PWSCF are:
     Max number of different atomic species (ntypx) = 10
     Max number of k-points (npk) =  40000
     Max angular momentum in pseudopotentials (lmaxx) =  3
               file C.pbe-n-kjpaw_psl.0.1.UPF: wavefunction(s)  2P renormalized
               file N.pbe-n-kjpaw_psl.0.1.UPF: wavefunction(s)  2P renormalized
               file H.pbe-kjpaw_psl.0.1.UPF: wavefunction(s)  1S renormalized
               file O.pbe-n-kjpaw_psl.0.1.UPF: wavefunction(s)  2P renormalized

     -------------------------------------
     Parameters for Dispersion Correction:
     -------------------------------------
       atom      VdW radius       C_6     

        C          2.744         60.710
        N          2.640         42.670
        H          1.892          4.857
        O          2.536         24.284

     Subspace diagonalization in iterative solution of the eigenvalue problem:
     a serial algorithm will be used

 
     Parallelization info
     --------------------
     sticks:   dense  smooth     PW     G-vecs:    dense   smooth      PW
     Min         970     970    252               145297   145297   19218
     Max         972     972    253               145301   145301   19221
     Sum        7769    7769   2017              1162393  1162393  153747
 


     bravais-lattice index     =            0
     lattice parameter (alat)  =      15.6091  a.u.
     unit-cell volume          =    8604.8393 (a.u.)^3
     number of atoms/cell      =          152
     number of atomic types    =            4
     number of electrons       =       384.00
     number of Kohn-Sham states=          230
     kinetic-energy cutoff     =     100.0000  Ry
     charge density cutoff     =     400.0000  Ry
     convergence threshold     =      1.0E-08
     mixing beta               =       0.5000
     number of iterations used =            8  plain     mixing
     Exchange-correlation      =  SLA  PW   PBX  PBC ( 1  4  3  4 0 0)

     celldm(1)=  15.609138  celldm(2)=   0.000000  celldm(3)=   0.000000
     celldm(4)=   0.000000  celldm(5)=   0.000000  celldm(6)=   0.000000

     crystal axes: (cart. coord. in units of alat)
               a(1) = (   1.000000   0.000000   0.000000 )  
               a(2) = (   0.000000   1.000000   0.000000 )  
               a(3) = (   0.000000   0.000000   2.262591 )  

     reciprocal axes: (cart. coord. in units 2 pi/alat)
               b(1) = (  1.000000  0.000000  0.000000 )  
               b(2) = (  0.000000  1.000000  0.000000 )  
               b(3) = (  0.000000  0.000000  0.441971 )  


     PseudoPot. # 1 for  C read from file:
     /scratch/ahofstet/pseudo/C.pbe-n-kjpaw_psl.0.1.UPF
     MD5 check sum: 430fe95172b1e11ef3f8ed03bac87931
     Pseudo is Projector augmented-wave + core cor, Zval =  4.0
     Generated using "atomic" code by A. Dal Corso  v.5.0.99 svn rev. 10869
     Shape of augmentation charge: BESSEL
     Using radial grid of 1073 points,  4 beta functions with: 
                l(1) =   0
                l(2) =   0
                l(3) =   1
                l(4) =   1
     Q(r) pseudized with 0 coefficients 


     PseudoPot. # 2 for  N read from file:
     /scratch/ahofstet/pseudo/N.pbe-n-kjpaw_psl.0.1.UPF
     MD5 check sum: f73187c8b701007e77325f868c9291d7
     Pseudo is Projector augmented-wave + core cor, Zval =  5.0
     Generated using "atomic" code by A. Dal Corso  v.5.0.99 svn rev. 10869
     Shape of augmentation charge: PSQ
     Using radial grid of 1085 points,  4 beta functions with: 
                l(1) =   0
                l(2) =   0
                l(3) =   1
                l(4) =   1
     Q(r) pseudized with 0 coefficients 


     PseudoPot. # 3 for  H read from file:
     /scratch/ahofstet/pseudo/H.pbe-kjpaw_psl.0.1.UPF
     MD5 check sum: 94e484f906d9e9773b2f6e52662335b2
     Pseudo is Projector augmented-wave, Zval =  1.0
     Generated using "atomic" code by A. Dal Corso  v.5.0.99 svn rev. 10869
     Shape of augmentation charge: PSQ
     Using radial grid of  929 points,  2 beta functions with: 
                l(1) =   0
                l(2) =   0
     Q(r) pseudized with 0 coefficients 


     PseudoPot. # 4 for  O read from file:
     /scratch/ahofstet/pseudo/O.pbe-n-kjpaw_psl.0.1.UPF
     MD5 check sum: 3f94a2996a3169367d6eb21d9b593f20
     Pseudo is Projector augmented-wave + core cor, Zval =  6.0
     Generated using "atomic" code by A. Dal Corso  v.5.0.99 svn rev. 10869
     Shape of augmentation charge: BESSEL
     Using radial grid of 1095 points,  4 beta functions with: 
                l(1) =   0
                l(2) =   0
                l(3) =   1
                l(4) =   1
     Q(r) pseudized with 0 coefficients 


     atomic species   valence    mass     pseudopotential
        C              4.00    12.01070      C( 1.00)
        N              5.00    14.00670      N( 1.00)
        H              1.00     1.00794      H( 1.00)
        O              6.00    15.99940      O( 1.00)

     No symmetry found
          (note:  3 additional sym.ops. were found but ignored
           their fractional translations are incommensurate with FFT grid)


   Cartesian axes

     site n.     atom                  positions (alat units)
         1           N   tau(   1) = (   0.3195341   0.7882490   0.2536356  )
         2           N   tau(   2) = (   0.2117510   0.3195341   0.8192833  )
         3           N   tau(   3) = (   0.6804659   0.2117510   1.3849310  )
         4           N   tau(   4) = (   0.7882490   0.6804659   1.9505787  )
         5           C   tau(   5) = (   0.1520735   0.7734600   0.2823530  )
         6           C   tau(   6) = (   0.2265400   0.1520735   0.8480007  )
         7           C   tau(   7) = (   0.8479265   0.2265400   1.4136484  )
         8           C   tau(   8) = (   0.7734600   0.8479265   1.9792961  )
         9           C   tau(   9) = (   0.0829462   0.8899382   0.3899003  )
        10           C   tau(  10) = (   0.1100618   0.0829462   0.9555480  )
        11           C   tau(  11) = (   0.9170538   0.1100618   1.5211957  )
        12           C   tau(  12) = (   0.8899382   0.9170538   2.0868434  )
        13           C   tau(  13) = (   0.1817883   0.9817122   0.4863663  )
        14           C   tau(  14) = (   0.0182878   0.1817883   1.0520140  )
        15           C   tau(  15) = (   0.8182117   0.0182878   1.6176617  )
        16           C   tau(  16) = (   0.9817122   0.8182117   2.1833094  )
        17           C   tau(  17) = (   0.3509468   0.9720385   0.4706938  )
        18           C   tau(  18) = (   0.0279615   0.3509468   1.0363415  )
        19           C   tau(  19) = (   0.6490532   0.0279615   1.6019892  )
        20           C   tau(  20) = (   0.9720385   0.6490532   2.1676369  )
        21           C   tau(  21) = (   0.4179503   0.8790737   0.3507855  )
        22           C   tau(  22) = (   0.1209263   0.4179503   0.9164332  )
        23           C   tau(  23) = (   0.5820497   0.1209263   1.4820809  )
        24           C   tau(  24) = (   0.8790737   0.5820497   2.0477286  )
        25           C   tau(  25) = (   0.5980674   0.8879086   0.3191303  )
        26           C   tau(  26) = (   0.1120914   0.5980674   0.8847780  )
        27           C   tau(  27) = (   0.4019326   0.1120914   1.4504257  )
        28           C   tau(  28) = (   0.8879086   0.4019326   2.0160734  )
        29           C   tau(  29) = (   0.6559077   0.7620521   0.1977745  )
        30           C   tau(  30) = (   0.2379479   0.6559077   0.7634222  )
        31           C   tau(  31) = (   0.3440923   0.2379479   1.3290699  )
        32           C   tau(  32) = (   0.7620521   0.3440923   1.8947176  )
        33           C   tau(  33) = (   0.5396688   0.7753163   0.0539911  )
        34           C   tau(  34) = (   0.2246837   0.5396688   0.6196388  )
        35           C   tau(  35) = (   0.4603312   0.2246837   1.1852865  )
        36           C   tau(  36) = (   0.7753163   0.4603312   1.7509342  )
        37           C   tau(  37) = (   0.3803760   0.7018095   0.1105348  )
        38           C   tau(  38) = (   0.2981905   0.3803760   0.6761825  )
        39           C   tau(  39) = (   0.6196240   0.2981905   1.2418302  )
        40           C   tau(  40) = (   0.7018095   0.6196240   1.8074779  )
        41           C   tau(  41) = (   0.5249738  -0.0491258   2.2517250  )
        42           C   tau(  42) = (   1.0491258   0.5249738   0.5547819  )
        43           C   tau(  43) = (   0.4750262   1.0491258   1.1204296  )
        44           C   tau(  44) = (  -0.0491258   0.4750262   1.6860773  )
        45           C   tau(  45) = (   0.3861012  -0.0300455   2.1315154  )
        46           C   tau(  46) = (   1.0300455   0.3861012   0.4345723  )
        47           C   tau(  47) = (   0.6138988   1.0300455   1.0002200  )
        48           C   tau(  48) = (  -0.0300455   0.6138988   1.5658677  )
        49           C   tau(  49) = (   0.3891789   0.1376199   2.0542448  )
        50           C   tau(  50) = (   0.8623801   0.3891789   0.3573017  )
        51           C   tau(  51) = (   0.6108211   0.8623801   0.9229494  )
        52           C   tau(  52) = (   0.1376199   0.6108211   1.4885971  )
        53           C   tau(  53) = (   0.3890642   0.2688501   2.1849122  )
        54           C   tau(  54) = (   0.7311499   0.3890642   0.4879691  )
        55           C   tau(  55) = (   0.6109358   0.7311499   1.0536168  )
        56           C   tau(  56) = (   0.2688501   0.6109358   1.6192645  )
        57           C   tau(  57) = (   0.5234686   0.2378940   0.0451372  )
        58           C   tau(  58) = (   0.7621060   0.5234686   0.6107849  )
        59           C   tau(  59) = (   0.4765314   0.7621060   1.1764326  )
        60           C   tau(  60) = (   0.2378940   0.4765314   1.7420803  )
        61           N   tau(  61) = (   0.5099767   0.0768028   0.1155080  )
        62           N   tau(  62) = (   0.9231972   0.5099767   0.6811557  )
        63           N   tau(  63) = (   0.4900233   0.9231972   1.2468034  )
        64           N   tau(  64) = (   0.0768028   0.4900233   1.8124511  )
        65           C   tau(  65) = (   0.6272866   0.0550100   0.2442690  )
        66           C   tau(  66) = (   0.9449900   0.6272866   0.8099167  )
        67           C   tau(  67) = (   0.3727134   0.9449900   1.3755644  )
        68           C   tau(  68) = (   0.0550100   0.3727134   1.9412121  )
        69           O   tau(  69) = (   0.0766465   0.6617813   0.2158188  )
        70           O   tau(  70) = (   0.3382187   0.0766465   0.7814665  )
        71           O   tau(  71) = (   0.9233535   0.3382187   1.3471142  )
        72           O   tau(  72) = (   0.6617813   0.9233535   1.9127619  )
        73           H   tau(  73) = (  -0.0484992   0.8920323   0.3991328  )
        74           H   tau(  74) = (   0.1079677  -0.0484992   0.9647804  )
        75           H   tau(  75) = (   1.0484992   0.1079677   1.5304281  )
        76           H   tau(  76) = (   0.8920323   1.0484992   2.0960758  )
        77           H   tau(  77) = (   0.1289589   1.0588432   0.5789065  )
        78           H   tau(  78) = (  -0.0588432   0.1289589   1.1445542  )
        79           H   tau(  79) = (   0.8710411  -0.0588432   1.7102019  )
        80           H   tau(  80) = (   1.0588432   0.8710411   0.0132588  )
        81           H   tau(  81) = (   0.4293502   1.0405607   0.5503622  )
        82           H   tau(  82) = (  -0.0405607   0.4293502   1.1160099  )
        83           H   tau(  83) = (   0.5706498  -0.0405607   1.6816576  )
        84           H   tau(  84) = (   1.0405607   0.5706498  -0.0152855  )
        85           H   tau(  85) = (   0.6621921   0.8780794   0.4356402  )
        86           H   tau(  86) = (   0.1219206   0.6621921   1.0012879  )
        87           H   tau(  87) = (   0.3378079   0.1219206   1.5669356  )
        88           H   tau(  88) = (   0.8780794   0.3378079   2.1325833  )
        89           H   tau(  89) = (   0.6504757   0.6390954   0.2485188  )
        90           H   tau(  90) = (   0.3609046   0.6504757   0.8141665  )
        91           H   tau(  91) = (   0.3495243   0.3609046   1.3798142  )
        92           H   tau(  92) = (   0.6390954   0.3495243   1.9454619  )
        93           H   tau(  93) = (   0.7822902   0.7854480   0.1643239  )
        94           H   tau(  94) = (   0.2145520   0.7822902   0.7299716  )
        95           H   tau(  95) = (   0.2177098   0.2145520   1.2956193  )
        96           H   tau(  96) = (   0.7854480   0.2177098   1.8612670  )
        97           H   tau(  97) = (   0.5829501   0.7015090   2.2143603  )
        98           H   tau(  98) = (   0.2984910   0.5829501   0.5174172  )
        99           H   tau(  99) = (   0.4170499   0.2984910   1.0830649  )
       100           H   tau( 100) = (   0.7015090   0.4170499   1.6487126  )
       101           H   tau( 101) = (   0.2855197   0.7081746   2.2805951  )
       102           H   tau( 102) = (   0.2918254   0.2855197   0.5836520  )
       103           H   tau( 103) = (   0.7144803   0.2918254   1.1492997  )
       104           H   tau( 104) = (   0.7081746   0.7144803   1.7149474  )
       105           H   tau( 105) = (   0.3963459   0.5729788   0.1399136  )
       106           H   tau( 106) = (   0.4270212   0.3963459   0.7055613  )
       107           H   tau( 107) = (   0.6036541   0.4270212   1.2712090  )
       108           H   tau( 108) = (   0.5729788   0.6036541   1.8368567  )
       109           H   tau( 109) = (   0.6389166  -0.0245492   2.1871791  )
       110           H   tau( 110) = (   1.0245492   0.6389166   0.4902360  )
       111           H   tau( 111) = (   0.3610834   1.0245492   1.0558837  )
       112           H   tau( 112) = (  -0.0245492   0.3610834   1.6215314  )
       113           H   tau( 113) = (   0.2708531  -0.0464878   2.1962325  )
       114           H   tau( 114) = (   1.0464878   0.2708531   0.4992894  )
       115           H   tau( 115) = (   0.7291469   1.0464878   1.0649371  )
       116           H   tau( 116) = (  -0.0464878   0.7291469   1.6305848  )
       117           H   tau( 117) = (   0.3947342  -0.1244332   2.0384105  )
       118           H   tau( 118) = (   1.1244332   0.3947342   0.3414674  )
       119           H   tau( 119) = (   0.6052658   1.1244332   0.9071151  )
       120           H   tau( 120) = (  -0.1244332   0.6052658   1.4727628  )
       121           H   tau( 121) = (   0.2854116   0.1524469   1.9726184  )
       122           H   tau( 122) = (   0.8475531   0.2854116   0.2756753  )
       123           H   tau( 123) = (   0.7145884   0.8475531   0.8413230  )
       124           H   tau( 124) = (   0.1524469   0.7145884   1.4069707  )
       125           H   tau( 125) = (   0.4994944   0.1463842   1.9806894  )
       126           H   tau( 126) = (   0.8536158   0.4994944   0.2837463  )
       127           H   tau( 127) = (   0.5005056   0.8536158   0.8493940  )
       128           H   tau( 128) = (   0.1463842   0.5005056   1.4150417  )
       129           H   tau( 129) = (   0.4054512   0.3899989   2.1315152  )
       130           H   tau( 130) = (   0.6100011   0.4054512   0.4345721  )
       131           H   tau( 131) = (   0.5945488   0.6100011   1.0002198  )
       132           H   tau( 132) = (   0.3899989   0.5945488   1.5658675  )
       133           H   tau( 133) = (   0.2721406   0.2690142   2.2493802  )
       134           H   tau( 134) = (   0.7309858   0.2721406   0.5524371  )
       135           H   tau( 135) = (   0.7278594   0.7309858   1.1180848  )
       136           H   tau( 136) = (   0.2690142   0.7278594   1.6837325  )
       137           H   tau( 137) = (   0.6433348   0.2532353  -0.0153152  )
       138           H   tau( 138) = (   0.7467647   0.6433348   0.5503325  )
       139           H   tau( 139) = (   0.3566652   0.7467647   1.1159802  )
       140           H   tau( 140) = (   0.2532353   0.3566652   1.6816279  )
       141           H   tau( 141) = (   0.5184243   0.3266182   0.1447202  )
       142           H   tau( 142) = (   0.6733818   0.5184243   0.7103679  )
       143           H   tau( 143) = (   0.4815757   0.6733818   1.2760156  )
       144           H   tau( 144) = (   0.3266182   0.4815757   1.8416633  )
       145           H   tau( 145) = (   0.7543129   0.0629403   0.2000179  )
       146           H   tau( 146) = (   0.9370597   0.7543129   0.7656656  )
       147           H   tau( 147) = (   0.2456871   0.9370597   1.3313133  )
       148           H   tau( 148) = (   0.0629403   0.2456871   1.8969610  )
       149           H   tau( 149) = (   0.6083636   0.1509102   0.3340860  )
       150           H   tau( 150) = (   0.8490898   0.6083636   0.8997337  )
       151           H   tau( 151) = (   0.3916364   0.8490898   1.4653814  )
       152           H   tau( 152) = (   0.1509102   0.3916364   2.0310291  )

     number of k points=     5
                       cart. coord. in units 2pi/alat
        k(    1) = (   0.0000000   0.0000000   0.0000000), wk =   0.2222222
        k(    2) = (   0.0000000   0.3333333   0.0000000), wk =   0.4444444
        k(    3) = (   0.3333333   0.3333333   0.0000000), wk =   0.4444444
        k(    4) = (   0.3333333   0.0000000   0.0000000), wk =   0.4444444
        k(    5) = (   0.3333333  -0.3333333   0.0000000), wk =   0.4444444

     Dense  grid:  1162393 G-vectors     FFT dimensions: ( 100, 100, 225)

     Estimated max dynamical RAM per process >    1209.56MB

     Estimated total allocated dynamical RAM >    9676.51MB

     Check: negative/imaginary core charge=   -0.000002    0.000000

     Initial potential from superposition of free atoms

     starting charge  383.99668, renormalised to  384.00000
     Starting wfc are  368 randomized atomic wfcs
     Checking if some PAW data can be deallocated... 

     total cpu time spent up to now is       59.3 secs

     per-process dynamical memory:   718.6 Mb

     Self-consistent Calculation

     iteration #  1     ecut=   100.00 Ry     beta=0.50
     Davidson diagonalization with overlap
     ethr =  1.00E-02,  avg # of iterations =  4.0

     total cpu time spent up to now is      242.8 secs

     total energy              =   -1591.33543584 Ry
     Harris-Foulkes estimate   =   -1599.37571545 Ry
     estimated scf accuracy    <      15.58525816 Ry

     iteration #  2     ecut=   100.00 Ry     beta=0.50
     Davidson diagonalization with overlap
     ethr =  4.06E-03,  avg # of iterations =  2.0

     total cpu time spent up to now is      328.3 secs

     total energy              =   -1591.55017470 Ry
     Harris-Foulkes estimate   =   -1592.65327338 Ry
     estimated scf accuracy    <       2.14649540 Ry

     iteration #  3     ecut=   100.00 Ry     beta=0.50
     Davidson diagonalization with overlap
     ethr =  5.59E-04,  avg # of iterations =  5.0

     total cpu time spent up to now is      544.9 secs

     total energy              =   -1593.77395108 Ry
     Harris-Foulkes estimate   =   -1595.02488656 Ry
     estimated scf accuracy    <       3.95654795 Ry

     iteration #  4     ecut=   100.00 Ry     beta=0.50
     Davidson diagonalization with overlap
     ethr =  5.59E-04,  avg # of iterations =  2.0

     total cpu time spent up to now is      629.3 secs

     total energy              =   -1592.92588638 Ry
     Harris-Foulkes estimate   =   -1593.91136941 Ry
     estimated scf accuracy    <       1.59834731 Ry

     iteration #  5     ecut=   100.00 Ry     beta=0.50
     Davidson diagonalization with overlap
     ethr =  4.16E-04,  avg # of iterations =  5.2

     total cpu time spent up to now is      805.6 secs

     total energy              =   -1593.78255190 Ry
     Harris-Foulkes estimate   =   -1594.16140553 Ry
     estimated scf accuracy    <       0.99541288 Ry

     iteration #  6     ecut=   100.00 Ry     beta=0.50
     Davidson diagonalization with overlap
     ethr =  2.59E-04,  avg # of iterations =  1.0

     total cpu time spent up to now is      887.8 secs

     total energy              =   -1593.61968662 Ry
     Harris-Foulkes estimate   =   -1593.81896335 Ry
     estimated scf accuracy    <       0.33432899 Ry

     iteration #  7     ecut=   100.00 Ry     beta=0.50
     Davidson diagonalization with overlap
     ethr =  8.71E-05,  avg # of iterations =  7.0

     total cpu time spent up to now is     1073.9 secs

     total energy              =   -1593.84159180 Ry
     Harris-Foulkes estimate   =   -1593.90087877 Ry
     estimated scf accuracy    <       0.17774592 Ry

     iteration #  8     ecut=   100.00 Ry     beta=0.50
     Davidson diagonalization with overlap
     ethr =  4.63E-05,  avg # of iterations =  1.0

     total cpu time spent up to now is     1156.2 secs

     total energy              =   -1593.80855367 Ry
     Harris-Foulkes estimate   =   -1593.84624274 Ry
     estimated scf accuracy    <       0.07465876 Ry

     iteration #  9     ecut=   100.00 Ry     beta=0.50
     Davidson diagonalization with overlap
     ethr =  1.94E-05,  avg # of iterations =  7.6

     total cpu time spent up to now is     1320.3 secs

     total energy              =   -1593.84718718 Ry
     Harris-Foulkes estimate   =   -1593.85017587 Ry
     estimated scf accuracy    <       0.01244670 Ry

     iteration # 10     ecut=   100.00 Ry     beta=0.50
     Davidson diagonalization with overlap
     ethr =  3.24E-06,  avg # of iterations =  2.0

     total cpu time spent up to now is     1406.4 secs

     total energy              =   -1593.84488755 Ry
     Harris-Foulkes estimate   =   -1593.84750034 Ry
     estimated scf accuracy    <       0.00701634 Ry

     iteration # 11     ecut=   100.00 Ry     beta=0.50
     Davidson diagonalization with overlap
     ethr =  1.83E-06,  avg # of iterations =  3.2

     total cpu time spent up to now is     1519.4 secs

     total energy              =   -1593.84628861 Ry
     Harris-Foulkes estimate   =   -1593.84637430 Ry
     estimated scf accuracy    <       0.00026003 Ry

     iteration # 12     ecut=   100.00 Ry     beta=0.50
     Davidson diagonalization with overlap
     ethr =  6.77E-08,  avg # of iterations =  4.0

     total cpu time spent up to now is     1697.6 secs

     total energy              =   -1593.84645712 Ry
     Harris-Foulkes estimate   =   -1593.84646413 Ry
     estimated scf accuracy    <       0.00001926 Ry

     iteration # 13     ecut=   100.00 Ry     beta=0.50
     Davidson diagonalization with overlap
     ethr =  5.02E-09,  avg # of iterations =  2.0

     total cpu time spent up to now is     1783.0 secs

     total energy              =   -1593.84645822 Ry
     Harris-Foulkes estimate   =   -1593.84645859 Ry
     estimated scf accuracy    <       0.00000412 Ry

     iteration # 14     ecut=   100.00 Ry     beta=0.50
     Davidson diagonalization with overlap
     ethr =  1.07E-09,  avg # of iterations =  4.0

     total cpu time spent up to now is     1975.8 secs

     total energy              =   -1593.84646124 Ry
     Harris-Foulkes estimate   =   -1593.84646446 Ry
     estimated scf accuracy    <       0.00001255 Ry

     iteration # 15     ecut=   100.00 Ry     beta=0.50
     Davidson diagonalization with overlap
     ethr =  1.07E-09,  avg # of iterations =  1.0

     total cpu time spent up to now is     2058.1 secs

     total energy              =   -1593.84645866 Ry
     Harris-Foulkes estimate   =   -1593.84646145 Ry
     estimated scf accuracy    <       0.00000674 Ry

     iteration # 16     ecut=   100.00 Ry     beta=0.50
     Davidson diagonalization with overlap
     ethr =  1.07E-09,  avg # of iterations =  4.0

     total cpu time spent up to now is     2201.1 secs

     total energy              =   -1593.84646068 Ry
     Harris-Foulkes estimate   =   -1593.84646067 Ry
     estimated scf accuracy    <       0.00000010 Ry

     iteration # 17     ecut=   100.00 Ry     beta=0.50
     Davidson diagonalization with overlap
     ethr =  2.49E-11,  avg # of iterations =  4.0

     total cpu time spent up to now is     2366.5 secs

     total energy              =   -1593.84646064 Ry
     Harris-Foulkes estimate   =   -1593.84646074 Ry
     estimated scf accuracy    <       0.00000020 Ry

     iteration # 18     ecut=   100.00 Ry     beta=0.50
     Davidson diagonalization with overlap
     ethr =  2.49E-11,  avg # of iterations =  6.0

     total cpu time spent up to now is     2485.4 secs

     End of self-consistent calculation

          k = 0.0000 0.0000 0.0000 (145333 PWs)   bands (ev):

   -19.5216 -19.5110 -19.5110 -19.5003 -17.7542 -17.7361 -17.7361 -17.7171
   -16.9118 -16.8996 -16.8996 -16.8881 -14.3896 -14.3228 -14.3228 -14.2475
   -14.1488 -14.1181 -14.1181 -14.0928 -13.3919 -13.3489 -13.3489 -13.2990
   -12.8173 -12.7736 -12.7736 -12.7390 -11.9581 -11.9443 -11.9443 -11.9362
   -11.5430 -11.5033 -11.5033 -11.4502 -10.8611 -10.7802 -10.7802 -10.7120
    -9.4474  -9.4467  -9.4467  -9.4321  -9.3966  -9.3358  -9.3358  -9.2586
    -9.1757  -9.1108  -9.1108  -9.0712  -8.8187  -8.7782  -8.7782  -8.7067
    -8.5236  -8.4260  -8.4260  -8.3406  -7.3183  -7.2664  -7.2664  -7.2088
    -6.8028  -6.7336  -6.7336  -6.6976  -6.5518  -6.3223  -6.3222  -6.2099
    -6.0735  -6.0735  -5.9933  -5.9650  -5.9556  -5.7998  -5.7998  -5.6284
    -5.5787  -5.5787  -5.5349  -5.4171  -5.2089  -5.1815  -5.1041  -5.1041
    -4.9578  -4.9578  -4.9423  -4.9109  -4.9092  -4.7783  -4.7783  -4.7349
    -4.6622  -4.5631  -4.5631  -4.4852  -4.4721  -4.3186  -4.3040  -4.3040
    -4.2006  -4.1005  -4.1005  -4.0193  -3.9717  -3.9525  -3.8312  -3.8312
    -3.7440  -3.7440  -3.6561  -3.6286  -3.4861  -3.4861  -3.4655  -3.3630
    -3.1908  -3.1805  -3.1805  -3.1049  -3.0181  -3.0181  -3.0042  -2.9095
    -2.8103  -2.8057  -2.7958  -2.7958  -2.7530  -2.7047  -2.6859  -2.6859
    -2.6700  -2.5387  -2.5387  -2.4419  -2.4261  -2.3855  -2.3855  -2.2859
    -2.2245  -2.2245  -2.2139  -2.1956  -2.0202  -1.8484  -1.8484  -1.7451
    -1.5476  -1.5476  -1.4904  -1.4799  -1.4490  -1.4490  -1.4008  -1.3932
    -1.3435  -1.3095  -1.2729  -1.2729  -1.0954  -1.0642  -1.0492  -1.0492
    -0.8059  -0.7446  -0.7446  -0.7311  -0.6450  -0.5832  -0.5832  -0.5354
    -0.5179  -0.4893  -0.4893  -0.4570   0.5434   0.5766   0.5767   0.5862
     1.1987   1.2735   1.2735   1.3205   1.5122   1.5474   1.5474   1.6177
     4.5513   4.5745   4.5745   4.6235   5.5132   5.6285   5.6285   5.6563
     5.6766   5.9597   5.9597   6.4082   6.6581   6.7116   6.7116   6.8296
     7.2741   7.3009   7.3009   7.3448   7.5014   7.8005   7.8005   7.8013
     7.8838   7.9992   7.9992   8.1078   8.1925   8.1929   8.1929   8.2539
     8.3090   8.3818   8.3818   8.4769   8.4835   8.4836

          k = 0.0000 0.3333 0.0000 (145326 PWs)   bands (ev):

   -19.5190 -19.5129 -19.5084 -19.5022 -17.7519 -17.7427 -17.7318 -17.7223
   -16.9066 -16.9005 -16.8977 -16.8922 -14.3786 -14.3434 -14.3135 -14.2731
   -14.1344 -14.1199 -14.1054 -14.0904 -13.4032 -13.3595 -13.3370 -13.2917
   -12.8151 -12.7930 -12.7777 -12.7634 -11.9512 -11.9480 -11.9086 -11.9024
   -11.5439 -11.5097 -11.4576 -11.4207 -10.8476 -10.8016 -10.7669 -10.7212
    -9.5167  -9.5076  -9.4383  -9.4279  -9.3692  -9.3292  -9.3092  -9.2834
    -9.1686  -9.1440  -9.0907  -9.0744  -8.8123  -8.7975  -8.7779  -8.7481
    -8.5115  -8.4645  -8.4294  -8.3743  -7.2812  -7.2518  -7.2386  -7.2058
    -6.8383  -6.8079  -6.6937  -6.6692  -6.5602  -6.3906  -6.3748  -6.2805
    -6.0712  -6.0366  -6.0238  -5.9668  -5.9424  -5.8340  -5.8152  -5.6244
    -5.5386  -5.5105  -5.4753  -5.3799  -5.1794  -5.1594  -5.1162  -5.0753
    -4.9851  -4.9513  -4.9205  -4.8798  -4.8536  -4.7852  -4.7571  -4.7170
    -4.6706  -4.5584  -4.5033  -4.4715  -4.4373  -4.2784  -4.2499  -4.1860
    -4.1741  -4.1151  -4.0908  -4.0360  -3.9717  -3.9534  -3.8946  -3.8336
    -3.7500  -3.7276  -3.6273  -3.6042  -3.5640  -3.5532  -3.4670  -3.3596
    -3.2642  -3.2410  -3.1566  -3.0990  -3.0603  -3.0406  -2.9877  -2.9512
    -2.8691  -2.8269  -2.7873  -2.7697  -2.7497  -2.7320  -2.6831  -2.6231
    -2.6030  -2.5881  -2.5279  -2.5189  -2.4143  -2.3856  -2.3533  -2.3160
    -2.2992  -2.2647  -2.2041  -2.1638  -1.9328  -1.8743  -1.8009  -1.7393
    -1.5839  -1.5723  -1.5265  -1.5232  -1.4784  -1.4268  -1.3976  -1.3628
    -1.3091  -1.2881  -1.2591  -1.2407  -1.1199  -1.0907  -1.0788  -1.0570
    -0.8329  -0.8151  -0.7607  -0.7252  -0.6388  -0.5871  -0.5676  -0.5449
    -0.5065  -0.4966  -0.4402  -0.4250   0.5531   0.5691   0.5799   0.6017
     1.1513   1.2175   1.3079   1.3611   1.5356   1.5564   1.5928   1.6203
     4.5230   4.5371   4.5808   4.5946   5.5405   5.5979   5.6048   5.6499
     5.8128   6.0557   6.0817   6.2700   6.4087   6.5440   6.6728   6.7571
     7.1999   7.2766   7.4551   7.5252   7.5702   7.6738   7.7066   7.7224
     7.8071   7.8426   7.8895   8.0258   8.0708   8.1604   8.2424   8.2787
     8.3349   8.3499   8.4215   8.4534   8.5318   8.5404

          k = 0.3333 0.3333 0.0000 (145305 PWs)   bands (ev):

   -19.5165 -19.5103 -19.5103 -19.5040 -17.7484 -17.7387 -17.7380 -17.7282
   -16.9090 -16.9017 -16.8964 -16.8885 -14.3660 -14.3371 -14.3283 -14.2972
   -14.1209 -14.1085 -14.1079 -14.0938 -13.3815 -13.3702 -13.3276 -13.3153
   -12.8201 -12.8044 -12.7924 -12.7705 -11.9279 -11.9101 -11.9084 -11.8896
   -11.5402 -11.4709 -11.4646 -11.3964 -10.8253 -10.7962 -10.7781 -10.7433
    -9.5161  -9.5084  -9.4942  -9.4764  -9.3609  -9.3418  -9.3058  -9.2502
    -9.1813  -9.1414  -9.1157  -9.0853  -8.8135  -8.7979  -8.7771  -8.7687
    -8.5118  -8.4668  -8.4593  -8.4052  -7.2888  -7.2478  -7.2159  -7.1717
    -6.7794  -6.7649  -6.7034  -6.6893  -6.5928  -6.4616  -6.4283  -6.2740
    -6.2043  -6.0331  -6.0316  -5.9744  -5.9240  -5.8523  -5.8294  -5.5940
    -5.4540  -5.4275  -5.3951  -5.3415  -5.1789  -5.1707  -5.1207  -5.0994
    -5.0104  -4.9372  -4.8690  -4.8633  -4.8124  -4.7910  -4.7523  -4.6851
    -4.6471  -4.5049  -4.4869  -4.4728  -4.4197  -4.2776  -4.2521  -4.1768
    -4.1392  -4.1068  -4.0964  -4.0235  -4.0094  -3.9102  -3.8582  -3.8455
    -3.7893  -3.6951  -3.6504  -3.6020  -3.5878  -3.5564  -3.5317  -3.3733
    -3.2975  -3.2277  -3.1961  -3.1454  -3.0938  -3.0686  -3.0251  -2.9847
    -2.8005  -2.7832  -2.7503  -2.7473  -2.7172  -2.6939  -2.6602  -2.6142
    -2.6001  -2.5746  -2.5283  -2.5012  -2.4637  -2.4234  -2.3917  -2.3518
    -2.3067  -2.2707  -2.2394  -2.2031  -1.8759  -1.8568  -1.7989  -1.7202
    -1.6395  -1.5920  -1.5215  -1.4718  -1.4430  -1.4077  -1.3866  -1.3521
    -1.3235  -1.2967  -1.2771  -1.1945  -1.1459  -1.1309  -1.1236  -1.0817
    -0.8621  -0.8267  -0.8087  -0.7497  -0.6326  -0.6203  -0.5720  -0.5406
    -0.4732  -0.4503  -0.4318  -0.4250   0.5597   0.5735   0.5806   0.5994
     1.1337   1.2488   1.2534   1.4101   1.4996   1.5870   1.6136   1.6489
     4.5180   4.5248   4.5302   4.5466   5.5646   5.6145   5.6442   5.6546
     5.9287   6.1081   6.1475   6.2580   6.3608   6.4493   6.5135   6.8257
     7.0811   7.1727   7.2269   7.3142   7.5780   7.6015   7.6393   7.7867
     7.8222   7.8520   7.9490   7.9640   8.1032   8.1617   8.1948   8.2449
     8.3477   8.3721   8.4153   8.4438   8.5492   8.5937

          k = 0.3333 0.0000 0.0000 (145326 PWs)   bands (ev):

   -19.5190 -19.5129 -19.5084 -19.5022 -17.7519 -17.7427 -17.7318 -17.7223
   -16.9066 -16.9004 -16.8977 -16.8922 -14.3786 -14.3434 -14.3135 -14.2731
   -14.1344 -14.1199 -14.1055 -14.0904 -13.4032 -13.3595 -13.3370 -13.2917
   -12.8151 -12.7930 -12.7777 -12.7634 -11.9512 -11.9480 -11.9086 -11.9024
   -11.5439 -11.5097 -11.4576 -11.4207 -10.8476 -10.8016 -10.7669 -10.7212
    -9.5167  -9.5076  -9.4383  -9.4279  -9.3692  -9.3292  -9.3092  -9.2834
    -9.1686  -9.1440  -9.0907  -9.0744  -8.8123  -8.7975  -8.7779  -8.7481
    -8.5115  -8.4645  -8.4294  -8.3743  -7.2812  -7.2518  -7.2386  -7.2058
    -6.8382  -6.8079  -6.6937  -6.6692  -6.5602  -6.3906  -6.3748  -6.2805
    -6.0712  -6.0366  -6.0238  -5.9668  -5.9424  -5.8340  -5.8152  -5.6244
    -5.5386  -5.5105  -5.4753  -5.3799  -5.1794  -5.1594  -5.1162  -5.0753
    -4.9851  -4.9513  -4.9205  -4.8798  -4.8536  -4.7852  -4.7571  -4.7170
    -4.6706  -4.5584  -4.5033  -4.4715  -4.4373  -4.2784  -4.2499  -4.1860
    -4.1741  -4.1151  -4.0908  -4.0360  -3.9717  -3.9534  -3.8947  -3.8336
    -3.7500  -3.7276  -3.6273  -3.6042  -3.5640  -3.5532  -3.4670  -3.3596
    -3.2642  -3.2410  -3.1566  -3.0990  -3.0603  -3.0406  -2.9877  -2.9512
    -2.8691  -2.8269  -2.7873  -2.7697  -2.7497  -2.7320  -2.6831  -2.6231
    -2.6030  -2.5881  -2.5279  -2.5189  -2.4143  -2.3856  -2.3533  -2.3160
    -2.2992  -2.2647  -2.2041  -2.1638  -1.9328  -1.8743  -1.8009  -1.7393
    -1.5839  -1.5723  -1.5265  -1.5232  -1.4784  -1.4268  -1.3976  -1.3628
    -1.3091  -1.2881  -1.2591  -1.2407  -1.1199  -1.0907  -1.0788  -1.0570
    -0.8329  -0.8151  -0.7607  -0.7252  -0.6388  -0.5871  -0.5676  -0.5449
    -0.5065  -0.4966  -0.4402  -0.4250   0.5531   0.5691   0.5798   0.6016
     1.1513   1.2175   1.3079   1.3611   1.5356   1.5564   1.5928   1.6203
     4.5230   4.5371   4.5808   4.5946   5.5405   5.5979   5.6048   5.6499
     5.8128   6.0557   6.0817   6.2700   6.4087   6.5440   6.6728   6.7571
     7.1999   7.2766   7.4551   7.5252   7.5702   7.6738   7.7066   7.7224
     7.8071   7.8426   7.8895   8.0258   8.0708   8.1604   8.2424   8.2787
     8.3349   8.3499   8.4215   8.4535   8.5319   8.5404

          k = 0.3333-0.3333 0.0000 (145305 PWs)   bands (ev):

   -19.5165 -19.5103 -19.5103 -19.5040 -17.7484 -17.7387 -17.7381 -17.7282
   -16.9090 -16.9017 -16.8964 -16.8885 -14.3660 -14.3371 -14.3283 -14.2972
   -14.1209 -14.1085 -14.1079 -14.0938 -13.3815 -13.3702 -13.3276 -13.3153
   -12.8201 -12.8044 -12.7924 -12.7705 -11.9279 -11.9101 -11.9084 -11.8896
   -11.5402 -11.4709 -11.4646 -11.3964 -10.8253 -10.7962 -10.7781 -10.7433
    -9.5161  -9.5084  -9.4942  -9.4764  -9.3609  -9.3418  -9.3058  -9.2502
    -9.1813  -9.1414  -9.1157  -9.0853  -8.8135  -8.7979  -8.7771  -8.7687
    -8.5118  -8.4668  -8.4593  -8.4052  -7.2888  -7.2478  -7.2159  -7.1717
    -6.7794  -6.7649  -6.7034  -6.6893  -6.5928  -6.4616  -6.4283  -6.2740
    -6.2043  -6.0331  -6.0316  -5.9744  -5.9240  -5.8523  -5.8294  -5.5940
    -5.4540  -5.4275  -5.3951  -5.3415  -5.1789  -5.1707  -5.1207  -5.0994
    -5.0104  -4.9372  -4.8690  -4.8633  -4.8124  -4.7910  -4.7523  -4.6851
    -4.6471  -4.5049  -4.4869  -4.4728  -4.4197  -4.2776  -4.2521  -4.1768
    -4.1392  -4.1068  -4.0964  -4.0235  -4.0094  -3.9102  -3.8582  -3.8455
    -3.7893  -3.6951  -3.6504  -3.6020  -3.5878  -3.5564  -3.5317  -3.3733
    -3.2975  -3.2277  -3.1961  -3.1454  -3.0938  -3.0686  -3.0251  -2.9847
    -2.8005  -2.7832  -2.7503  -2.7473  -2.7172  -2.6939  -2.6602  -2.6142
    -2.6001  -2.5746  -2.5284  -2.5012  -2.4637  -2.4234  -2.3917  -2.3518
    -2.3067  -2.2707  -2.2394  -2.2031  -1.8759  -1.8568  -1.7989  -1.7202
    -1.6395  -1.5920  -1.5215  -1.4718  -1.4430  -1.4077  -1.3866  -1.3521
    -1.3235  -1.2967  -1.2771  -1.1945  -1.1459  -1.1309  -1.1236  -1.0817
    -0.8621  -0.8267  -0.8087  -0.7497  -0.6326  -0.6203  -0.5720  -0.5406
    -0.4732  -0.4503  -0.4318  -0.4250   0.5597   0.5736   0.5805   0.5994
     1.1337   1.2487   1.2534   1.4101   1.4996   1.5870   1.6136   1.6489
     4.5180   4.5248   4.5302   4.5466   5.5646   5.6145   5.6442   5.6546
     5.9287   6.1081   6.1475   6.2580   6.3608   6.4493   6.5135   6.8257
     7.0811   7.1727   7.2269   7.3142   7.5780   7.6015   7.6393   7.7867
     7.8222   7.8520   7.9490   7.9640   8.1032   8.1617   8.1948   8.2449
     8.3477   8.3721   8.4153   8.4438   8.5491   8.5938

     highest occupied, lowest unoccupied level (ev):     1.6489    4.5180

!    total energy              =   -1593.84646067 Ry
     Harris-Foulkes estimate   =   -1593.84646067 Ry
     estimated scf accuracy    <          6.6E-09 Ry

     total all-electron energy =     -6145.470178 Ry

     The total energy is the sum of the following terms:

     one-electron contribution =   -1114.73572029 Ry
     hartree contribution      =     700.98619638 Ry
     xc contribution           =    -380.90113732 Ry
     ewald contribution        =    -295.07101019 Ry
     Dispersion Correction     =      -0.78060186 Ry
     one-center paw contrib.   =    -503.34418738 Ry

     convergence has been achieved in  18 iterations

     Forces acting on atoms (cartesian axes, Ry/au):

     atom    1 type  2   force =     0.00309055    0.00149057    0.00226960
     atom    2 type  2   force =    -0.00149029    0.00309197    0.00226921
     atom    3 type  2   force =    -0.00308978   -0.00148881    0.00226735
     atom    4 type  2   force =     0.00148873   -0.00309176    0.00226683
     atom    5 type  1   force =    -0.00203763    0.00164007    0.00026154
     atom    6 type  1   force =    -0.00164014   -0.00203778    0.00026511
     atom    7 type  1   force =     0.00204044   -0.00163747    0.00025145
     atom    8 type  1   force =     0.00163931    0.00203895    0.00024593
     atom    9 type  1   force =     0.00110408    0.00073020   -0.00065292
     atom   10 type  1   force =    -0.00072825    0.00110147   -0.00064353
     atom   11 type  1   force =    -0.00110301   -0.00072928   -0.00063316
     atom   12 type  1   force =     0.00072882   -0.00110080   -0.00064580
     atom   13 type  1   force =     0.00111756   -0.00052028   -0.00183147
     atom   14 type  1   force =     0.00051869    0.00111709   -0.00184484
     atom   15 type  1   force =    -0.00111608    0.00051899   -0.00184433
     atom   16 type  1   force =    -0.00051856   -0.00111568   -0.00182976
     atom   17 type  1   force =    -0.00155197    0.00093817   -0.00002941
     atom   18 type  1   force =    -0.00094007   -0.00155036   -0.00001438
     atom   19 type  1   force =     0.00155096   -0.00093797   -0.00001534
     atom   20 type  1   force =     0.00094051    0.00154982   -0.00002559
     atom   21 type  1   force =     0.00178166   -0.00125840    0.00188681
     atom   22 type  1   force =     0.00126047    0.00178252    0.00189860
     atom   23 type  1   force =    -0.00178244    0.00125887    0.00190602
     atom   24 type  1   force =    -0.00126037   -0.00178327    0.00189012
     atom   25 type  1   force =     0.00074051   -0.00069154    0.00238783
     atom   26 type  1   force =     0.00069156    0.00074052    0.00239336
     atom   27 type  1   force =    -0.00074024    0.00069148    0.00240600
     atom   28 type  1   force =    -0.00069199   -0.00074061    0.00240118
     atom   29 type  1   force =    -0.00024601   -0.00081869   -0.00183202
     atom   30 type  1   force =     0.00081837   -0.00024613   -0.00182773
     atom   31 type  1   force =     0.00024634    0.00081776   -0.00181410
     atom   32 type  1   force =    -0.00081855    0.00024539   -0.00181894
     atom   33 type  1   force =    -0.00078646   -0.00178447    0.00131450
     atom   34 type  1   force =     0.00178438   -0.00078592    0.00130254
     atom   35 type  1   force =     0.00078592    0.00178439    0.00130194
     atom   36 type  1   force =    -0.00178402    0.00078598    0.00131439
     atom   37 type  1   force =     0.00100359    0.00144269   -0.00204199
     atom   38 type  1   force =    -0.00144211    0.00100372   -0.00202985
     atom   39 type  1   force =    -0.00100320   -0.00144269   -0.00204518
     atom   40 type  1   force =     0.00144195   -0.00100396   -0.00205755
     atom   41 type  1   force =     0.00069863    0.00341045   -0.00040165
     atom   42 type  1   force =    -0.00341067    0.00069891   -0.00038708
     atom   43 type  1   force =    -0.00069887   -0.00341113   -0.00039321
     atom   44 type  1   force =     0.00341028   -0.00069918   -0.00040751
     atom   45 type  1   force =    -0.00343947    0.00089178    0.00368671
     atom   46 type  1   force =    -0.00089140   -0.00343953    0.00369591
     atom   47 type  1   force =     0.00343918   -0.00089211    0.00368903
     atom   48 type  1   force =     0.00089218    0.00343906    0.00368041
     atom   49 type  1   force =     0.00011771    0.00039171   -0.00120937
     atom   50 type  1   force =    -0.00039241    0.00011723   -0.00122121
     atom   51 type  1   force =    -0.00011694   -0.00039212   -0.00123037
     atom   52 type  1   force =     0.00039204   -0.00011693   -0.00121816
     atom   53 type  1   force =     0.00022098   -0.00086426    0.00140811
     atom   54 type  1   force =     0.00086444    0.00022106    0.00139759
     atom   55 type  1   force =    -0.00022156    0.00086455    0.00139000
     atom   56 type  1   force =    -0.00086430   -0.00022135    0.00140038
     atom   57 type  1   force =    -0.00062053    0.00035456   -0.00135155
     atom   58 type  1   force =    -0.00035467   -0.00062044   -0.00136129
     atom   59 type  1   force =     0.00062056   -0.00035459   -0.00135431
     atom   60 type  1   force =     0.00035426    0.00062052   -0.00134418
     atom   61 type  2   force =    -0.00200234   -0.00064775    0.00032571
     atom   62 type  2   force =     0.00064761   -0.00200178    0.00032521
     atom   63 type  2   force =     0.00200240    0.00064724    0.00032547
     atom   64 type  2   force =    -0.00064795    0.00200174    0.00032548
     atom   65 type  1   force =    -0.00306384    0.00101877   -0.00064409
     atom   66 type  1   force =    -0.00101859   -0.00306393   -0.00065465
     atom   67 type  1   force =     0.00306429   -0.00101837   -0.00066319
     atom   68 type  1   force =     0.00101873    0.00306386   -0.00065303
     atom   69 type  4   force =     0.00009343    0.00028131   -0.00202044
     atom   70 type  4   force =    -0.00027523    0.00008835   -0.00202486
     atom   71 type  4   force =    -0.00009453   -0.00028412   -0.00201532
     atom   72 type  4   force =     0.00027512   -0.00008841   -0.00202419
     atom   73 type  3   force =     0.00011513   -0.00069929    0.00122320
     atom   74 type  3   force =     0.00069926    0.00011505    0.00122317
     atom   75 type  3   force =    -0.00011501    0.00069940    0.00122276
     atom   76 type  3   force =    -0.00069931   -0.00011507    0.00122291
     atom   77 type  3   force =     0.00058647    0.00046199   -0.00068471
     atom   78 type  3   force =    -0.00046224    0.00058630   -0.00068395
     atom   79 type  3   force =    -0.00058681   -0.00046181   -0.00068463
     atom   80 type  3   force =     0.00046242   -0.00058607   -0.00068428
     atom   81 type  3   force =     0.00029547   -0.00022059    0.00018976
     atom   82 type  3   force =     0.00021955    0.00029637    0.00019116
     atom   83 type  3   force =    -0.00029596    0.00022020    0.00019006
     atom   84 type  3   force =    -0.00021950   -0.00029669    0.00019087
     atom   85 type  3   force =    -0.00073007   -0.00003180   -0.00081896
     atom   86 type  3   force =     0.00003177   -0.00072973   -0.00081903
     atom   87 type  3   force =     0.00072950    0.00003183   -0.00081832
     atom   88 type  3   force =    -0.00003184    0.00072942   -0.00081760
     atom   89 type  3   force =     0.00003676   -0.00016160   -0.00030666
     atom   90 type  3   force =     0.00016178    0.00003673   -0.00030674
     atom   91 type  3   force =    -0.00003677    0.00016161   -0.00030691
     atom   92 type  3   force =    -0.00016197   -0.00003682   -0.00030683
     atom   93 type  3   force =    -0.00036803   -0.00026827   -0.00043956
     atom   94 type  3   force =     0.00026819   -0.00036808   -0.00043954
     atom   95 type  3   force =     0.00036818    0.00026821   -0.00043934
     atom   96 type  3   force =    -0.00026816    0.00036804   -0.00043984
     atom   97 type  3   force =    -0.00020506    0.00072889    0.00067361
     atom   98 type  3   force =    -0.00072847   -0.00020475    0.00067359
     atom   99 type  3   force =     0.00020487   -0.00072868    0.00067396
     atom  100 type  3   force =     0.00072892    0.00020496    0.00067373
     atom  101 type  3   force =    -0.00002984   -0.00035574    0.00014541
     atom  102 type  3   force =     0.00035565   -0.00002977    0.00014489
     atom  103 type  3   force =     0.00002988    0.00035565    0.00014515
     atom  104 type  3   force =    -0.00035564    0.00002996    0.00014510
     atom  105 type  3   force =     0.00133818   -0.00298678   -0.00009174
     atom  106 type  3   force =     0.00298712    0.00133828   -0.00009203
     atom  107 type  3   force =    -0.00133818    0.00298667   -0.00009211
     atom  108 type  3   force =    -0.00298722   -0.00133815   -0.00009180
     atom  109 type  3   force =    -0.00094215    0.00018607    0.00120877
     atom  110 type  3   force =    -0.00018595   -0.00094211    0.00120868
     atom  111 type  3   force =     0.00094213   -0.00018613    0.00120850
     atom  112 type  3   force =     0.00018605    0.00094213    0.00120864
     atom  113 type  3   force =     0.00276387    0.00142363   -0.00043181
     atom  114 type  3   force =    -0.00142386    0.00276411   -0.00043161
     atom  115 type  3   force =    -0.00276400   -0.00142366   -0.00043145
     atom  116 type  3   force =     0.00142379   -0.00276409   -0.00043170
     atom  117 type  3   force =     0.00033336   -0.00017974   -0.00090634
     atom  118 type  3   force =     0.00017950    0.00033320   -0.00090650
     atom  119 type  3   force =    -0.00033328    0.00017976   -0.00090688
     atom  120 type  3   force =    -0.00017979   -0.00033337   -0.00090655
     atom  121 type  3   force =     0.00045913    0.00015873   -0.00037471
     atom  122 type  3   force =    -0.00015875    0.00045897   -0.00037464
     atom  123 type  3   force =    -0.00045901   -0.00015884   -0.00037426
     atom  124 type  3   force =     0.00015877   -0.00045925   -0.00037433
     atom  125 type  3   force =    -0.00012269    0.00010497   -0.00021800
     atom  126 type  3   force =    -0.00010498   -0.00012265   -0.00021796
     atom  127 type  3   force =     0.00012257   -0.00010504   -0.00021795
     atom  128 type  3   force =     0.00010481    0.00012276   -0.00021773
     atom  129 type  3   force =    -0.00005159    0.00061215   -0.00059700
     atom  130 type  3   force =    -0.00061242   -0.00005158   -0.00059719
     atom  131 type  3   force =     0.00005155   -0.00061214   -0.00059697
     atom  132 type  3   force =     0.00061228    0.00005157   -0.00059681
     atom  133 type  3   force =     0.00011020    0.00059704    0.00012133
     atom  134 type  3   force =    -0.00059706    0.00011022    0.00012137
     atom  135 type  3   force =    -0.00011044   -0.00059711    0.00012097
     atom  136 type  3   force =     0.00059708   -0.00011016    0.00012114
     atom  137 type  3   force =     0.00057106    0.00060359   -0.00088473
     atom  138 type  3   force =    -0.00060360    0.00057120   -0.00088462
     atom  139 type  3   force =    -0.00057092   -0.00060353   -0.00088485
     atom  140 type  3   force =     0.00060356   -0.00057112   -0.00088490
     atom  141 type  3   force =    -0.00000407   -0.00000885   -0.00027495
     atom  142 type  3   force =     0.00000897   -0.00000404   -0.00027500
     atom  143 type  3   force =     0.00000408    0.00000897   -0.00027502
     atom  144 type  3   force =    -0.00000870    0.00000408   -0.00027501
     atom  145 type  3   force =     0.00149640   -0.00116143    0.00036937
     atom  146 type  3   force =     0.00116143    0.00149665    0.00036910
     atom  147 type  3   force =    -0.00149638    0.00116152    0.00036933
     atom  148 type  3   force =    -0.00116158   -0.00149657    0.00036935
     atom  149 type  3   force =     0.00000125   -0.00017031    0.00057382
     atom  150 type  3   force =     0.00017037    0.00000138    0.00057388
     atom  151 type  3   force =    -0.00000139    0.00017070    0.00057380
     atom  152 type  3   force =    -0.00017041   -0.00000147    0.00057393

     Total force =     0.025935     Total SCF correction =     0.000136


     Computing stress (Cartesian axis) and pressure

          total   stress  (Ry/bohr**3)                   (kbar)     P=   16.70
   0.00007767   0.00000000  -0.00000000         11.43      0.00     -0.00
   0.00000000   0.00007767   0.00000000          0.00     11.43      0.00
  -0.00000000   0.00000000   0.00018530         -0.00      0.00     27.26


     Writing output data file scf.save
 
     init_run     :     56.54s CPU     58.63s WALL (       1 calls)
     electrons    :   2348.98s CPU   2426.60s WALL (       1 calls)
     forces       :     28.14s CPU     28.50s WALL (       1 calls)
     stress       :    132.80s CPU    133.24s WALL (       1 calls)

     Called by init_run:
     wfcinit      :     50.78s CPU     52.53s WALL (       1 calls)
     potinit      :      2.09s CPU      2.26s WALL (       1 calls)

     Called by electrons:
     c_bands      :   2142.10s CPU   2206.50s WALL (      18 calls)
     sum_band     :    184.43s CPU    194.92s WALL (      18 calls)
     v_of_rho     :      2.76s CPU      3.06s WALL (      19 calls)
     newd         :      7.99s CPU     10.17s WALL (      19 calls)
     PAW_pot      :     10.81s CPU     10.81s WALL (      19 calls)
     mix_rho      :      0.70s CPU      0.75s WALL (      18 calls)

     Called by c_bands:
     init_us_2    :     10.01s CPU     10.07s WALL (     195 calls)
     cegterg      :   2104.97s CPU   2169.31s WALL (      90 calls)

     Called by sum_band:
     sum_band:bec :      0.09s CPU      0.09s WALL (      90 calls)
     addusdens    :      7.85s CPU      9.97s WALL (      18 calls)

     Called by *egterg:
     h_psi        :   1037.49s CPU   1088.14s WALL (     420 calls)
     s_psi        :    292.60s CPU    292.67s WALL (     420 calls)
     g_psi        :      4.89s CPU      4.89s WALL (     325 calls)
     cdiaghg      :    109.54s CPU    109.58s WALL (     415 calls)

     Called by h_psi:
     h_psi:pot    :   1031.00s CPU   1081.54s WALL (     420 calls)
     h_psi:calbec :    286.91s CPU    287.32s WALL (     420 calls)
     vloc_psi     :    451.43s CPU    501.50s WALL (     420 calls)
     add_vuspsi   :    292.65s CPU    292.72s WALL (     420 calls)

     General routines
     calbec       :    404.76s CPU    405.33s WALL (     535 calls)
     fft          :      1.57s CPU      2.09s WALL (     271 calls)
     fftw         :    474.70s CPU    532.35s WALL (  148000 calls)
 
     Parallel routines
     fft_scatter  :     84.67s CPU    137.37s WALL (  148271 calls)
 
     PWSCF        : 42m58.00s CPU    44m53.16s WALL

 
   This run was terminated on:   3:22:56   4Nov2017            

=------------------------------------------------------------------------------=
   JOB DONE.
=------------------------------------------------------------------------------=
