
     Program PWSCF v.6.1 (svn rev. 13369) starts on  4Nov2017 at  7: 6:55 

     This program is part of the open-source Quantum ESPRESSO suite
     for quantum simulation of materials; please cite
         "P. Giannozzi et al., J. Phys.:Condens. Matter 21 395502 (2009);
          URL http://www.quantum-espresso.org", 
     in publications or presentations arising from this work. More details at
     http://www.quantum-espresso.org/quote

     Parallel version (MPI), running on     8 processors
     R & G space division:  proc/nbgrp/npool/nimage =       8
     Waiting for input...
     Reading input from standard input

     Current dimensions of program PWSCF are:
     Max number of different atomic species (ntypx) = 10
     Max number of k-points (npk) =  40000
     Max angular momentum in pseudopotentials (lmaxx) =  3
               file C.pbe-n-kjpaw_psl.0.1.UPF: wavefunction(s)  2P renormalized
               file N.pbe-n-kjpaw_psl.0.1.UPF: wavefunction(s)  2P renormalized
               file H.pbe-kjpaw_psl.0.1.UPF: wavefunction(s)  1S renormalized
               file O.pbe-n-kjpaw_psl.0.1.UPF: wavefunction(s)  2P renormalized

     -------------------------------------
     Parameters for Dispersion Correction:
     -------------------------------------
       atom      VdW radius       C_6     

        C          2.744         60.710
        N          2.640         42.670
        H          1.892          4.857
        O          2.536         24.284

     Subspace diagonalization in iterative solution of the eigenvalue problem:
     a serial algorithm will be used

 
     Parallelization info
     --------------------
     sticks:   dense  smooth     PW     G-vecs:    dense   smooth      PW
     Min         443     443    120                43630    43630    6225
     Max         444     444    121                43636    43636    6230
     Sum        3545    3545    965               349061   349061   49813
 


     bravais-lattice index     =            0
     lattice parameter (alat)  =      17.1438  a.u.
     unit-cell volume          =    2583.0559 (a.u.)^3
     number of atoms/cell      =           52
     number of atomic types    =            4
     number of electrons       =       148.00
     number of Kohn-Sham states=           88
     kinetic-energy cutoff     =     100.0000  Ry
     charge density cutoff     =     400.0000  Ry
     convergence threshold     =      1.0E-08
     mixing beta               =       0.5000
     number of iterations used =            8  plain     mixing
     Exchange-correlation      =  SLA  PW   PBX  PBC ( 1  4  3  4 0 0)

     celldm(1)=  17.143784  celldm(2)=   0.000000  celldm(3)=   0.000000
     celldm(4)=   0.000000  celldm(5)=   0.000000  celldm(6)=   0.000000

     crystal axes: (cart. coord. in units of alat)
               a(1) = (   1.000000   0.000000   0.000000 )  
               a(2) = (   0.000000   0.378997   0.000000 )  
               a(3) = (  -0.064261   0.000000   1.352626 )  

     reciprocal axes: (cart. coord. in units 2 pi/alat)
               b(1) = (  1.000000  0.000000  0.047509 )  
               b(2) = (  0.000000  2.638542  0.000000 )  
               b(3) = (  0.000000  0.000000  0.739303 )  


     PseudoPot. # 1 for  C read from file:
     /scratch/ahofstet/pseudo/C.pbe-n-kjpaw_psl.0.1.UPF
     MD5 check sum: 430fe95172b1e11ef3f8ed03bac87931
     Pseudo is Projector augmented-wave + core cor, Zval =  4.0
     Generated using "atomic" code by A. Dal Corso  v.5.0.99 svn rev. 10869
     Shape of augmentation charge: BESSEL
     Using radial grid of 1073 points,  4 beta functions with: 
                l(1) =   0
                l(2) =   0
                l(3) =   1
                l(4) =   1
     Q(r) pseudized with 0 coefficients 


     PseudoPot. # 2 for  N read from file:
     /scratch/ahofstet/pseudo/N.pbe-n-kjpaw_psl.0.1.UPF
     MD5 check sum: f73187c8b701007e77325f868c9291d7
     Pseudo is Projector augmented-wave + core cor, Zval =  5.0
     Generated using "atomic" code by A. Dal Corso  v.5.0.99 svn rev. 10869
     Shape of augmentation charge: PSQ
     Using radial grid of 1085 points,  4 beta functions with: 
                l(1) =   0
                l(2) =   0
                l(3) =   1
                l(4) =   1
     Q(r) pseudized with 0 coefficients 


     PseudoPot. # 3 for  H read from file:
     /scratch/ahofstet/pseudo/H.pbe-kjpaw_psl.0.1.UPF
     MD5 check sum: 94e484f906d9e9773b2f6e52662335b2
     Pseudo is Projector augmented-wave, Zval =  1.0
     Generated using "atomic" code by A. Dal Corso  v.5.0.99 svn rev. 10869
     Shape of augmentation charge: PSQ
     Using radial grid of  929 points,  2 beta functions with: 
                l(1) =   0
                l(2) =   0
     Q(r) pseudized with 0 coefficients 


     PseudoPot. # 4 for  O read from file:
     /scratch/ahofstet/pseudo/O.pbe-n-kjpaw_psl.0.1.UPF
     MD5 check sum: 3f94a2996a3169367d6eb21d9b593f20
     Pseudo is Projector augmented-wave + core cor, Zval =  6.0
     Generated using "atomic" code by A. Dal Corso  v.5.0.99 svn rev. 10869
     Shape of augmentation charge: BESSEL
     Using radial grid of 1095 points,  4 beta functions with: 
                l(1) =   0
                l(2) =   0
                l(3) =   1
                l(4) =   1
     Q(r) pseudized with 0 coefficients 


     atomic species   valence    mass     pseudopotential
        C              4.00    12.01070      C( 1.00)
        N              5.00    14.00670      N( 1.00)
        H              1.00     1.00794      H( 1.00)
        O              6.00    15.99940      O( 1.00)

     No symmetry found
          (note:  1 additional sym.ops. were found but ignored
           their fractional translations are incommensurate with FFT grid)


   Cartesian axes

     site n.     atom                  positions (alat units)
         1           C   tau(   1) = (   0.3734678   0.0174558   0.4022094  )
         2           C   tau(   2) = (   0.5622708   0.2069544   0.9504167  )
         3           N   tau(   3) = (  -0.0847607   0.2783692   0.5088964  )
         4           N   tau(   4) = (   1.0204993   0.4678678   0.8437297  )
         5           H   tau(   5) = (   0.0086934   0.2578042   0.4493138  )
         6           H   tau(   6) = (   0.9270451   0.4473028   0.9033123  )
         7           H   tau(   7) = (  -0.1182132   0.3890771   0.5055149  )
         8           H   tau(   8) = (   1.0539518   0.5785757   0.8471112  )
         9           O   tau(   9) = (   0.2833758   0.0206163   0.5023972  )
        10           O   tau(  10) = (   0.6523628   0.2101148   0.8502289  )
        11           C   tau(  11) = (   0.3225397  -0.0411029   0.2584574  )
        12           C   tau(  12) = (   0.6131988   0.1483956   1.0941687  )
        13           C   tau(  13) = (   0.2144060   0.2391495   0.2608342  )
        14           C   tau(  14) = (   0.7213326   0.0496509   1.0917919  )
        15           H   tau(  15) = (   0.1799966   0.1926697   0.3659379  )
        16           H   tau(  16) = (   0.7557420   0.0031711   0.9866882  )
        17           C   tau(  17) = (   0.1765155   0.1675394   0.1304127  )
        18           C   tau(  18) = (   0.7592231  -0.0219592   1.2222134  )
        19           H   tau(  19) = (   0.0941747   0.0806128   0.1347768  )
        20           H   tau(  20) = (   0.8415638  -0.1088858   1.2178493  )
        21           C   tau(  21) = (   0.2023400   0.2386089  -0.0034801  )
        22           C   tau(  22) = (   0.7333986   0.0491103   1.3561062  )
        23           H   tau(  23) = (   0.0940289   0.1905553   1.2484517  )
        24           H   tau(  24) = (   0.8417096   0.0010568   0.1041744  )
        25           C   tau(  25) = (   0.2447266   0.3381070   1.3451470  )
        26           C   tau(  26) = (   0.6910119   0.1486084   0.0074792  )
        27           H   tau(  27) = (   0.2741744   0.3890580   1.2408438  )
        28           H   tau(  28) = (   0.6615642   0.1995594   0.1117823  )
        29           C   tau(  29) = (   0.3529519   0.0269202   0.1236592  )
        30           C   tau(  30) = (   0.5827866   0.2164187   1.2289669  )
        31           H   tau(  31) = (   0.4373485   0.1116891   0.1196071  )
        32           H   tau(  32) = (   0.4983901   0.3011876   1.2330190  )
        33           C   tau(  33) = (   0.5235001   0.0767654   0.4253364  )
        34           C   tau(  34) = (   0.4122384   0.2662640   0.9272897  )
        35           C   tau(  35) = (   0.6545284   0.0058219   0.3800225  )
        36           C   tau(  36) = (   0.2812102   0.1953205   0.9726036  )
        37           H   tau(  37) = (   0.6450233   0.3075721   0.2888025  )
        38           H   tau(  38) = (   0.2907152   0.1180735   1.0638236  )
        39           C   tau(  39) = (   0.7912839   0.0884363   0.3827704  )
        40           C   tau(  40) = (   0.1444547   0.2779349   0.9698557  )
        41           H   tau(  41) = (   0.8766414   0.0724459   0.2990741  )
        42           H   tau(  42) = (   0.0590972   0.2619444   1.0535520  )
        43           C   tau(  43) = (   0.7994170   0.1969071   0.4833813  )
        44           C   tau(  44) = (   0.1363216   0.3864057   0.8692448  )
        45           C   tau(  45) = (   0.6635268   0.2616588   0.5333032  )
        46           C   tau(  46) = (   0.2722117   0.4511574   0.8193229  )
        47           H   tau(  47) = (   0.6745469   0.3392238   0.6237074  )
        48           H   tau(  48) = (   0.2611917   0.1497252   0.7289188  )
        49           C   tau(  49) = (   0.5342949   0.1801781   0.5274426  )
        50           C   tau(  50) = (   0.4014437   0.3696767   0.8251836  )
        51           H   tau(  51) = (   0.4359312   0.2176753   0.5845755  )
        52           H   tau(  52) = (   0.4998073   0.0281767   0.7680506  )

     number of k points=    12
                       cart. coord. in units 2pi/alat
        k(    1) = (   0.0000000   0.0000000   0.0000000), wk =   0.1000000
        k(    2) = (   0.0000000   0.0000000  -0.3696513), wk =   0.1000000
        k(    3) = (   0.0000000   0.5277085   0.0000000), wk =   0.2000000
        k(    4) = (   0.0000000   0.5277085  -0.3696513), wk =   0.2000000
        k(    5) = (   0.0000000   1.0554169   0.0000000), wk =   0.2000000
        k(    6) = (   0.0000000   1.0554169  -0.3696513), wk =   0.2000000
        k(    7) = (  -0.5000000   0.0000000  -0.0237543), wk =   0.1000000
        k(    8) = (  -0.5000000   0.0000000  -0.3934056), wk =   0.1000000
        k(    9) = (  -0.5000000   0.5277085  -0.0237543), wk =   0.2000000
        k(   10) = (  -0.5000000   0.5277085  -0.3934056), wk =   0.2000000
        k(   11) = (  -0.5000000   1.0554169  -0.0237543), wk =   0.2000000
        k(   12) = (  -0.5000000   1.0554169  -0.3934056), wk =   0.2000000

     Dense  grid:   349061 G-vectors     FFT dimensions: ( 120,  45, 150)

     Estimated max dynamical RAM per process >     208.04MB

     Estimated total allocated dynamical RAM >    1664.36MB

     Check: negative/imaginary core charge=   -0.000002    0.000000

     Initial potential from superposition of free atoms

     starting charge  147.99869, renormalised to  148.00000
     Starting wfc are  142 randomized atomic wfcs
     Checking if some PAW data can be deallocated... 

     total cpu time spent up to now is       14.0 secs

     per-process dynamical memory:   218.6 Mb

     Self-consistent Calculation

     iteration #  1     ecut=   100.00 Ry     beta=0.50
     Davidson diagonalization with overlap
     ethr =  1.00E-02,  avg # of iterations =  4.7

     total cpu time spent up to now is       39.8 secs

     total energy              =    -643.51372633 Ry
     Harris-Foulkes estimate   =    -646.61792600 Ry
     estimated scf accuracy    <       5.90562813 Ry

     iteration #  2     ecut=   100.00 Ry     beta=0.50
     Davidson diagonalization with overlap
     ethr =  3.99E-03,  avg # of iterations =  2.0

     total cpu time spent up to now is       53.8 secs

     total energy              =    -643.47397965 Ry
     Harris-Foulkes estimate   =    -644.00448023 Ry
     estimated scf accuracy    <       0.95100948 Ry

     iteration #  3     ecut=   100.00 Ry     beta=0.50
     Davidson diagonalization with overlap
     ethr =  6.43E-04,  avg # of iterations =  5.0

     total cpu time spent up to now is       83.8 secs

     total energy              =    -644.33682221 Ry
     Harris-Foulkes estimate   =    -644.99036986 Ry
     estimated scf accuracy    <       2.18632330 Ry

     iteration #  4     ecut=   100.00 Ry     beta=0.50
     Davidson diagonalization with overlap
     ethr =  6.43E-04,  avg # of iterations =  1.6

     total cpu time spent up to now is       97.2 secs

     total energy              =    -644.26130568 Ry
     Harris-Foulkes estimate   =    -644.47604836 Ry
     estimated scf accuracy    <       0.64046133 Ry

     iteration #  5     ecut=   100.00 Ry     beta=0.50
     Davidson diagonalization with overlap
     ethr =  4.33E-04,  avg # of iterations =  6.1

     total cpu time spent up to now is      119.8 secs

     total energy              =    -644.43235661 Ry
     Harris-Foulkes estimate   =    -644.45090011 Ry
     estimated scf accuracy    <       0.04562928 Ry

     iteration #  6     ecut=   100.00 Ry     beta=0.50
     Davidson diagonalization with overlap
     ethr =  3.08E-05,  avg # of iterations =  6.3

     total cpu time spent up to now is      147.9 secs

     total energy              =    -644.43878309 Ry
     Harris-Foulkes estimate   =    -644.45955460 Ry
     estimated scf accuracy    <       0.04392482 Ry

     iteration #  7     ecut=   100.00 Ry     beta=0.50
     Davidson diagonalization with overlap
     ethr =  2.97E-05,  avg # of iterations =  1.2

     total cpu time spent up to now is      161.1 secs

     total energy              =    -644.44104240 Ry
     Harris-Foulkes estimate   =    -644.44335870 Ry
     estimated scf accuracy    <       0.00435821 Ry

     iteration #  8     ecut=   100.00 Ry     beta=0.50
     Davidson diagonalization with overlap
     ethr =  2.94E-06,  avg # of iterations =  4.9

     total cpu time spent up to now is      191.6 secs

     total energy              =    -644.44730825 Ry
     Harris-Foulkes estimate   =    -644.44969510 Ry
     estimated scf accuracy    <       0.00692639 Ry

     iteration #  9     ecut=   100.00 Ry     beta=0.50
     Davidson diagonalization with overlap
     c_bands:  1 eigenvalues not converged
     ethr =  2.94E-06,  avg # of iterations =  2.6

     total cpu time spent up to now is      205.8 secs

     total energy              =    -644.44651301 Ry
     Harris-Foulkes estimate   =    -644.44756330 Ry
     estimated scf accuracy    <       0.00238226 Ry

     iteration # 10     ecut=   100.00 Ry     beta=0.50
     Davidson diagonalization with overlap
     ethr =  1.61E-06,  avg # of iterations =  4.3

     total cpu time spent up to now is      228.5 secs

     total energy              =    -644.44760335 Ry
     Harris-Foulkes estimate   =    -644.44771392 Ry
     estimated scf accuracy    <       0.00029404 Ry

     iteration # 11     ecut=   100.00 Ry     beta=0.50
     Davidson diagonalization with overlap
     ethr =  1.99E-07,  avg # of iterations =  1.1

     total cpu time spent up to now is      241.7 secs

     total energy              =    -644.44760825 Ry
     Harris-Foulkes estimate   =    -644.44762893 Ry
     estimated scf accuracy    <       0.00006368 Ry

     iteration # 12     ecut=   100.00 Ry     beta=0.50
     Davidson diagonalization with overlap
     ethr =  4.30E-08,  avg # of iterations =  4.0

     total cpu time spent up to now is      264.7 secs

     total energy              =    -644.44764380 Ry
     Harris-Foulkes estimate   =    -644.44764518 Ry
     estimated scf accuracy    <       0.00000579 Ry

     iteration # 13     ecut=   100.00 Ry     beta=0.50
     Davidson diagonalization with overlap
     ethr =  3.91E-09,  avg # of iterations =  3.0

     total cpu time spent up to now is      279.6 secs

     total energy              =    -644.44764447 Ry
     Harris-Foulkes estimate   =    -644.44764479 Ry
     estimated scf accuracy    <       0.00000166 Ry

     iteration # 14     ecut=   100.00 Ry     beta=0.50
     Davidson diagonalization with overlap
     ethr =  1.12E-09,  avg # of iterations =  4.7

     total cpu time spent up to now is      302.1 secs

     total energy              =    -644.44764470 Ry
     Harris-Foulkes estimate   =    -644.44764519 Ry
     estimated scf accuracy    <       0.00000151 Ry

     iteration # 15     ecut=   100.00 Ry     beta=0.50
     Davidson diagonalization with overlap
     ethr =  1.02E-09,  avg # of iterations =  1.2

     total cpu time spent up to now is      315.3 secs

     total energy              =    -644.44764456 Ry
     Harris-Foulkes estimate   =    -644.44764476 Ry
     estimated scf accuracy    <       0.00000057 Ry

     iteration # 16     ecut=   100.00 Ry     beta=0.50
     Davidson diagonalization with overlap
     ethr =  3.83E-10,  avg # of iterations =  4.0

     total cpu time spent up to now is      335.9 secs

     total energy              =    -644.44764476 Ry
     Harris-Foulkes estimate   =    -644.44764476 Ry
     estimated scf accuracy    <       0.00000001 Ry

     iteration # 17     ecut=   100.00 Ry     beta=0.50
     Davidson diagonalization with overlap
     ethr =  9.95E-12,  avg # of iterations =  4.3

     total cpu time spent up to now is      361.9 secs

     End of self-consistent calculation

          k = 0.0000 0.0000 0.0000 ( 43679 PWs)   bands (ev):

   -17.6690 -17.6569 -15.9088 -15.8908 -14.2553 -14.1961 -13.6384 -13.6100
   -11.2633 -11.2327 -10.3808 -10.3533  -9.8990  -9.6714  -9.3163  -9.1919
    -7.6284  -7.4917  -7.3847  -7.3287  -6.9813  -6.9611  -5.9806  -5.8705
    -5.3513  -5.2324  -4.9279  -4.8751  -4.3084  -4.2649  -4.1108  -3.8863
    -3.4613  -3.4029  -3.1634  -3.0993  -2.9307  -2.8715  -2.7193  -2.6934
    -2.6235  -2.5579  -2.5179  -2.2764  -2.1232  -1.9757  -1.9088  -1.7286
    -1.1924  -1.1777  -0.9422  -0.8812  -0.4376  -0.3130  -0.2955  -0.1334
     0.0321   0.1234   0.1849   0.2351   0.5090   0.5223   0.9412   0.9619
     1.0922   1.1325   1.7852   1.8539   2.1065   2.2268   2.5886   2.6519
     2.9520   3.0324   5.3400   5.5953   6.4954   6.5941   8.0223   8.0268
     8.1608   8.3116   8.9054   9.0683   9.6435   9.7289  10.0153  10.0241

          k = 0.0000 0.0000-0.3697 ( 43652 PWs)   bands (ev):

   -17.6689 -17.6570 -15.9088 -15.8909 -14.2553 -14.1962 -13.6411 -13.6060
   -11.2581 -11.2470 -10.4154 -10.3149  -9.8593  -9.7150  -9.2502  -9.2371
    -7.6319  -7.5347  -7.3801  -7.3362  -6.9601  -6.9578  -5.9363  -5.9156
    -5.3900  -5.1550  -4.9858  -4.7855  -4.3122  -4.2904  -4.0889  -3.8870
    -3.6122  -3.3421  -3.1880  -3.0626  -2.9546  -2.8717  -2.7591  -2.6897
    -2.5959  -2.4589  -2.4043  -2.3682  -2.1619  -2.1549  -1.8190  -1.5650
    -1.2347  -1.2054  -0.9123  -0.9014  -0.4581  -0.4052  -0.2709  -0.0838
     0.0474   0.1082   0.1490   0.3486   0.4017   0.5227   0.9309   1.0083
     1.0960   1.0973   1.7975   1.8572   2.1147   2.2293   2.5499   2.6995
     2.9267   3.0609   5.4427   5.4821   6.4855   6.6118   8.0079   8.0260
     8.1923   8.3269   8.8913   9.0232   9.6091   9.7755   9.8332  10.0688

          k = 0.0000 0.5277 0.0000 ( 43605 PWs)   bands (ev):

   -17.6197 -17.6103 -15.6574 -15.6398 -13.9679 -13.9129 -13.3976 -13.3738
   -11.0839 -11.0510 -10.4396 -10.4179 -10.1979 -10.0759  -9.7859  -9.7409
    -7.8590  -7.7380  -7.3975  -7.2884  -7.0580  -7.0156  -6.3588  -6.3167
    -5.7335  -5.5818  -5.2073  -5.1418  -4.5291  -4.2853  -4.1983  -4.1144
    -3.4579  -3.4213  -3.0731  -2.9962  -2.9278  -2.8275  -2.6929  -2.6613
    -2.4579  -2.3162  -2.3131  -2.2494  -2.0196  -1.8761  -1.7595  -1.7043
    -1.5513  -1.4610  -1.1465  -1.1214  -0.7968  -0.6925  -0.5480  -0.4905
    -0.0524  -0.0393   0.0490   0.2231   0.3969   0.4825   0.9149   1.0279
     1.7452   1.8426   2.0937   2.2866   2.3362   2.4635   2.8109   2.9089
     3.2667   3.4020   5.5670   5.7988   7.0327   7.0334   7.1803   7.4483
     8.0733   8.1293   8.8206   8.8335   9.1131   9.5363   9.7772  10.0107

          k = 0.0000 0.5277-0.3697 ( 43658 PWs)   bands (ev):

   -17.6196 -17.6104 -15.6573 -15.6400 -13.9683 -13.9127 -13.4014 -13.3687
   -11.0794 -11.0664 -10.4670 -10.3827 -10.1743 -10.0975  -9.7722  -9.7489
    -7.8471  -7.7628  -7.3559  -7.3441  -7.0576  -7.0004  -6.3514  -6.3270
    -5.6926  -5.6055  -5.2491  -5.1211  -4.4156  -4.3523  -4.1860  -4.1731
    -3.4798  -3.3861  -3.0850  -3.0396  -2.8205  -2.8046  -2.7735  -2.6225
    -2.4696  -2.4542  -2.2757  -2.2403  -1.8988  -1.8329  -1.7950  -1.7195
    -1.5288  -1.5199  -1.1188  -1.1008  -0.8528  -0.6882  -0.5248  -0.4890
    -0.0872  -0.0617   0.0901   0.1135   0.4703   0.5015   0.9189   1.0216
     1.7592   1.8146   2.1348   2.1996   2.4057   2.4396   2.8213   2.9257
     3.2675   3.4048   5.5558   5.8117   7.0449   7.0467   7.1613   7.4336
     8.0915   8.0969   8.8327   8.9757   9.0131   9.4694   9.6942   9.8550

          k = 0.0000 1.0554 0.0000 ( 43582 PWs)   bands (ev):

   -17.5379 -17.5346 -15.1162 -15.1060 -13.2662 -13.2317 -12.8789 -12.8749
   -11.2424 -11.2248 -11.0562 -11.0413 -10.6387 -10.6027 -10.4768 -10.4439
    -7.9165  -7.8993  -7.3837  -7.3084  -6.9513  -6.9324  -6.8378  -6.7945
    -5.9635  -5.8318  -5.3260  -5.2772  -4.7707  -4.6797  -4.4486  -4.2612
    -3.6273  -3.5018  -3.1553  -3.1076  -3.0122  -2.9777  -2.8944  -2.8430
    -2.6022  -2.5635  -2.4269  -2.4146  -1.8816  -1.8093  -1.7590  -1.7285
    -1.5726  -1.3022  -1.2014  -1.1681  -0.9797  -0.9365  -0.7069  -0.6642
    -0.3976  -0.3176  -0.0266   0.1267   0.1523   0.3869   0.8696   0.9311
     1.3603   1.4105   2.5757   2.6624   3.1940   3.2699   3.8812   4.1040
     4.4835   4.5325   5.3392   5.4517   6.2995   6.4576   7.2594   7.4550
     8.0164   8.0294   8.7035   8.7981   9.2496   9.6514  10.0606  10.1320

          k = 0.0000 1.0554-0.3697 ( 43594 PWs)   bands (ev):

   -17.5379 -17.5347 -15.1161 -15.1060 -13.2673 -13.2311 -12.8854 -12.8672
   -11.2459 -11.2295 -11.0491 -11.0428 -10.6343 -10.6074 -10.4688 -10.4481
    -7.9472  -7.8812  -7.3631  -7.3282  -6.9598  -6.8914  -6.8289  -6.8281
    -5.8896  -5.8773  -5.3235  -5.2716  -4.7805  -4.7358  -4.4254  -4.3041
    -3.5506  -3.5209  -3.1399  -3.1294  -3.0772  -2.9952  -2.9068  -2.7788
    -2.5568  -2.5523  -2.4559  -2.3955  -1.9224  -1.8213  -1.6731  -1.6332
    -1.5371  -1.3878  -1.2846  -1.1957  -0.9702  -0.9649  -0.7264  -0.6675
    -0.3465  -0.3082   0.0410   0.0608   0.2032   0.3284   0.8902   0.9167
     1.3582   1.3921   2.5960   2.6669   3.1691   3.2735   3.9036   4.0882
     4.5200   4.5216   5.1835   5.6137   6.3072   6.4310   7.3574   7.3766
     7.9760   8.0696   8.6822   8.8154   9.2661   9.6357  10.0848  10.1012

          k =-0.5000 0.0000-0.0238 ( 43678 PWs)   bands (ev):

   -17.6682 -17.6565 -15.9143 -15.8924 -14.2405 -14.2144 -13.6169 -13.6070
   -11.2405 -11.2394 -10.4103 -10.3949  -9.8945  -9.7248  -9.2780  -9.1893
    -7.6062  -7.5117  -7.3762  -7.3299  -6.8402  -6.8259  -6.1349  -6.0681
    -5.2805  -5.1172  -4.8091  -4.8015  -4.3386  -4.3271  -4.2049  -4.1337
    -3.4185  -3.3265  -3.2725  -3.0578  -2.9667  -2.9587  -2.7917  -2.6859
    -2.5771  -2.5597  -2.2990  -2.2156  -2.0762  -2.0195  -1.9531  -1.6878
    -1.2571  -1.1432  -0.8672  -0.8647  -0.4686  -0.3376  -0.2942  -0.1701
    -0.0948   0.1450   0.2807   0.2986   0.3942   0.6188   0.8798   1.0361
     1.0469   1.1674   1.7857   1.8343   2.1522   2.2063   2.5506   2.7039
     2.9299   3.0485   5.4388   5.5559   6.4393   6.4650   7.7237   8.1391
     8.2935   8.6697   8.9078   9.0972   9.2764   9.5139   9.6798  10.0667

          k =-0.5000 0.0000-0.3934 ( 43624 PWs)   bands (ev):

   -17.6681 -17.6566 -15.9143 -15.8925 -14.2415 -14.2137 -13.6217 -13.6007
   -11.2544 -11.2361 -10.4354 -10.3670  -9.8405  -9.7678  -9.2482  -9.2121
    -7.6135  -7.5502  -7.3729  -7.3325  -6.8444  -6.7911  -6.1096  -6.1023
    -5.2722  -5.1118  -4.8793  -4.6634  -4.3914  -4.3029  -4.1823  -4.1467
    -3.5635  -3.3347  -3.1412  -3.1246  -3.0272  -2.9500  -2.8035  -2.7084
    -2.5011  -2.4353  -2.2925  -2.2164  -2.1281  -2.1259  -1.8732  -1.6193
    -1.3211  -1.1302  -0.8632  -0.8620  -0.4846  -0.4271  -0.2786  -0.1047
    -0.0436   0.0271   0.2850   0.3458   0.4280   0.6211   0.8288   0.9818
     1.0594   1.2196   1.7849   1.8340   2.1499   2.2165   2.5934   2.6623
     2.9292   3.0690   5.4362   5.5716   6.3480   6.5356   7.7329   8.1091
     8.3124   8.7240   8.9251   9.1627   9.2462   9.3139   9.6520  10.0099

          k =-0.5000 0.5277-0.0238 ( 43658 PWs)   bands (ev):

   -17.6192 -17.6101 -15.6611 -15.6411 -13.9551 -13.9302 -13.3807 -13.3705
   -11.0605 -11.0582 -10.4553 -10.4348 -10.2085 -10.1056  -9.7702  -9.7452
    -7.8709  -7.7446  -7.3767  -7.2765  -6.9689  -6.9669  -6.3841  -6.3678
    -5.7494  -5.6102  -5.1673  -5.0980  -4.5209  -4.3865  -4.2344  -4.1430
    -3.4456  -3.4236  -3.0789  -3.0196  -2.8576  -2.8426  -2.6478  -2.6473
    -2.4650  -2.4045  -2.3301  -2.1269  -2.0323  -1.9220  -1.7623  -1.7501
    -1.4805  -1.3966  -1.1504  -1.1270  -0.7797  -0.7177  -0.5290  -0.5134
    -0.1196  -0.1174   0.1562   0.2376   0.2955   0.4972   0.8895   1.1258
     1.7418   1.8231   2.1768   2.2472   2.3789   2.4255   2.7980   2.9404
     3.2270   3.4448   5.6200   5.8148   6.8915   6.9379   7.2322   7.2923
     8.1691   8.2028   8.8355   8.8481   9.0140   9.3677   9.8713  10.0867

          k =-0.5000 0.5277-0.3934 ( 43626 PWs)   bands (ev):

   -17.6191 -17.6102 -15.6611 -15.6412 -13.9563 -13.9293 -13.3867 -13.3631
   -11.0742 -11.0566 -10.4766 -10.4078 -10.1746 -10.1298  -9.7572  -9.7568
    -7.8514  -7.7813  -7.3390  -7.3184  -6.9723  -6.9543  -6.3983  -6.3513
    -5.7382  -5.6097  -5.2206  -5.0389  -4.4952  -4.3653  -4.2889  -4.1758
    -3.4284  -3.3694  -3.1125  -3.0960  -2.8613  -2.7375  -2.6653  -2.6327
    -2.4680  -2.4631  -2.2836  -2.2110  -2.0173  -1.8264  -1.7723  -1.7255
    -1.4719  -1.4552  -1.1516  -1.0761  -0.7952  -0.7756  -0.5200  -0.4948
    -0.1437  -0.0714   0.0777   0.1474   0.4292   0.4719   0.9278   1.1102
     1.7482   1.8085   2.1744   2.2257   2.3885   2.4329   2.8179   2.9487
     3.2248   3.4484   5.5913   5.8374   6.8601   6.9934   7.2249   7.2936
     8.0890   8.2994   8.7733   8.7835   9.1462   9.3565   9.6654  10.1770

          k =-0.5000 1.0554-0.0238 ( 43566 PWs)   bands (ev):

   -17.5378 -17.5346 -15.1168 -15.1060 -13.2600 -13.2422 -12.8774 -12.8725
   -11.2338 -11.2234 -11.0665 -11.0594 -10.6225 -10.5938 -10.4623 -10.4457
    -7.9739  -7.9565  -7.3330  -7.2712  -6.9317  -6.8992  -6.8499  -6.7637
    -6.0205  -5.9087  -5.3712  -5.3425  -4.6644  -4.5753  -4.3127  -4.2093
    -3.7510  -3.7112  -3.1199  -3.1028  -3.0326  -2.9474  -2.8613  -2.8518
    -2.5434  -2.5177  -2.3717  -2.3459  -1.9090  -1.8514  -1.7494  -1.7292
    -1.5631  -1.5325  -1.2432  -1.1102  -1.0629  -0.9380  -0.6397  -0.6207
    -0.2707  -0.2569  -0.0511   0.1042   0.1461   0.2679   0.8503   0.9231
     1.3536   1.4151   2.6230   2.6557   3.2505   3.3501   3.9523   3.9735
     4.4007   4.5862   5.3996   5.4160   6.2121   6.4949   7.1531   7.2456
     8.0497   8.1291   8.7120   8.8132   9.4348   9.5240  10.2052  10.2796

          k =-0.5000 1.0554-0.3934 ( 43592 PWs)   bands (ev):

   -17.5378 -17.5346 -15.1167 -15.1060 -13.2614 -13.2411 -12.8860 -12.8627
   -11.2422 -11.2231 -11.0618 -11.0588 -10.6149 -10.6011 -10.4596 -10.4453
    -7.9975  -7.9427  -7.3242  -7.2804  -6.9277  -6.9002  -6.8194  -6.7918
    -5.9666  -5.9364  -5.3952  -5.3137  -4.6737  -4.6055  -4.3462  -4.2060
    -3.7323  -3.7075  -3.1198  -3.0824  -3.0434  -3.0380  -2.9002  -2.7378
    -2.5288  -2.4795  -2.3954  -2.3059  -1.9741  -1.8588  -1.7052  -1.6334
    -1.5802  -1.4859  -1.2665  -1.2219  -1.0775  -0.9553  -0.6476  -0.6420
    -0.2348  -0.2285  -0.0200   0.0852   0.1891   0.2021   0.8394   0.9406
     1.3536   1.3938   2.6253   2.6744   3.2277   3.3582   3.9460   3.9839
     4.4170   4.5878   5.2753   5.5053   6.3434   6.4074   7.1770   7.2199
     8.0667   8.1069   8.7357   8.7924   9.4434   9.5421  10.1920  10.2853

     highest occupied, lowest unoccupied level (ev):     4.5878    5.1835

!    total energy              =    -644.44764477 Ry
     Harris-Foulkes estimate   =    -644.44764478 Ry
     estimated scf accuracy    <          9.0E-09 Ry

     total all-electron energy =     -2526.605573 Ry

     The total energy is the sum of the following terms:

     one-electron contribution =    -279.12122965 Ry
     hartree contribution      =     206.00833270 Ry
     xc contribution           =    -150.82133269 Ry
     ewald contribution        =    -211.49065150 Ry
     Dispersion Correction     =      -0.36473361 Ry
     one-center paw contrib.   =    -208.65803003 Ry

     convergence has been achieved in  17 iterations

     Forces acting on atoms (cartesian axes, Ry/au):

     atom    1 type  1   force =     0.02796272   -0.00418673   -0.03480698
     atom    2 type  1   force =    -0.02796052   -0.00418256    0.03480593
     atom    3 type  2   force =     0.10187659    0.00317052    0.04254099
     atom    4 type  2   force =    -0.10187630    0.00317085   -0.04254204
     atom    5 type  3   force =    -0.00360510    0.00487138    0.00428328
     atom    6 type  3   force =     0.00360545    0.00487133   -0.00428382
     atom    7 type  3   force =     0.03591018   -0.01873180    0.03206299
     atom    8 type  3   force =    -0.03590982   -0.01873217   -0.03206304
     atom    9 type  4   force =    -0.04292404    0.00218803    0.04343218
     atom   10 type  4   force =     0.04291814    0.00218837   -0.04342492
     atom   11 type  1   force =     0.06539294    0.06711019    0.02056744
     atom   12 type  1   force =    -0.06539282    0.06711445   -0.02056731
     atom   13 type  1   force =    -0.06841487   -0.07739905    0.01963339
     atom   14 type  1   force =     0.06841546   -0.07739549   -0.01963294
     atom   15 type  3   force =     0.00032867    0.00027310   -0.00400040
     atom   16 type  3   force =    -0.00032806    0.00027292    0.00399997
     atom   17 type  1   force =    -0.09799045    0.03906034    0.01522764
     atom   18 type  1   force =     0.09799132    0.03905723   -0.01522706
     atom   19 type  3   force =    -0.00551337   -0.00250848   -0.00028306
     atom   20 type  3   force =     0.00551364   -0.00250832    0.00028293
     atom   21 type  1   force =    -0.04255240   -0.07391583   -0.03226044
     atom   22 type  1   force =     0.04255261   -0.07391160    0.03225992
     atom   23 type  3   force =    -0.00072165   -0.00178746    0.00271554
     atom   24 type  3   force =     0.00072185   -0.00178750   -0.00271586
     atom   25 type  1   force =     0.04089268    0.07578639   -0.03405082
     atom   26 type  1   force =    -0.04089241    0.07579029    0.03405120
     atom   27 type  3   force =     0.00486269    0.00091951   -0.00107212
     atom   28 type  3   force =    -0.00486221    0.00091941    0.00107165
     atom   29 type  1   force =     0.09492898   -0.03696648   -0.00377315
     atom   30 type  1   force =    -0.09492842   -0.03696133    0.00377387
     atom   31 type  3   force =     0.00375527    0.00304568   -0.00029648
     atom   32 type  3   force =    -0.00375531    0.00304607    0.00029635
     atom   33 type  1   force =    -0.09038211   -0.02765687   -0.02272302
     atom   34 type  1   force =     0.09037938   -0.02765545    0.02272127
     atom   35 type  1   force =     0.04295575   -0.02433261   -0.04447717
     atom   36 type  1   force =    -0.04295633   -0.02433777    0.04447553
     atom   37 type  3   force =    -0.00588632    0.00103467   -0.00689648
     atom   38 type  3   force =     0.00588642    0.00103478    0.00689592
     atom   39 type  1   force =    -0.03895996   -0.00902429   -0.09641721
     atom   40 type  1   force =     0.03896053   -0.00902196    0.09641619
     atom   41 type  3   force =    -0.00034968   -0.00269957    0.01229203
     atom   42 type  3   force =     0.00035064   -0.00269946   -0.01229283
     atom   43 type  1   force =    -0.03941309    0.01850668    0.00935622
     atom   44 type  1   force =     0.03941469    0.01850670   -0.00935678
     atom   45 type  1   force =     0.06229039    0.02886443    0.02976864
     atom   46 type  1   force =    -0.06229131    0.02886557   -0.02976798
     atom   47 type  3   force =     0.00461990    0.00094846    0.00896869
     atom   48 type  3   force =    -0.00461976    0.00094818   -0.00896853
     atom   49 type  1   force =    -0.05629864    0.03379542    0.04081221
     atom   50 type  1   force =     0.05629831    0.03379423   -0.04081151
     atom   51 type  3   force =     0.00591906   -0.00037605    0.00339483
     atom   52 type  3   force =    -0.00591933   -0.00037635   -0.00339484

     Total force =     0.486607     Total SCF correction =     0.000248


     Computing stress (Cartesian axis) and pressure

          total   stress  (Ry/bohr**3)                   (kbar)     P=  178.19
   0.00104950   0.00000000   0.00005233        154.39      0.00      7.70
   0.00000000   0.00186083   0.00000000          0.00    273.74      0.00
   0.00005233   0.00000000   0.00072362          7.70      0.00    106.45


     Writing output data file scf.save
 
     init_run     :     12.72s CPU     13.24s WALL (       1 calls)
     electrons    :    337.57s CPU    348.05s WALL (       1 calls)
     forces       :      6.81s CPU      6.85s WALL (       1 calls)
     stress       :     21.30s CPU     21.32s WALL (       1 calls)

     Called by init_run:
     wfcinit      :      7.61s CPU      8.00s WALL (       1 calls)
     potinit      :      1.87s CPU      1.90s WALL (       1 calls)

     Called by electrons:
     c_bands      :    295.13s CPU    304.84s WALL (      17 calls)
     sum_band     :     35.40s CPU     35.95s WALL (      17 calls)
     v_of_rho     :      0.91s CPU      0.98s WALL (      18 calls)
     newd         :      1.88s CPU      1.93s WALL (      18 calls)
     PAW_pot      :      3.67s CPU      3.68s WALL (      18 calls)
     mix_rho      :      0.21s CPU      0.23s WALL (      17 calls)

     Called by c_bands:
     init_us_2    :      3.56s CPU      3.55s WALL (     444 calls)
     cegterg      :    283.16s CPU    292.86s WALL (     204 calls)

     Called by sum_band:
     sum_band:bec :      0.04s CPU      0.04s WALL (     204 calls)
     addusdens    :      1.94s CPU      1.94s WALL (      17 calls)

     Called by *egterg:
     h_psi        :    180.51s CPU    190.28s WALL (     947 calls)
     s_psi        :     23.65s CPU     23.66s WALL (     947 calls)
     g_psi        :      1.68s CPU      1.67s WALL (     731 calls)
     cdiaghg      :     19.27s CPU     19.30s WALL (     935 calls)

     Called by h_psi:
     h_psi:pot    :    178.84s CPU    188.58s WALL (     947 calls)
     h_psi:calbec :     23.67s CPU     23.86s WALL (     947 calls)
     vloc_psi     :    131.59s CPU    141.15s WALL (     947 calls)
     add_vuspsi   :     23.57s CPU     23.58s WALL (     947 calls)

     General routines
     calbec       :     34.01s CPU     34.24s WALL (    1211 calls)
     fft          :      0.51s CPU      0.68s WALL (     258 calls)
     fftw         :    139.22s CPU    148.73s WALL (  129120 calls)
 
     Parallel routines
     fft_scatter  :     31.97s CPU     36.70s WALL (  129378 calls)
 
     PWSCF        :  6m22.25s CPU     6m34.57s WALL

 
   This run was terminated on:   7:13:30   4Nov2017            

=------------------------------------------------------------------------------=
   JOB DONE.
=------------------------------------------------------------------------------=
