
     Program PWSCF v.6.1 (svn rev. 13369) starts on 20Jan2018 at 15: 6:50 

     This program is part of the open-source Quantum ESPRESSO suite
     for quantum simulation of materials; please cite
         "P. Giannozzi et al., J. Phys.:Condens. Matter 21 395502 (2009);
          URL http://www.quantum-espresso.org", 
     in publications or presentations arising from this work. More details at
     http://www.quantum-espresso.org/quote

     Parallel version (MPI), running on     8 processors
     R & G space division:  proc/nbgrp/npool/nimage =       8
     Waiting for input...
     Reading input from standard input

     Current dimensions of program PWSCF are:
     Max number of different atomic species (ntypx) = 10
     Max number of k-points (npk) =  40000
     Max angular momentum in pseudopotentials (lmaxx) =  3
               file C.pbe-n-kjpaw_psl.0.1.UPF: wavefunction(s)  2P renormalized
               file N.pbe-n-kjpaw_psl.0.1.UPF: wavefunction(s)  2P renormalized
               file H.pbe-kjpaw_psl.0.1.UPF: wavefunction(s)  1S renormalized
               file O.pbe-n-kjpaw_psl.0.1.UPF: wavefunction(s)  2P renormalized

     -------------------------------------
     Parameters for Dispersion Correction:
     -------------------------------------
       atom      VdW radius       C_6     

        C          2.744         60.710
        N          2.640         42.670
        H          1.892          4.857
        O          2.536         24.284

     Subspace diagonalization in iterative solution of the eigenvalue problem:
     a serial algorithm will be used

 
     Parallelization info
     --------------------
     sticks:   dense  smooth     PW     G-vecs:    dense   smooth      PW
     Min        2091    2091    547               227837   227837   30480
     Max        2092    2092    549               227840   227840   30482
     Sum       16731   16731   4381              1822713  1822713  243847
 


     bravais-lattice index     =            0
     lattice parameter (alat)  =      23.4836  a.u.
     unit-cell volume          =   13490.6683 (a.u.)^3
     number of atoms/cell      =          184
     number of atomic types    =            4
     number of electrons       =       768.00
     number of Kohn-Sham states=          460
     kinetic-energy cutoff     =     100.0000  Ry
     charge density cutoff     =     400.0000  Ry
     convergence threshold     =      1.0E-08
     mixing beta               =       0.5000
     number of iterations used =            8  plain     mixing
     Exchange-correlation      =  SLA  PW   PBX  PBC ( 1  4  3  4 0 0)

     celldm(1)=  23.483627  celldm(2)=   0.000000  celldm(3)=   0.000000
     celldm(4)=   0.000000  celldm(5)=   0.000000  celldm(6)=   0.000000

     crystal axes: (cart. coord. in units of alat)
               a(1) = (   1.000000   0.000000   0.000000 )  
               a(2) = (   0.000000   0.952684   0.000000 )  
               a(3) = (   0.000000   0.000000   1.093426 )  

     reciprocal axes: (cart. coord. in units 2 pi/alat)
               b(1) = (  1.000000  0.000000  0.000000 )  
               b(2) = (  0.000000  1.049666  0.000000 )  
               b(3) = (  0.000000  0.000000  0.914557 )  


     PseudoPot. # 1 for  C read from file:
     /scratch/ahofstet/pseudo/C.pbe-n-kjpaw_psl.0.1.UPF
     MD5 check sum: 430fe95172b1e11ef3f8ed03bac87931
     Pseudo is Projector augmented-wave + core cor, Zval =  4.0
     Generated using "atomic" code by A. Dal Corso  v.5.0.99 svn rev. 10869
     Shape of augmentation charge: BESSEL
     Using radial grid of 1073 points,  4 beta functions with: 
                l(1) =   0
                l(2) =   0
                l(3) =   1
                l(4) =   1
     Q(r) pseudized with 0 coefficients 


     PseudoPot. # 2 for  N read from file:
     /scratch/ahofstet/pseudo/N.pbe-n-kjpaw_psl.0.1.UPF
     MD5 check sum: f73187c8b701007e77325f868c9291d7
     Pseudo is Projector augmented-wave + core cor, Zval =  5.0
     Generated using "atomic" code by A. Dal Corso  v.5.0.99 svn rev. 10869
     Shape of augmentation charge: PSQ
     Using radial grid of 1085 points,  4 beta functions with: 
                l(1) =   0
                l(2) =   0
                l(3) =   1
                l(4) =   1
     Q(r) pseudized with 0 coefficients 


     PseudoPot. # 3 for  H read from file:
     /scratch/ahofstet/pseudo/H.pbe-kjpaw_psl.0.1.UPF
     MD5 check sum: 94e484f906d9e9773b2f6e52662335b2
     Pseudo is Projector augmented-wave, Zval =  1.0
     Generated using "atomic" code by A. Dal Corso  v.5.0.99 svn rev. 10869
     Shape of augmentation charge: PSQ
     Using radial grid of  929 points,  2 beta functions with: 
                l(1) =   0
                l(2) =   0
     Q(r) pseudized with 0 coefficients 


     PseudoPot. # 4 for  O read from file:
     /scratch/ahofstet/pseudo/O.pbe-n-kjpaw_psl.0.1.UPF
     MD5 check sum: 3f94a2996a3169367d6eb21d9b593f20
     Pseudo is Projector augmented-wave + core cor, Zval =  6.0
     Generated using "atomic" code by A. Dal Corso  v.5.0.99 svn rev. 10869
     Shape of augmentation charge: BESSEL
     Using radial grid of 1095 points,  4 beta functions with: 
                l(1) =   0
                l(2) =   0
                l(3) =   1
                l(4) =   1
     Q(r) pseudized with 0 coefficients 


     atomic species   valence    mass     pseudopotential
        C              4.00    12.01070      C( 1.00)
        N              5.00    14.00670      N( 1.00)
        H              1.00     1.00794      H( 1.00)
        O              6.00    15.99940      O( 1.00)

      8 Sym. Ops., with inversion, found ( 6 have fractional translation)



   Cartesian axes

     site n.     atom                  positions (alat units)
         1           O   tau(   1) = (   0.1450378   0.8180386   0.3030206  )
         2           O   tau(   2) = (   0.3549622   0.1346451   0.8497334  )
         3           O   tau(   3) = (   0.8549622   0.3416967   0.2436922  )
         4           O   tau(   4) = (   0.6450378   0.6109869   0.7904050  )
         5           O   tau(   5) = (   0.8549622   0.1346451   0.7904050  )
         6           O   tau(   6) = (   0.6450378   0.8180386   0.2436922  )
         7           O   tau(   7) = (   0.1450378   0.6109869   0.8497334  )
         8           O   tau(   8) = (   0.3549622   0.3416967   0.3030206  )
         9           N   tau(   9) = (   0.1258210   0.1510930   0.2727687  )
        10           N   tau(  10) = (   0.3741790   0.8015907   0.8194815  )
        11           N   tau(  11) = (   0.8741790   0.6274348   0.2739441  )
        12           N   tau(  12) = (   0.6258210   0.3252489   0.8206569  )
        13           N   tau(  13) = (   0.8741790   0.8015907   0.8206569  )
        14           N   tau(  14) = (   0.6258210   0.1510930   0.2739441  )
        15           N   tau(  15) = (   0.1258210   0.3252489   0.8194815  )
        16           N   tau(  16) = (   0.3741790   0.6274348   0.2727687  )
        17           O   tau(  17) = (   0.3209468   0.1664659   0.1149408  )
        18           O   tau(  18) = (   0.1790532   0.7862178   0.6616536  )
        19           O   tau(  19) = (   0.6790532   0.6428078   0.4317720  )
        20           O   tau(  20) = (   0.8209468   0.3098759   0.9784848  )
        21           O   tau(  21) = (   0.6790532   0.7862178   0.9784848  )
        22           O   tau(  22) = (   0.8209468   0.1664659   0.4317720  )
        23           O   tau(  23) = (   0.3209468   0.3098759   0.6616536  )
        24           O   tau(  24) = (   0.1790532   0.6428078   0.1149408  )
        25           C   tau(  25) = (   0.1472563   0.0480258   0.2540435  )
        26           C   tau(  26) = (   0.3527437   0.9046579   0.8007563  )
        27           C   tau(  27) = (   0.8527437   0.5243676   0.2926693  )
        28           C   tau(  28) = (   0.6472563   0.4283161   0.8393821  )
        29           C   tau(  29) = (   0.8527437   0.9046579   0.8393821  )
        30           C   tau(  30) = (   0.6472563   0.0480258   0.2926693  )
        31           C   tau(  31) = (   0.1472563   0.4283161   0.8007563  )
        32           C   tau(  32) = (   0.3527437   0.5243676   0.2540435  )
        33           O   tau(  33) = (   0.1701478   0.1547127   0.0243501  )
        34           O   tau(  34) = (   0.3298522   0.7979709   0.5710629  )
        35           O   tau(  35) = (   0.8298522   0.6310546   0.5223627  )
        36           O   tau(  36) = (   0.6701478   0.3216291   1.0690755  )
        37           O   tau(  37) = (   0.8298522   0.7979709   1.0690755  )
        38           O   tau(  38) = (   0.6701478   0.1547127   0.5223627  )
        39           O   tau(  39) = (   0.1701478   0.3216291   0.5710629  )
        40           O   tau(  40) = (   0.3298522   0.6310546   0.0243501  )
        41           C   tau(  41) = (   0.1215834   0.9192430   0.3297961  )
        42           C   tau(  42) = (   0.3784166   0.0334407   0.8765089  )
        43           C   tau(  43) = (   0.8784166   0.4429011   0.2169167  )
        44           C   tau(  44) = (   0.6215834   0.5097826   0.7636296  )
        45           C   tau(  45) = (   0.8784166   0.0334407   0.7636296  )
        46           C   tau(  46) = (   0.6215834   0.9192430   0.2169167  )
        47           C   tau(  47) = (   0.1215834   0.5097826   0.8765089  )
        48           C   tau(  48) = (   0.3784166   0.4429011   0.3297961  )
        49           O   tau(  49) = (   0.1794160   0.8837482   1.0789083  )
        50           O   tau(  50) = (   0.3205840   0.0689354   0.5321955  )
        51           O   tau(  51) = (   0.8205840   0.4074064   0.5612301  )
        52           O   tau(  52) = (   0.6794160   0.5452773   0.0145173  )
        53           O   tau(  53) = (   0.8205840   0.0689354   0.0145173  )
        54           O   tau(  54) = (   0.6794160   0.8837482   0.5612301  )
        55           O   tau(  55) = (   0.1794160   0.5452773   0.5321955  )
        56           O   tau(  56) = (   0.3205840   0.4074064   1.0789083  )
        57           N   tau(  57) = (   0.0772128   0.9440370   0.4239180  )
        58           N   tau(  58) = (   0.4227872   0.0086467   0.9706309  )
        59           N   tau(  59) = (   0.9227872   0.4676951   0.1227948  )
        60           N   tau(  60) = (   0.5772128   0.4849885   0.6695076  )
        61           N   tau(  61) = (   0.9227872   0.0086467   0.6695076  )
        62           N   tau(  62) = (   0.5772128   0.9440370   0.1227948  )
        63           N   tau(  63) = (   0.0772128   0.4849885   0.9706309  )
        64           N   tau(  64) = (   0.4227872   0.4676951   0.4239180  )
        65           O   tau(  65) = (   0.0443670   0.8842943   0.0989759  )
        66           O   tau(  66) = (   0.4556330   0.0683894   0.6456887  )
        67           O   tau(  67) = (   0.9556330   0.4079525   0.4477369  )
        68           O   tau(  68) = (   0.5443670   0.5447312   0.9944497  )
        69           O   tau(  69) = (   0.9556330   0.0683894   0.9944497  )
        70           O   tau(  70) = (   0.5443670   0.8842943   0.4477369  )
        71           O   tau(  71) = (   0.0443670   0.5447312   0.6456887  )
        72           O   tau(  72) = (   0.4556330   0.4079525   0.0989759  )
        73           N   tau(  73) = (   0.2360196   0.1238882   0.0902000  )
        74           N   tau(  74) = (   0.2639804   0.8287955   0.6369128  )
        75           N   tau(  75) = (   0.7639804   0.6002300   0.4565128  )
        76           N   tau(  76) = (   0.7360196   0.3524536   1.0032256  )
        77           N   tau(  77) = (   0.7639804   0.8287955   1.0032256  )
        78           N   tau(  78) = (   0.7360196   0.1238882   0.4565128  )
        79           N   tau(  79) = (   0.2360196   0.3524536   0.6369128  )
        80           N   tau(  80) = (   0.2639804   0.6002300   0.0902000  )
        81           C   tau(  81) = (   0.0554379   0.0955320   0.4419327  )
        82           C   tau(  82) = (   0.4445621   0.8571517   0.9886455  )
        83           C   tau(  83) = (   0.9445621   0.5718738   0.1047801  )
        84           C   tau(  84) = (   0.5554379   0.3808099   0.6514929  )
        85           C   tau(  85) = (   0.9445621   0.8571517   0.6514929  )
        86           C   tau(  86) = (   0.5554379   0.0955320   0.1047801  )
        87           C   tau(  87) = (   0.0554379   0.3808099   0.9886455  )
        88           C   tau(  88) = (   0.4445621   0.5718738   0.4419327  )
        89           H   tau(  89) = (   0.0184304   0.1147760   0.5191710  )
        90           H   tau(  90) = (   0.4815696   0.8379076   1.0658838  )
        91           H   tau(  91) = (   0.9815696   0.5911179   0.0275418  )
        92           H   tau(  92) = (   0.5184304   0.3615658   0.5742546  )
        93           H   tau(  93) = (   0.9815696   0.8379076   0.5742546  )
        94           H   tau(  94) = (   0.5184304   0.1147760   0.0275418  )
        95           H   tau(  95) = (   0.0184304   0.3615658   1.0658838  )
        96           H   tau(  96) = (   0.4815696   0.5911179   0.5191710  )
        97           O   tau(  97) = (   0.3569720   0.9434567   0.2621967  )
        98           O   tau(  98) = (   0.1430280   0.0092270   0.8089095  )
        99           O   tau(  99) = (   0.6430280   0.4671148   0.2845161  )
       100           O   tau( 100) = (   0.8569720   0.4855688   0.8312289  )
       101           O   tau( 101) = (   0.6430280   0.0092270   0.8312289  )
       102           O   tau( 102) = (   0.8569720   0.9434567   0.2845161  )
       103           O   tau( 103) = (   0.3569720   0.4855688   0.8089095  )
       104           O   tau( 104) = (   0.1430280   0.4671148   0.2621967  )
       105           N   tau( 105) = (   0.1361269   0.9056234   0.0708604  )
       106           N   tau( 106) = (   0.3638731   0.0470603   0.6175732  )
       107           N   tau( 107) = (   0.8638731   0.4292815   0.4758524  )
       108           N   tau( 108) = (   0.6361269   0.5234021   1.0225652  )
       109           N   tau( 109) = (   0.8638731   0.0470603   1.0225652  )
       110           N   tau( 110) = (   0.6361269   0.9056234   0.4758524  )
       111           N   tau( 111) = (   0.1361269   0.5234021   0.6175732  )
       112           N   tau( 112) = (   0.3638731   0.4292815   0.0708604  )
       113           C   tau( 113) = (   0.0786582   0.1754734   0.3664708  )
       114           C   tau( 114) = (   0.4213418   0.7772103   0.9131836  )
       115           C   tau( 115) = (   0.9213418   0.6518152   0.1802420  )
       116           C   tau( 116) = (   0.5786582   0.3008684   0.7269548  )
       117           C   tau( 117) = (   0.9213418   0.7772103   0.7269548  )
       118           C   tau( 118) = (   0.5786582   0.1754734   0.1802420  )
       119           C   tau( 119) = (   0.0786582   0.3008684   0.9131836  )
       120           C   tau( 120) = (   0.4213418   0.6518152   0.3664708  )
       121           H   tau( 121) = (   0.0601671   0.2597310   0.3818099  )
       122           H   tau( 122) = (   0.4398329   0.6929527   0.9285227  )
       123           H   tau( 123) = (   0.9398329   0.7360728   0.1649029  )
       124           H   tau( 124) = (   0.5601671   0.2166108   0.7116157  )
       125           H   tau( 125) = (   0.9398329   0.6929527   0.7116157  )
       126           H   tau( 126) = (   0.5601671   0.2597310   0.1649029  )
       127           H   tau( 127) = (   0.0601671   0.2166108   0.9285227  )
       128           H   tau( 128) = (   0.4398329   0.7360728   0.3818099  )
       129           O   tau( 129) = (   0.3439001   0.8399527   0.1204243  )
       130           O   tau( 130) = (   0.1560999   0.1127310   0.6671371  )
       131           O   tau( 131) = (   0.6560999   0.3636109   0.4262885  )
       132           O   tau( 132) = (   0.8439001   0.5890728   0.9730013  )
       133           O   tau( 133) = (   0.6560999   0.1127310   0.9730013  )
       134           O   tau( 134) = (   0.8439001   0.8399527   0.4262885  )
       135           O   tau( 135) = (   0.3439001   0.5890728   0.6671371  )
       136           O   tau( 136) = (   0.1560999   0.3636109   0.1204243  )
       137           N   tau( 137) = (   0.3132696   0.9106099   0.1803928  )
       138           N   tau( 138) = (   0.1867304   0.0420738   0.7271056  )
       139           N   tau( 139) = (   0.6867304   0.4342680   0.3663200  )
       140           N   tau( 140) = (   0.8132696   0.5184157   0.9130328  )
       141           N   tau( 141) = (   0.6867304   0.0420738   0.9130328  )
       142           N   tau( 142) = (   0.8132696   0.9106099   0.3663200  )
       143           N   tau( 143) = (   0.3132696   0.5184157   0.7271056  )
       144           N   tau( 144) = (   0.1867304   0.4342680   0.1803928  )
       145           C   tau( 145) = (   0.2045384   0.0200142   0.1525568  )
       146           C   tau( 146) = (   0.2954616   0.9326695   0.6992696  )
       147           C   tau( 147) = (   0.7954616   0.4963560   0.3941560  )
       148           C   tau( 148) = (   0.7045384   0.4563277   0.9408688  )
       149           C   tau( 149) = (   0.7954616   0.9326695   0.9408688  )
       150           C   tau( 150) = (   0.7045384   0.0200142   0.3941560  )
       151           C   tau( 151) = (   0.2045384   0.4563277   0.6992696  )
       152           C   tau( 152) = (   0.2954616   0.4963560   0.1525568  )
       153           C   tau( 153) = (   0.1193884   0.7337811   0.3797969  )
       154           C   tau( 154) = (   0.3806116   0.2189026   0.9265098  )
       155           C   tau( 155) = (   0.8806116   0.2574392   0.1669159  )
       156           C   tau( 156) = (   0.6193884   0.6952444   0.7136287  )
       157           C   tau( 157) = (   0.8806116   0.2189026   0.7136287  )
       158           C   tau( 158) = (   0.6193884   0.7337811   0.1669159  )
       159           C   tau( 159) = (   0.1193884   0.6952444   0.9265098  )
       160           C   tau( 160) = (   0.3806116   0.2574392   0.3797969  )
       161           H   tau( 161) = (   0.1674202   0.7441733   0.4530035  )
       162           H   tau( 162) = (   0.3325798   0.2085104   0.9997163  )
       163           H   tau( 163) = (   0.8325798   0.2678315   0.0937093  )
       164           H   tau( 164) = (   0.6674202   0.6848522   0.6404221  )
       165           H   tau( 165) = (   0.8325798   0.2085104   0.6404221  )
       166           H   tau( 166) = (   0.6674202   0.7441733   0.0937093  )
       167           H   tau( 167) = (   0.1674202   0.6848522   0.9997163  )
       168           H   tau( 168) = (   0.3325798   0.2678315   0.4530035  )
       169           H   tau( 169) = (   0.1410211   0.6588829   0.3392469  )
       170           H   tau( 170) = (   0.3589789   0.2938007   0.8859597  )
       171           H   tau( 171) = (   0.8589789   0.1825411   0.2074659  )
       172           H   tau( 172) = (   0.6410211   0.7701426   0.7541787  )
       173           H   tau( 173) = (   0.8589789   0.2938007   0.7541787  )
       174           H   tau( 174) = (   0.6410211   0.6588829   0.2074659  )
       175           H   tau( 175) = (   0.1410211   0.7701426   0.8859597  )
       176           H   tau( 176) = (   0.3589789   0.1825411   0.3392469  )
       177           H   tau( 177) = (   0.0331138   0.7355842   0.3984973  )
       178           H   tau( 178) = (   0.4668862   0.2170994   0.9452101  )
       179           H   tau( 179) = (   0.9668862   0.2592424   0.1482155  )
       180           H   tau( 180) = (   0.5331138   0.6934413   0.6949283  )
       181           H   tau( 181) = (   0.9668862   0.2170994   0.6949283  )
       182           H   tau( 182) = (   0.5331138   0.7355842   0.1482155  )
       183           H   tau( 183) = (   0.0331138   0.6934413   0.9452101  )
       184           H   tau( 184) = (   0.4668862   0.2592424   0.3984973  )

     number of k points=     8
                       cart. coord. in units 2pi/alat
        k(    1) = (   0.0000000   0.0000000   0.0000000), wk =   0.2500000
        k(    2) = (   0.0000000   0.0000000  -0.4572785), wk =   0.2500000
        k(    3) = (   0.0000000  -0.5248332   0.0000000), wk =   0.2500000
        k(    4) = (   0.0000000  -0.5248332  -0.4572785), wk =   0.2500000
        k(    5) = (  -0.5000000   0.0000000   0.0000000), wk =   0.2500000
        k(    6) = (  -0.5000000   0.0000000  -0.4572785), wk =   0.2500000
        k(    7) = (  -0.5000000  -0.5248332   0.0000000), wk =   0.2500000
        k(    8) = (  -0.5000000  -0.5248332  -0.4572785), wk =   0.2500000

     Dense  grid:  1822713 G-vectors     FFT dimensions: ( 150, 144, 180)

     Estimated max dynamical RAM per process >    4180.95MB

     Estimated total allocated dynamical RAM >   33447.58MB

     Check: negative/imaginary core charge=   -0.000003    0.000000

     Initial potential from superposition of free atoms

     starting charge  767.99725, renormalised to  768.00000
     Starting wfc are  616 randomized atomic wfcs
     Checking if some PAW data can be deallocated... 

     total cpu time spent up to now is      353.3 secs

     Self-consistent Calculation

     iteration #  1     ecut=   100.00 Ry     beta=0.50
     Davidson diagonalization with overlap
     ethr =  1.00E-02,  avg # of iterations =  4.4

     total cpu time spent up to now is     1660.5 secs

     total energy              =   -4382.90162774 Ry
     Harris-Foulkes estimate   =   -4394.56599562 Ry
     estimated scf accuracy    <      20.53723589 Ry

     iteration #  2     ecut=   100.00 Ry     beta=0.50
     Davidson diagonalization with overlap
     ethr =  2.67E-03,  avg # of iterations =  5.1

     total cpu time spent up to now is     2676.7 secs

     total energy              =   -4385.84559658 Ry
     Harris-Foulkes estimate   =   -4390.83526471 Ry
     estimated scf accuracy    <      11.23888447 Ry

     iteration #  3     ecut=   100.00 Ry     beta=0.50
     Davidson diagonalization with overlap
     ethr =  1.46E-03,  avg # of iterations =  2.5

     total cpu time spent up to now is     3379.2 secs

     total energy              =   -4388.08264951 Ry
     Harris-Foulkes estimate   =   -4388.38959364 Ry
     estimated scf accuracy    <       0.82976297 Ry

     iteration #  4     ecut=   100.00 Ry     beta=0.50
     Davidson diagonalization with overlap
     ethr =  1.08E-04,  avg # of iterations =  6.4

     total cpu time spent up to now is     4861.5 secs

     total energy              =   -4388.42183109 Ry
     Harris-Foulkes estimate   =   -4388.53518844 Ry
     estimated scf accuracy    <       0.29260375 Ry

     iteration #  5     ecut=   100.00 Ry     beta=0.50
     Davidson diagonalization with overlap
     ethr =  3.81E-05,  avg # of iterations =  2.0

     total cpu time spent up to now is     5531.9 secs

     total energy              =   -4388.43799626 Ry
     Harris-Foulkes estimate   =   -4388.46876687 Ry
     estimated scf accuracy    <       0.07079242 Ry

     iteration #  6     ecut=   100.00 Ry     beta=0.50
     Davidson diagonalization with overlap
     ethr =  9.22E-06,  avg # of iterations =  4.2

     total cpu time spent up to now is     6705.3 secs

     total energy              =   -4388.46113421 Ry
     Harris-Foulkes estimate   =   -4388.47800687 Ry
     estimated scf accuracy    <       0.05521279 Ry

     iteration #  7     ecut=   100.00 Ry     beta=0.50
     Davidson diagonalization with overlap
     ethr =  7.19E-06,  avg # of iterations =  2.0

     total cpu time spent up to now is     7359.8 secs

     total energy              =   -4388.46490081 Ry
     Harris-Foulkes estimate   =   -4388.46821786 Ry
     estimated scf accuracy    <       0.00869712 Ry

     iteration #  8     ecut=   100.00 Ry     beta=0.50
     Davidson diagonalization with overlap
     ethr =  1.13E-06,  avg # of iterations =  4.9

     total cpu time spent up to now is     8377.7 secs

     total energy              =   -4388.46744908 Ry
     Harris-Foulkes estimate   =   -4388.46788000 Ry
     estimated scf accuracy    <       0.00126417 Ry

     iteration #  9     ecut=   100.00 Ry     beta=0.50
     Davidson diagonalization with overlap
     ethr =  1.65E-07,  avg # of iterations =  2.4

     total cpu time spent up to now is     9119.1 secs

     total energy              =   -4388.46760936 Ry
     Harris-Foulkes estimate   =   -4388.46771185 Ry
     estimated scf accuracy    <       0.00028937 Ry

     iteration # 10     ecut=   100.00 Ry     beta=0.50
     Davidson diagonalization with overlap
     ethr =  3.77E-08,  avg # of iterations =  3.0

     total cpu time spent up to now is    10121.9 secs

     total energy              =   -4388.46766783 Ry
     Harris-Foulkes estimate   =   -4388.46772200 Ry
     estimated scf accuracy    <       0.00018156 Ry

     iteration # 11     ecut=   100.00 Ry     beta=0.50
     Davidson diagonalization with overlap
     ethr =  2.36E-08,  avg # of iterations =  2.0

     total cpu time spent up to now is    10771.5 secs

     total energy              =   -4388.46768453 Ry
     Harris-Foulkes estimate   =   -4388.46769247 Ry
     estimated scf accuracy    <       0.00002318 Ry

     iteration # 12     ecut=   100.00 Ry     beta=0.50
     Davidson diagonalization with overlap
     ethr =  3.02E-09,  avg # of iterations =  3.0

     total cpu time spent up to now is    11772.7 secs

     total energy              =   -4388.46769195 Ry
     Harris-Foulkes estimate   =   -4388.46769281 Ry
     estimated scf accuracy    <       0.00000380 Ry

     iteration # 13     ecut=   100.00 Ry     beta=0.50
     Davidson diagonalization with overlap
     ethr =  4.95E-10,  avg # of iterations =  2.0

     total cpu time spent up to now is    12407.4 secs

     total energy              =   -4388.46769190 Ry
     Harris-Foulkes estimate   =   -4388.46769244 Ry
     estimated scf accuracy    <       0.00000155 Ry

     iteration # 14     ecut=   100.00 Ry     beta=0.50
     Davidson diagonalization with overlap
     ethr =  2.02E-10,  avg # of iterations =  3.0

     total cpu time spent up to now is    13319.1 secs

     total energy              =   -4388.46769230 Ry
     Harris-Foulkes estimate   =   -4388.46769241 Ry
     estimated scf accuracy    <       0.00000038 Ry

     iteration # 15     ecut=   100.00 Ry     beta=0.50
     Davidson diagonalization with overlap
     ethr =  4.98E-11,  avg # of iterations =  2.0

     total cpu time spent up to now is    13953.5 secs

     total energy              =   -4388.46769235 Ry
     Harris-Foulkes estimate   =   -4388.46769236 Ry
     estimated scf accuracy    <       0.00000004 Ry

     iteration # 16     ecut=   100.00 Ry     beta=0.50
     Davidson diagonalization with overlap
     ethr =  5.29E-12,  avg # of iterations =  4.0

     total cpu time spent up to now is    15182.2 secs

     total energy              =   -4388.46769237 Ry
     Harris-Foulkes estimate   =   -4388.46769237 Ry
     estimated scf accuracy    <       0.00000004 Ry

     iteration # 17     ecut=   100.00 Ry     beta=0.50
     Davidson diagonalization with overlap
     ethr =  5.03E-12,  avg # of iterations =  2.0

     total cpu time spent up to now is    15816.8 secs

     End of self-consistent calculation

          k = 0.0000 0.0000 0.0000 (227829 PWs)   bands (ev):

   -25.0082 -25.0068 -25.0037 -25.0035 -24.9861 -24.9848 -24.9816 -24.9814
   -24.6206 -24.6203 -24.6202 -24.6202 -24.5984 -24.5982 -24.5982 -24.5981
   -24.4485 -24.4470 -24.4444 -24.4432 -24.4335 -24.4331 -24.4296 -24.4293
   -20.5538 -20.5484 -20.5475 -20.5475 -20.5375 -20.5331 -20.5329 -20.5325
   -20.4546 -20.4541 -20.4541 -20.4513 -20.4422 -20.4413 -20.4412 -20.4373
   -20.3603 -20.3592 -20.3585 -20.3578 -20.3567 -20.3565 -20.3542 -20.3540
   -20.2032 -20.2019 -20.2013 -20.2013 -20.2007 -20.1990 -20.1960 -20.1959
   -17.6707 -17.6702 -17.6696 -17.6630 -17.6627 -17.6618 -17.6561 -17.6496
   -16.0303 -16.0281 -16.0066 -16.0062 -16.0017 -15.9996 -15.9865 -15.9863
   -15.0400 -15.0320 -15.0308 -15.0254 -15.0202 -15.0094 -15.0005 -14.9982
   -12.4150 -12.4006 -12.3968 -12.3885 -12.3805 -12.3755 -12.3512 -12.3510
   -11.1835 -11.0963 -11.0879 -11.0783 -11.0683 -11.0584 -11.0474 -10.9974
   -10.7137 -10.6923 -10.6876 -10.6833 -10.6827 -10.6754 -10.6712 -10.6695
   -10.6403 -10.5806 -10.5681 -10.5565 -10.5136 -10.5036 -10.4956 -10.4607
    -9.8876  -9.8793  -9.8618  -9.8381  -9.8290  -9.8235  -9.8044  -9.7906
    -8.6334  -8.6287  -8.6172  -8.5990  -8.5888  -8.5840  -8.5714  -8.5638
    -7.9334  -7.9319  -7.9158  -7.9070  -7.9030  -7.8874  -7.8730  -7.8426
    -7.6519  -7.6465  -7.6395  -7.6277  -7.6119  -7.5865  -7.5755  -7.5701
    -7.4499  -7.4344  -7.4191  -7.4111  -7.4086  -7.4004  -7.3952  -7.3814
    -7.2362  -7.2303  -7.2221  -7.2039  -7.1980  -7.1962  -7.1805  -7.1672
    -6.6115  -6.6025  -6.5945  -6.5921  -6.5460  -6.5408  -6.5240  -6.5131
    -6.5070  -6.4725  -6.4609  -6.4462  -6.4130  -6.4048  -6.3318  -6.3316
    -6.3093  -6.2721  -6.2674  -6.2551  -6.2383  -6.2297  -6.2083  -6.2077
    -6.2057  -6.2012  -6.1983  -6.1863  -6.1832  -6.1719  -6.1539  -6.1529
    -6.1470  -6.1332  -6.1289  -6.1249  -6.1175  -6.0848  -6.0828  -6.0712
    -6.0525  -6.0448  -6.0351  -6.0317  -6.0194  -6.0071  -6.0027  -5.9834
    -5.9716  -5.9409  -5.9395  -5.9230  -5.9071  -5.9007  -5.8995  -5.8615
    -5.6831  -5.6408  -5.6369  -5.5976  -5.5887  -5.5685  -5.5262  -5.4946
    -4.7263  -4.7224  -4.7008  -4.6937  -4.6908  -4.6497  -4.6109  -4.5908
    -4.2621  -4.2404  -4.2259  -4.1934  -4.1673  -4.1303  -4.1256  -4.0939
    -3.5962  -3.5835  -3.5819  -3.5792  -3.5651  -3.5268  -3.5202  -3.5166
    -3.4650  -3.4317  -3.4225  -3.3883  -3.2899  -3.2657  -3.1795  -3.1767
    -3.0458  -3.0029  -2.9605  -2.9595  -2.9475  -2.8803  -2.8727  -2.8459
    -1.9715  -1.9376  -1.9226  -1.8695  -1.8659  -1.8227  -1.7838  -1.7724
    -1.7672  -1.7373  -1.6900  -1.6726  -1.6705  -1.6175  -1.6049  -1.5848
    -1.5769  -1.5737  -1.5492  -1.5420  -1.5415  -1.5222  -1.4800  -1.4690
    -1.4672  -1.4632  -1.4625  -1.4586  -1.4436  -1.4390  -1.4171  -1.4080
    -1.3988  -1.3771  -1.3709  -1.3537  -1.3536  -1.3412  -1.3351  -1.3265
    -1.2569  -1.2522  -1.2408  -1.2141  -1.2126  -1.1997  -1.1750  -1.1441
    -1.1433  -1.0978  -1.0969  -1.0769  -1.0054  -0.9978  -0.9929  -0.9821
    -0.8946  -0.8891  -0.8788  -0.8580  -0.8514  -0.8297  -0.8247  -0.7862
    -0.7190  -0.6960  -0.6925  -0.6885  -0.6868  -0.6528  -0.6503  -0.6181
    -0.5789  -0.5742  -0.5708  -0.5492  -0.5491  -0.5445  -0.4949  -0.4761
    -0.4337  -0.4279  -0.4207  -0.4167  -0.4152  -0.4124  -0.3970  -0.3898
    -0.3236  -0.2938  -0.2685  -0.2552  -0.2530  -0.2501  -0.2368  -0.2100
    -0.1601  -0.1569  -0.1420  -0.1414  -0.1347  -0.1189  -0.1168  -0.1159
     0.7203   0.7258   0.7858   0.7860   0.9159   0.9527   0.9719   0.9745
     0.9873   1.0251   1.0290   1.0317   1.0373   1.0718   1.0819   1.0914
     3.1578   3.1694   3.2228   3.2260   3.2351   3.2454   3.2706   3.2745
     3.2872   3.3098   3.3136   3.3167   3.3429   3.3505   3.3705   3.3819
     3.5059   3.5116   3.5221   3.5225   3.5974   3.6186   3.6389   3.6477
     4.3743   4.4165   4.4245   4.4253   4.4312   4.4380   4.4471   4.4638
     5.3072   5.3260   5.4175   5.4302   5.4322   5.4685   5.4976   5.5059
     7.0717   7.2766   7.4390   7.4469   7.4696   7.4873   7.5448   7.5460
     7.5510   7.6205   7.6216   7.6446   7.6802   7.6835   7.6918   7.6930
     7.8412   7.8501   7.8715   8.0168   8.0422   8.1689   8.2282   8.2425
     8.3844   8.4303   8.4581   8.4843   8.5353   8.5911   8.6776   8.7648
     8.7928   8.8095   8.8408   8.8617

          k = 0.0000 0.0000-0.4573 (227914 PWs)   bands (ev):

   -25.0075 -25.0075 -25.0036 -25.0036 -24.9855 -24.9855 -24.9815 -24.9815
   -24.6205 -24.6205 -24.6201 -24.6201 -24.5983 -24.5983 -24.5981 -24.5981
   -24.4478 -24.4478 -24.4438 -24.4438 -24.4333 -24.4333 -24.4294 -24.4294
   -20.5512 -20.5512 -20.5474 -20.5474 -20.5357 -20.5357 -20.5322 -20.5322
   -20.4543 -20.4543 -20.4528 -20.4528 -20.4418 -20.4418 -20.4393 -20.4393
   -20.3594 -20.3594 -20.3585 -20.3585 -20.3554 -20.3554 -20.3552 -20.3552
   -20.2025 -20.2025 -20.2012 -20.2012 -20.1986 -20.1986 -20.1973 -20.1973
   -17.6701 -17.6701 -17.6670 -17.6670 -17.6629 -17.6629 -17.6519 -17.6519
   -16.0212 -16.0212 -16.0195 -16.0195 -15.9911 -15.9911 -15.9909 -15.9909
   -15.0335 -15.0335 -15.0306 -15.0306 -15.0148 -15.0148 -14.9993 -14.9993
   -12.3974 -12.3974 -12.3945 -12.3945 -12.3751 -12.3751 -12.3630 -12.3630
   -11.1336 -11.1336 -11.0888 -11.0888 -11.0518 -11.0518 -11.0471 -11.0471
   -10.6965 -10.6965 -10.6855 -10.6855 -10.6820 -10.6820 -10.6731 -10.6731
   -10.5627 -10.5627 -10.5615 -10.5615 -10.5131 -10.5131 -10.5090 -10.5090
    -9.8563  -9.8563  -9.8433  -9.8433  -9.8342  -9.8342  -9.8258  -9.8258
    -8.6280  -8.6280  -8.6175  -8.6175  -8.5749  -8.5749  -8.5733  -8.5733
    -7.9246  -7.9246  -7.9238  -7.9238  -7.8798  -7.8798  -7.8629  -7.8629
    -7.6451  -7.6451  -7.6374  -7.6374  -7.5986  -7.5986  -7.5818  -7.5818
    -7.4350  -7.4350  -7.4301  -7.4301  -7.3966  -7.3966  -7.3914  -7.3914
    -7.2239  -7.2239  -7.2166  -7.2166  -7.1927  -7.1927  -7.1766  -7.1766
    -6.6076  -6.6076  -6.5912  -6.5912  -6.5443  -6.5443  -6.5057  -6.5057
    -6.4807  -6.4807  -6.4603  -6.4603  -6.4242  -6.4242  -6.3275  -6.3275
    -6.2750  -6.2750  -6.2659  -6.2659  -6.2488  -6.2488  -6.2388  -6.2388
    -6.2111  -6.2111  -6.1746  -6.1746  -6.1627  -6.1627  -6.1361  -6.1361
    -6.1336  -6.1336  -6.1045  -6.1045  -6.0955  -6.0955  -6.0774  -6.0774
    -6.0667  -6.0667  -6.0387  -6.0387  -6.0314  -6.0314  -5.9921  -5.9921
    -5.9652  -5.9652  -5.9277  -5.9277  -5.9258  -5.9258  -5.8726  -5.8726
    -5.6568  -5.6568  -5.6112  -5.6112  -5.5574  -5.5574  -5.5300  -5.5300
    -4.7158  -4.7158  -4.7077  -4.7077  -4.6711  -4.6711  -4.6003  -4.6003
    -4.2482  -4.2482  -4.2194  -4.2194  -4.1267  -4.1267  -4.1235  -4.1235
    -3.6011  -3.6011  -3.5716  -3.5716  -3.5440  -3.5440  -3.5254  -3.5254
    -3.4430  -3.4430  -3.4047  -3.4047  -3.2738  -3.2738  -3.1769  -3.1769
    -3.0239  -3.0239  -2.9760  -2.9760  -2.8937  -2.8937  -2.8664  -2.8664
    -1.9534  -1.9534  -1.8967  -1.8967  -1.8452  -1.8452  -1.7827  -1.7827
    -1.7184  -1.7184  -1.6828  -1.6828  -1.6613  -1.6613  -1.6128  -1.6128
    -1.6005  -1.6005  -1.5291  -1.5291  -1.5219  -1.5219  -1.4951  -1.4951
    -1.4762  -1.4762  -1.4544  -1.4544  -1.4172  -1.4172  -1.3957  -1.3957
    -1.3701  -1.3701  -1.3696  -1.3696  -1.3529  -1.3529  -1.3126  -1.3126
    -1.2888  -1.2888  -1.2175  -1.2175  -1.1927  -1.1927  -1.1774  -1.1774
    -1.1545  -1.1545  -1.0829  -1.0829  -0.9884  -0.9884  -0.9817  -0.9817
    -0.8789  -0.8789  -0.8725  -0.8725  -0.8090  -0.8090  -0.8070  -0.8070
    -0.7496  -0.7496  -0.7244  -0.7244  -0.6403  -0.6403  -0.6151  -0.6151
    -0.5843  -0.5843  -0.5732  -0.5732  -0.5080  -0.5080  -0.4977  -0.4977
    -0.4427  -0.4427  -0.4402  -0.4402  -0.4086  -0.4086  -0.3758  -0.3758
    -0.3028  -0.3028  -0.2727  -0.2727  -0.2348  -0.2348  -0.2226  -0.2226
    -0.1748  -0.1748  -0.1626  -0.1626  -0.1142  -0.1142  -0.1025  -0.1025
     0.7216   0.7216   0.7794   0.7794   0.9444   0.9444   0.9908   0.9908
     1.0050   1.0050   1.0183   1.0183   1.0570   1.0570   1.0764   1.0764
     3.1853   3.1853   3.1997   3.1997   3.2427   3.2427   3.2513   3.2513
     3.2966   3.2966   3.3236   3.3236   3.3468   3.3468   3.3774   3.3774
     3.5137   3.5137   3.5245   3.5245   3.6227   3.6227   3.6366   3.6366
     4.4032   4.4032   4.4276   4.4276   4.4290   4.4290   4.4509   4.4509
     5.3530   5.3530   5.3696   5.3696   5.4744   5.4744   5.4961   5.4961
     7.2213   7.2213   7.3577   7.3577   7.4813   7.4813   7.5366   7.5366
     7.6016   7.6016   7.6564   7.6564   7.6635   7.6635   7.6662   7.6662
     7.8445   7.8445   8.0130   8.0130   8.0772   8.0772   8.2562   8.2562
     8.4005   8.4005   8.4636   8.4636   8.5985   8.5985   8.6620   8.6620
     8.7775   8.7775   8.8144   8.8146

          k = 0.0000-0.5248 0.0000 (227768 PWs)   bands (ev):

   -24.9975 -24.9975 -24.9962 -24.9962 -24.9930 -24.9930 -24.9928 -24.9928
   -24.6091 -24.6091 -24.6088 -24.6088 -24.6088 -24.6088 -24.6087 -24.6087
   -24.4465 -24.4465 -24.4452 -24.4452 -24.4316 -24.4316 -24.4313 -24.4313
   -20.5462 -20.5462 -20.5412 -20.5412 -20.5407 -20.5407 -20.5407 -20.5407
   -20.4478 -20.4478 -20.4475 -20.4475 -20.4468 -20.4468 -20.4436 -20.4436
   -20.3598 -20.3598 -20.3582 -20.3582 -20.3566 -20.3566 -20.3541 -20.3541
   -20.2020 -20.2020 -20.2018 -20.2018 -20.2000 -20.2000 -20.1959 -20.1959
   -17.6700 -17.6700 -17.6635 -17.6635 -17.6623 -17.6623 -17.6561 -17.6561
   -16.0292 -16.0292 -16.0064 -16.0064 -16.0006 -16.0006 -15.9864 -15.9864
   -15.0256 -15.0256 -15.0205 -15.0205 -15.0204 -15.0204 -15.0117 -15.0117
   -12.4081 -12.4081 -12.3786 -12.3786 -12.3742 -12.3742 -12.3701 -12.3701
   -11.1411 -11.1411 -11.0726 -11.0726 -11.0696 -11.0696 -11.0278 -11.0278
   -10.7153 -10.7153 -10.6785 -10.6785 -10.6734 -10.6734 -10.6708 -10.6708
   -10.5960 -10.5960 -10.5415 -10.5415 -10.5277 -10.5277 -10.4893 -10.4893
    -9.8748  -9.8748  -9.8607  -9.8607  -9.8262  -9.8262  -9.7976  -9.7976
    -8.6307  -8.6307  -8.6229  -8.6229  -8.5745  -8.5745  -8.5626  -8.5626
    -7.9456  -7.9456  -7.9213  -7.9213  -7.8805  -7.8805  -7.8564  -7.8564
    -7.6526  -7.6526  -7.6209  -7.6209  -7.6039  -7.6039  -7.5569  -7.5569
    -7.4454  -7.4454  -7.4348  -7.4348  -7.4005  -7.4005  -7.3953  -7.3953
    -7.2289  -7.2289  -7.2049  -7.2049  -7.1938  -7.1938  -7.1745  -7.1745
    -6.5715  -6.5715  -6.5702  -6.5702  -6.5637  -6.5637  -6.5380  -6.5380
    -6.4857  -6.4857  -6.4239  -6.4239  -6.4151  -6.4151  -6.3645  -6.3645
    -6.3162  -6.3162  -6.2698  -6.2698  -6.2673  -6.2673  -6.2288  -6.2288
    -6.2004  -6.2004  -6.1898  -6.1898  -6.1644  -6.1644  -6.1527  -6.1527
    -6.1297  -6.1297  -6.1025  -6.1025  -6.0876  -6.0876  -6.0873  -6.0873
    -6.0536  -6.0536  -6.0169  -6.0169  -6.0004  -6.0004  -5.9922  -5.9922
    -5.9510  -5.9510  -5.9200  -5.9200  -5.9193  -5.9193  -5.9164  -5.9164
    -5.6259  -5.6259  -5.6054  -5.6054  -5.5671  -5.5671  -5.5525  -5.5525
    -4.7023  -4.7023  -4.6789  -4.6789  -4.6753  -4.6753  -4.6452  -4.6452
    -4.2315  -4.2315  -4.2276  -4.2276  -4.1511  -4.1511  -4.1034  -4.1034
    -3.6211  -3.6211  -3.5617  -3.5617  -3.5515  -3.5515  -3.4960  -3.4960
    -3.3898  -3.3898  -3.3614  -3.3614  -3.2959  -3.2959  -3.2707  -3.2707
    -2.9976  -2.9976  -2.9923  -2.9923  -2.8838  -2.8838  -2.8833  -2.8833
    -1.9049  -1.9049  -1.8505  -1.8505  -1.8109  -1.8109  -1.8067  -1.8067
    -1.7376  -1.7376  -1.6838  -1.6838  -1.6465  -1.6465  -1.6282  -1.6282
    -1.5730  -1.5730  -1.5661  -1.5661  -1.5227  -1.5227  -1.5136  -1.5136
    -1.4931  -1.4931  -1.4773  -1.4773  -1.4368  -1.4368  -1.4214  -1.4214
    -1.3954  -1.3954  -1.3712  -1.3712  -1.3442  -1.3442  -1.3327  -1.3327
    -1.2741  -1.2741  -1.2109  -1.2109  -1.1816  -1.1816  -1.1615  -1.1615
    -1.1223  -1.1223  -1.0739  -1.0739  -1.0314  -1.0314  -0.9574  -0.9574
    -0.9091  -0.9091  -0.8964  -0.8964  -0.8339  -0.8339  -0.7758  -0.7758
    -0.7041  -0.7041  -0.6595  -0.6595  -0.6507  -0.6507  -0.6260  -0.6260
    -0.6067  -0.6067  -0.5736  -0.5736  -0.5608  -0.5608  -0.5121  -0.5121
    -0.4184  -0.4184  -0.4061  -0.4061  -0.3911  -0.3911  -0.3614  -0.3614
    -0.3013  -0.3013  -0.2981  -0.2981  -0.2472  -0.2472  -0.2461  -0.2461
    -0.1510  -0.1510  -0.1351  -0.1351  -0.1233  -0.1233  -0.1190  -0.1190
     0.7391   0.7391   0.7543   0.7543   0.9539   0.9539   0.9919   0.9919
     1.0148   1.0148   1.0264   1.0264   1.0466   1.0466   1.0692   1.0692
     3.1595   3.1595   3.2287   3.2287   3.2356   3.2356   3.2796   3.2796
     3.3091   3.3091   3.3301   3.3301   3.3358   3.3358   3.3545   3.3545
     3.5105   3.5105   3.5143   3.5143   3.6086   3.6086   3.6454   3.6454
     4.3952   4.3952   4.4163   4.4163   4.4389   4.4389   4.4594   4.4594
     5.3749   5.3749   5.3817   5.3817   5.4680   5.4680   5.4696   5.4696
     7.1763   7.1763   7.4397   7.4397   7.4798   7.4798   7.5786   7.5786
     7.6085   7.6085   7.6107   7.6107   7.6905   7.6905   7.6955   7.6955
     7.9274   7.9274   7.9308   7.9308   8.0608   8.0608   8.1743   8.1743
     8.4080   8.4080   8.5227   8.5227   8.5728   8.5728   8.6856   8.6856
     8.6958   8.6958   8.8304   8.8304

          k = 0.0000-0.5248-0.4573 (227836 PWs)   bands (ev):

   -24.9968 -24.9968 -24.9968 -24.9968 -24.9929 -24.9929 -24.9929 -24.9929
   -24.6090 -24.6090 -24.6090 -24.6090 -24.6087 -24.6087 -24.6087 -24.6087
   -24.4459 -24.4459 -24.4459 -24.4459 -24.4314 -24.4314 -24.4314 -24.4314
   -20.5440 -20.5440 -20.5440 -20.5440 -20.5404 -20.5404 -20.5404 -20.5404
   -20.4475 -20.4475 -20.4475 -20.4475 -20.4454 -20.4454 -20.4454 -20.4454
   -20.3590 -20.3590 -20.3590 -20.3590 -20.3554 -20.3554 -20.3554 -20.3554
   -20.2019 -20.2019 -20.2019 -20.2019 -20.1979 -20.1979 -20.1979 -20.1979
   -17.6678 -17.6678 -17.6678 -17.6678 -17.6582 -17.6582 -17.6582 -17.6582
   -16.0204 -16.0204 -16.0204 -16.0204 -15.9910 -15.9910 -15.9910 -15.9910
   -15.0232 -15.0232 -15.0232 -15.0232 -15.0159 -15.0159 -15.0159 -15.0159
   -12.3947 -12.3947 -12.3947 -12.3947 -12.3711 -12.3711 -12.3711 -12.3711
   -11.1096 -11.1096 -11.1096 -11.1096 -11.0482 -11.0482 -11.0482 -11.0482
   -10.6964 -10.6964 -10.6964 -10.6964 -10.6724 -10.6724 -10.6724 -10.6724
   -10.5611 -10.5611 -10.5611 -10.5611 -10.5150 -10.5150 -10.5150 -10.5150
    -9.8493  -9.8493  -9.8493  -9.8493  -9.8295  -9.8295  -9.8295  -9.8295
    -8.6192  -8.6192  -8.6192  -8.6192  -8.5770  -8.5770  -8.5770  -8.5770
    -7.9320  -7.9320  -7.9320  -7.9320  -7.8708  -7.8708  -7.8708  -7.8708
    -7.6318  -7.6318  -7.6318  -7.6318  -7.5859  -7.5859  -7.5859  -7.5859
    -7.4293  -7.4293  -7.4293  -7.4293  -7.4116  -7.4116  -7.4116  -7.4116
    -7.2130  -7.2130  -7.2130  -7.2130  -7.1829  -7.1829  -7.1829  -7.1829
    -6.5691  -6.5691  -6.5691  -6.5691  -6.5426  -6.5426  -6.5426  -6.5426
    -6.4707  -6.4707  -6.4707  -6.4707  -6.3921  -6.3921  -6.3921  -6.3921
    -6.2888  -6.2888  -6.2888  -6.2888  -6.2249  -6.2249  -6.2249  -6.2249
    -6.2090  -6.2090  -6.2090  -6.2090  -6.1531  -6.1531  -6.1531  -6.1531
    -6.1237  -6.1237  -6.1237  -6.1237  -6.0633  -6.0633  -6.0633  -6.0633
    -6.0453  -6.0453  -6.0453  -6.0453  -6.0251  -6.0251  -6.0251  -6.0251
    -5.9468  -5.9468  -5.9468  -5.9468  -5.8994  -5.8994  -5.8994  -5.8994
    -5.5967  -5.5967  -5.5967  -5.5967  -5.5742  -5.5742  -5.5742  -5.5742
    -4.6927  -4.6927  -4.6927  -4.6927  -4.6602  -4.6602  -4.6602  -4.6602
    -4.2278  -4.2278  -4.2278  -4.2278  -4.1278  -4.1278  -4.1278  -4.1278
    -3.6025  -3.6025  -3.6025  -3.6025  -3.5125  -3.5125  -3.5125  -3.5125
    -3.3762  -3.3762  -3.3762  -3.3762  -3.2824  -3.2824  -3.2824  -3.2824
    -2.9900  -2.9900  -2.9900  -2.9900  -2.8880  -2.8880  -2.8880  -2.8880
    -1.8658  -1.8658  -1.8658  -1.8658  -1.8242  -1.8242  -1.8242  -1.8242
    -1.7045  -1.7045  -1.7045  -1.7045  -1.6573  -1.6573  -1.6573  -1.6573
    -1.5539  -1.5539  -1.5539  -1.5539  -1.5166  -1.5166  -1.5166  -1.5166
    -1.4814  -1.4814  -1.4814  -1.4814  -1.4446  -1.4446  -1.4446  -1.4446
    -1.3605  -1.3605  -1.3605  -1.3605  -1.3455  -1.3455  -1.3455  -1.3455
    -1.2425  -1.2425  -1.2425  -1.2425  -1.1767  -1.1767  -1.1767  -1.1767
    -1.1079  -1.1079  -1.1079  -1.1079  -1.0010  -1.0010  -1.0010  -1.0010
    -0.8806  -0.8806  -0.8806  -0.8806  -0.8003  -0.8003  -0.8003  -0.8003
    -0.7138  -0.7138  -0.7138  -0.7138  -0.6200  -0.6200  -0.6200  -0.6200
    -0.5924  -0.5924  -0.5924  -0.5924  -0.5250  -0.5250  -0.5250  -0.5250
    -0.4110  -0.4110  -0.4110  -0.4110  -0.3833  -0.3833  -0.3833  -0.3833
    -0.3002  -0.3002  -0.3002  -0.3002  -0.2373  -0.2373  -0.2373  -0.2373
    -0.1635  -0.1635  -0.1635  -0.1635  -0.1080  -0.1080  -0.1080  -0.1080
     0.7547   0.7547   0.7547   0.7547   0.9469   0.9469   0.9469   0.9469
     1.0145   1.0145   1.0145   1.0145   1.0813   1.0813   1.0813   1.0813
     3.1909   3.1909   3.1909   3.1909   3.2467   3.2467   3.2467   3.2467
     3.3225   3.3225   3.3225   3.3225   3.3495   3.3495   3.3495   3.3495
     3.5163   3.5163   3.5163   3.5163   3.6309   3.6309   3.6309   3.6309
     4.4155   4.4155   4.4155   4.4155   4.4388   4.4388   4.4388   4.4388
     5.3906   5.3906   5.3906   5.3906   5.4565   5.4565   5.4565   5.4565
     7.3004   7.3004   7.3004   7.3004   7.5255   7.5255   7.5255   7.5255
     7.6204   7.6204   7.6204   7.6204   7.6784   7.6784   7.6784   7.6784
     7.9342   7.9342   7.9342   7.9342   8.1001   8.1001   8.1001   8.1001
     8.4660   8.4660   8.4660   8.4660   8.6885   8.6885   8.6885   8.6885
     8.7016   8.7016   8.7016   8.7016

          k =-0.5000 0.0000 0.0000 (227746 PWs)   bands (ev):

   -25.0060 -25.0060 -25.0054 -25.0054 -24.9836 -24.9836 -24.9830 -24.9830
   -24.6204 -24.6204 -24.6203 -24.6203 -24.5983 -24.5983 -24.5981 -24.5981
   -24.4462 -24.4462 -24.4459 -24.4459 -24.4312 -24.4312 -24.4310 -24.4310
   -20.5512 -20.5512 -20.5476 -20.5476 -20.5349 -20.5349 -20.5329 -20.5329
   -20.4545 -20.4545 -20.4527 -20.4527 -20.4418 -20.4418 -20.4392 -20.4392
   -20.3585 -20.3585 -20.3579 -20.3579 -20.3563 -20.3563 -20.3559 -20.3559
   -20.2032 -20.2032 -20.2011 -20.2011 -20.1980 -20.1980 -20.1973 -20.1973
   -17.6713 -17.6713 -17.6662 -17.6662 -17.6589 -17.6589 -17.6555 -17.6555
   -16.0188 -16.0188 -16.0173 -16.0173 -15.9940 -15.9940 -15.9927 -15.9927
   -15.0380 -15.0380 -15.0281 -15.0281 -15.0072 -15.0072 -15.0049 -15.0049
   -12.4064 -12.4064 -12.3890 -12.3890 -12.3840 -12.3840 -12.3501 -12.3501
   -11.1433 -11.1433 -11.0749 -11.0749 -11.0635 -11.0635 -11.0334 -11.0334
   -10.7014 -10.7014 -10.6871 -10.6871 -10.6745 -10.6745 -10.6739 -10.6739
   -10.6077 -10.6077 -10.5413 -10.5413 -10.5287 -10.5287 -10.4761 -10.4761
    -9.8837  -9.8837  -9.8544  -9.8544  -9.8167  -9.8167  -9.8029  -9.8029
    -8.6320  -8.6320  -8.6084  -8.6084  -8.5789  -8.5789  -8.5720  -8.5720
    -7.9538  -7.9538  -7.9098  -7.9098  -7.8822  -7.8822  -7.8595  -7.8595
    -7.6482  -7.6482  -7.6288  -7.6288  -7.5893  -7.5893  -7.5871  -7.5871
    -7.4314  -7.4314  -7.4224  -7.4224  -7.4019  -7.4019  -7.3846  -7.3846
    -7.2266  -7.2266  -7.2201  -7.2201  -7.1877  -7.1877  -7.1819  -7.1819
    -6.6101  -6.6101  -6.6031  -6.6031  -6.5292  -6.5292  -6.5251  -6.5251
    -6.4672  -6.4672  -6.4618  -6.4618  -6.4173  -6.4173  -6.3505  -6.3505
    -6.2926  -6.2926  -6.2608  -6.2608  -6.2525  -6.2525  -6.2233  -6.2233
    -6.2009  -6.2009  -6.1844  -6.1844  -6.1828  -6.1828  -6.1338  -6.1338
    -6.1284  -6.1284  -6.1040  -6.1040  -6.1001  -6.1001  -6.0773  -6.0773
    -6.0566  -6.0566  -6.0479  -6.0479  -5.9902  -5.9902  -5.9899  -5.9899
    -5.9521  -5.9521  -5.9471  -5.9471  -5.9057  -5.9057  -5.8891  -5.8891
    -5.6556  -5.6556  -5.6202  -5.6202  -5.5847  -5.5847  -5.5014  -5.5014
    -4.7293  -4.7293  -4.7115  -4.7115  -4.6294  -4.6294  -4.6201  -4.6201
    -4.2479  -4.2479  -4.2183  -4.2183  -4.1385  -4.1385  -4.1162  -4.1162
    -3.6125  -3.6125  -3.5690  -3.5690  -3.5500  -3.5500  -3.4818  -3.4818
    -3.4542  -3.4542  -3.4347  -3.4347  -3.2320  -3.2320  -3.2166  -3.2166
    -3.0282  -3.0282  -2.9673  -2.9673  -2.9060  -2.9060  -2.8523  -2.8523
    -1.9444  -1.9444  -1.8964  -1.8964  -1.8583  -1.8583  -1.7990  -1.7990
    -1.7125  -1.7125  -1.6954  -1.6954  -1.6404  -1.6404  -1.5909  -1.5909
    -1.5536  -1.5536  -1.5501  -1.5501  -1.5193  -1.5193  -1.5004  -1.5004
    -1.4699  -1.4699  -1.4562  -1.4562  -1.4324  -1.4324  -1.4138  -1.4138
    -1.3987  -1.3987  -1.3758  -1.3758  -1.3604  -1.3604  -1.3182  -1.3182
    -1.2522  -1.2522  -1.2091  -1.2091  -1.1601  -1.1601  -1.1532  -1.1532
    -1.1510  -1.1510  -1.0851  -1.0851  -1.0680  -1.0680  -1.0347  -1.0347
    -0.8604  -0.8604  -0.8542  -0.8542  -0.8068  -0.8068  -0.7814  -0.7814
    -0.7305  -0.7305  -0.7152  -0.7152  -0.6506  -0.6506  -0.6499  -0.6499
    -0.5761  -0.5761  -0.5571  -0.5571  -0.5196  -0.5196  -0.5134  -0.5134
    -0.4492  -0.4492  -0.4210  -0.4210  -0.3872  -0.3872  -0.3817  -0.3817
    -0.3061  -0.3061  -0.2782  -0.2782  -0.2215  -0.2215  -0.1968  -0.1968
    -0.1645  -0.1645  -0.1602  -0.1602  -0.1352  -0.1352  -0.1306  -0.1306
     0.7495   0.7495   0.7530   0.7530   0.9400   0.9400   0.9808   0.9808
     0.9917   0.9917   1.0290   1.0290   1.0581   1.0581   1.0924   1.0924
     3.1809   3.1809   3.1855   3.1855   3.2625   3.2625   3.2707   3.2707
     3.2926   3.2926   3.3179   3.3179   3.3575   3.3575   3.3615   3.3615
     3.5363   3.5363   3.5424   3.5424   3.6011   3.6011   3.6079   3.6079
     4.3898   4.3898   4.4237   4.4237   4.4408   4.4408   4.4568   4.4568
     5.3153   5.3153   5.4171   5.4171   5.4569   5.4569   5.5020   5.5020
     7.3094   7.3094   7.4050   7.4050   7.5253   7.5253   7.5416   7.5416
     7.5852   7.5852   7.5906   7.5906   7.6074   7.6074   7.7014   7.7014
     7.8398   7.8398   7.8649   7.8649   8.1530   8.1530   8.2157   8.2157
     8.4376   8.4376   8.4571   8.4571   8.5172   8.5172   8.5585   8.5586
     8.8100   8.8100   8.8690   8.8690

          k =-0.5000 0.0000-0.4573 (227896 PWs)   bands (ev):

   -25.0057 -25.0057 -25.0057 -25.0057 -24.9833 -24.9833 -24.9833 -24.9833
   -24.6203 -24.6203 -24.6203 -24.6203 -24.5982 -24.5982 -24.5982 -24.5982
   -24.4460 -24.4460 -24.4460 -24.4460 -24.4311 -24.4311 -24.4311 -24.4311
   -20.5494 -20.5494 -20.5494 -20.5494 -20.5339 -20.5339 -20.5339 -20.5339
   -20.4536 -20.4536 -20.4536 -20.4536 -20.4406 -20.4406 -20.4406 -20.4406
   -20.3574 -20.3574 -20.3574 -20.3574 -20.3568 -20.3568 -20.3568 -20.3568
   -20.2017 -20.2017 -20.2017 -20.2017 -20.1981 -20.1981 -20.1981 -20.1981
   -17.6691 -17.6691 -17.6691 -17.6691 -17.6569 -17.6569 -17.6569 -17.6569
   -16.0171 -16.0171 -16.0171 -16.0171 -15.9943 -15.9943 -15.9943 -15.9943
   -15.0328 -15.0328 -15.0328 -15.0328 -15.0063 -15.0063 -15.0063 -15.0063
   -12.3951 -12.3951 -12.3951 -12.3951 -12.3699 -12.3699 -12.3699 -12.3699
   -11.1019 -11.1019 -11.1019 -11.1019 -11.0616 -11.0616 -11.0616 -11.0616
   -10.6899 -10.6899 -10.6899 -10.6899 -10.6785 -10.6785 -10.6785 -10.6785
   -10.5395 -10.5395 -10.5395 -10.5395 -10.5306 -10.5306 -10.5306 -10.5306
    -9.8501  -9.8501  -9.8501  -9.8501  -9.8299  -9.8299  -9.8299  -9.8299
    -8.6227  -8.6227  -8.6227  -8.6227  -8.5732  -8.5732  -8.5732  -8.5732
    -7.9375  -7.9375  -7.9375  -7.9375  -7.8609  -7.8609  -7.8609  -7.8609
    -7.6382  -7.6382  -7.6382  -7.6382  -7.5941  -7.5941  -7.5941  -7.5941
    -7.4266  -7.4266  -7.4266  -7.4266  -7.3952  -7.3952  -7.3952  -7.3952
    -7.2101  -7.2101  -7.2101  -7.2101  -7.1945  -7.1945  -7.1945  -7.1945
    -6.6057  -6.6057  -6.6057  -6.6057  -6.5229  -6.5229  -6.5229  -6.5229
    -6.4668  -6.4668  -6.4668  -6.4668  -6.3794  -6.3794  -6.3794  -6.3794
    -6.2898  -6.2898  -6.2898  -6.2898  -6.2429  -6.2429  -6.2429  -6.2429
    -6.1870  -6.1870  -6.1870  -6.1870  -6.1463  -6.1463  -6.1463  -6.1463
    -6.1143  -6.1143  -6.1143  -6.1143  -6.0873  -6.0873  -6.0873  -6.0873
    -6.0498  -6.0498  -6.0498  -6.0498  -5.9947  -5.9947  -5.9947  -5.9947
    -5.9618  -5.9618  -5.9618  -5.9618  -5.8998  -5.8998  -5.8998  -5.8998
    -5.6346  -5.6346  -5.6346  -5.6346  -5.5399  -5.5399  -5.5399  -5.5399
    -4.7188  -4.7188  -4.7188  -4.7188  -4.6269  -4.6269  -4.6269  -4.6269
    -4.2364  -4.2364  -4.2364  -4.2364  -4.1240  -4.1240  -4.1240  -4.1240
    -3.5950  -3.5950  -3.5950  -3.5950  -3.5128  -3.5128  -3.5128  -3.5128
    -3.4416  -3.4416  -3.4416  -3.4416  -3.2272  -3.2272  -3.2272  -3.2272
    -2.9977  -2.9977  -2.9977  -2.9977  -2.8770  -2.8770  -2.8770  -2.8770
    -1.9236  -1.9236  -1.9236  -1.9236  -1.8227  -1.8227  -1.8227  -1.8227
    -1.6982  -1.6982  -1.6982  -1.6982  -1.6214  -1.6214  -1.6214  -1.6214
    -1.5668  -1.5668  -1.5668  -1.5668  -1.4955  -1.4955  -1.4955  -1.4955
    -1.4601  -1.4601  -1.4601  -1.4601  -1.4284  -1.4284  -1.4284  -1.4284
    -1.3968  -1.3968  -1.3968  -1.3968  -1.3378  -1.3378  -1.3378  -1.3378
    -1.2190  -1.2190  -1.2190  -1.2190  -1.1672  -1.1672  -1.1672  -1.1672
    -1.1226  -1.1226  -1.1226  -1.1226  -1.0379  -1.0379  -1.0379  -1.0379
    -0.8440  -0.8440  -0.8440  -0.8440  -0.8042  -0.8042  -0.8042  -0.8042
    -0.7417  -0.7417  -0.7417  -0.7417  -0.6397  -0.6397  -0.6397  -0.6397
    -0.5516  -0.5516  -0.5516  -0.5516  -0.5280  -0.5280  -0.5280  -0.5280
    -0.4282  -0.4282  -0.4282  -0.4282  -0.3953  -0.3953  -0.3953  -0.3953
    -0.2865  -0.2865  -0.2865  -0.2865  -0.2121  -0.2121  -0.2121  -0.2121
    -0.1745  -0.1745  -0.1745  -0.1745  -0.1188  -0.1188  -0.1188  -0.1188
     0.7481   0.7481   0.7481   0.7481   0.9753   0.9753   0.9753   0.9753
     1.0001   1.0001   1.0001   1.0001   1.0733   1.0733   1.0733   1.0733
     3.1905   3.1905   3.1905   3.1905   3.2447   3.2447   3.2447   3.2447
     3.3118   3.3118   3.3118   3.3118   3.3607   3.3607   3.3607   3.3607
     3.5449   3.5449   3.5449   3.5449   3.6062   3.6062   3.6062   3.6062
     4.4119   4.4119   4.4119   4.4119   4.4438   4.4438   4.4438   4.4438
     5.3598   5.3598   5.3598   5.3598   5.4862   5.4862   5.4862   5.4862
     7.3788   7.3788   7.3788   7.3788   7.5238   7.5238   7.5238   7.5238
     7.5700   7.5700   7.5700   7.5700   7.6262   7.6262   7.6262   7.6262
     7.8852   7.8852   7.8852   7.8852   8.2054   8.2054   8.2054   8.2054
     8.4144   8.4144   8.4144   8.4144   8.5366   8.5366   8.5366   8.5366
     8.8150   8.8150   8.8150   8.8150

          k =-0.5000-0.5248 0.0000 (227780 PWs)   bands (ev):

   -24.9968 -24.9968 -24.9968 -24.9968 -24.9929 -24.9929 -24.9929 -24.9929
   -24.6089 -24.6089 -24.6089 -24.6089 -24.6088 -24.6088 -24.6088 -24.6088
   -24.4459 -24.4459 -24.4459 -24.4459 -24.4314 -24.4314 -24.4314 -24.4314
   -20.5440 -20.5440 -20.5440 -20.5440 -20.5404 -20.5404 -20.5404 -20.5404
   -20.4478 -20.4478 -20.4478 -20.4478 -20.4451 -20.4451 -20.4451 -20.4451
   -20.3582 -20.3582 -20.3582 -20.3582 -20.3561 -20.3561 -20.3561 -20.3561
   -20.2022 -20.2022 -20.2022 -20.2022 -20.1976 -20.1976 -20.1976 -20.1976
   -17.6667 -17.6667 -17.6667 -17.6667 -17.6593 -17.6593 -17.6593 -17.6593
   -16.0180 -16.0180 -16.0180 -16.0180 -15.9933 -15.9933 -15.9933 -15.9933
   -15.0232 -15.0232 -15.0232 -15.0232 -15.0159 -15.0159 -15.0159 -15.0159
   -12.3963 -12.3963 -12.3963 -12.3963 -12.3692 -12.3692 -12.3692 -12.3692
   -11.1082 -11.1082 -11.1082 -11.1082 -11.0505 -11.0505 -11.0505 -11.0505
   -10.6978 -10.6978 -10.6978 -10.6978 -10.6703 -10.6703 -10.6703 -10.6703
   -10.5674 -10.5674 -10.5674 -10.5674 -10.5074 -10.5074 -10.5074 -10.5074
    -9.8697  -9.8697  -9.8697  -9.8697  -9.8103  -9.8103  -9.8103  -9.8103
    -8.6266  -8.6266  -8.6266  -8.6266  -8.5677  -8.5677  -8.5677  -8.5677
    -7.9418  -7.9418  -7.9418  -7.9418  -7.8650  -7.8650  -7.8650  -7.8650
    -7.6343  -7.6343  -7.6343  -7.6343  -7.5820  -7.5820  -7.5820  -7.5820
    -7.4383  -7.4383  -7.4383  -7.4383  -7.3944  -7.3944  -7.3944  -7.3944
    -7.2171  -7.2171  -7.2171  -7.2171  -7.1835  -7.1835  -7.1835  -7.1835
    -6.5714  -6.5714  -6.5714  -6.5714  -6.5554  -6.5554  -6.5554  -6.5554
    -6.4497  -6.4497  -6.4497  -6.4497  -6.3964  -6.3964  -6.3964  -6.3964
    -6.3002  -6.3002  -6.3002  -6.3002  -6.2459  -6.2459  -6.2459  -6.2459
    -6.2097  -6.2097  -6.2097  -6.2097  -6.1482  -6.1482  -6.1482  -6.1482
    -6.1083  -6.1083  -6.1083  -6.1083  -6.0836  -6.0836  -6.0836  -6.0836
    -6.0391  -6.0391  -6.0391  -6.0391  -5.9851  -5.9851  -5.9851  -5.9851
    -5.9410  -5.9410  -5.9410  -5.9410  -5.9184  -5.9184  -5.9184  -5.9184
    -5.6164  -5.6164  -5.6164  -5.6164  -5.5587  -5.5587  -5.5587  -5.5587
    -4.6891  -4.6891  -4.6891  -4.6891  -4.6615  -4.6615  -4.6615  -4.6615
    -4.2308  -4.2308  -4.2308  -4.2308  -4.1259  -4.1259  -4.1259  -4.1259
    -3.5921  -3.5921  -3.5921  -3.5921  -3.5365  -3.5365  -3.5365  -3.5365
    -3.3336  -3.3336  -3.3336  -3.3336  -3.3122  -3.3122  -3.3122  -3.3122
    -2.9937  -2.9937  -2.9937  -2.9937  -2.8856  -2.8856  -2.8856  -2.8856
    -1.8807  -1.8807  -1.8807  -1.8807  -1.8093  -1.8093  -1.8093  -1.8093
    -1.7137  -1.7137  -1.7137  -1.7137  -1.6331  -1.6331  -1.6331  -1.6331
    -1.5692  -1.5692  -1.5692  -1.5692  -1.5223  -1.5223  -1.5223  -1.5223
    -1.4720  -1.4720  -1.4720  -1.4720  -1.4225  -1.4225  -1.4225  -1.4225
    -1.3841  -1.3841  -1.3841  -1.3841  -1.3489  -1.3489  -1.3489  -1.3489
    -1.2083  -1.2083  -1.2083  -1.2083  -1.1786  -1.1786  -1.1786  -1.1786
    -1.1207  -1.1207  -1.1207  -1.1207  -1.0503  -1.0503  -1.0503  -1.0503
    -0.8679  -0.8679  -0.8679  -0.8679  -0.7587  -0.7587  -0.7587  -0.7587
    -0.7237  -0.7237  -0.7237  -0.7237  -0.6454  -0.6454  -0.6454  -0.6454
    -0.5798  -0.5798  -0.5798  -0.5798  -0.5371  -0.5371  -0.5371  -0.5371
    -0.4112  -0.4112  -0.4112  -0.4112  -0.3781  -0.3781  -0.3781  -0.3781
    -0.2946  -0.2946  -0.2946  -0.2946  -0.2104  -0.2104  -0.2104  -0.2104
    -0.1587  -0.1587  -0.1587  -0.1587  -0.1389  -0.1389  -0.1389  -0.1389
     0.7463   0.7463   0.7463   0.7463   0.9695   0.9695   0.9695   0.9695
     1.0228   1.0228   1.0228   1.0228   1.0599   1.0599   1.0599   1.0599
     3.1812   3.1812   3.1812   3.1812   3.2698   3.2698   3.2698   3.2698
     3.3189   3.3189   3.3189   3.3189   3.3418   3.3418   3.3418   3.3418
     3.5365   3.5365   3.5365   3.5365   3.6065   3.6065   3.6065   3.6065
     4.4026   4.4026   4.4026   4.4026   4.4523   4.4523   4.4523   4.4523
     5.3786   5.3786   5.3786   5.3786   5.4682   5.4682   5.4682   5.4682
     7.3600   7.3600   7.3600   7.3600   7.5474   7.5474   7.5474   7.5474
     7.5720   7.5720   7.5720   7.5720   7.6739   7.6739   7.6739   7.6739
     7.9139   7.9139   7.9139   7.9139   8.1063   8.1063   8.1063   8.1063
     8.4714   8.4714   8.4714   8.4714   8.5903   8.5903   8.5903   8.5903
     8.7296   8.7296   8.7297   8.7297

          k =-0.5000-0.5248-0.4573 (227944 PWs)   bands (ev):

   -24.9968 -24.9968 -24.9968 -24.9968 -24.9930 -24.9930 -24.9930 -24.9930
   -24.6089 -24.6089 -24.6089 -24.6089 -24.6088 -24.6088 -24.6088 -24.6088
   -24.4459 -24.4459 -24.4459 -24.4459 -24.4315 -24.4315 -24.4315 -24.4315
   -20.5433 -20.5433 -20.5433 -20.5433 -20.5411 -20.5411 -20.5411 -20.5411
   -20.4469 -20.4469 -20.4469 -20.4469 -20.4461 -20.4461 -20.4461 -20.4461
   -20.3572 -20.3572 -20.3572 -20.3572 -20.3570 -20.3570 -20.3570 -20.3570
   -20.2016 -20.2016 -20.2016 -20.2016 -20.1982 -20.1982 -20.1982 -20.1982
   -17.6666 -17.6666 -17.6666 -17.6666 -17.6594 -17.6594 -17.6594 -17.6594
   -16.0170 -16.0170 -16.0170 -16.0170 -15.9943 -15.9943 -15.9943 -15.9943
   -15.0208 -15.0208 -15.0208 -15.0208 -15.0183 -15.0183 -15.0183 -15.0183
   -12.3928 -12.3928 -12.3928 -12.3928 -12.3730 -12.3730 -12.3730 -12.3730
   -11.0905 -11.0905 -11.0905 -11.0905 -11.0703 -11.0703 -11.0703 -11.0703
   -10.6917 -10.6917 -10.6917 -10.6917 -10.6764 -10.6764 -10.6764 -10.6764
   -10.5387 -10.5387 -10.5387 -10.5387 -10.5348 -10.5348 -10.5348 -10.5348
    -9.8481  -9.8481  -9.8481  -9.8481  -9.8310  -9.8310  -9.8310  -9.8310
    -8.6189  -8.6189  -8.6189  -8.6189  -8.5762  -8.5762  -8.5762  -8.5762
    -7.9401  -7.9401  -7.9401  -7.9401  -7.8674  -7.8674  -7.8674  -7.8674
    -7.6101  -7.6101  -7.6101  -7.6101  -7.6072  -7.6072  -7.6072  -7.6072
    -7.4222  -7.4222  -7.4222  -7.4222  -7.4130  -7.4130  -7.4130  -7.4130
    -7.1999  -7.1999  -7.1999  -7.1999  -7.1960  -7.1960  -7.1960  -7.1960
    -6.5733  -6.5733  -6.5733  -6.5733  -6.5452  -6.5452  -6.5452  -6.5452
    -6.4559  -6.4559  -6.4559  -6.4559  -6.3933  -6.3933  -6.3933  -6.3933
    -6.2971  -6.2971  -6.2971  -6.2971  -6.2537  -6.2537  -6.2537  -6.2537
    -6.1950  -6.1950  -6.1950  -6.1950  -6.1567  -6.1567  -6.1567  -6.1567
    -6.1054  -6.1054  -6.1054  -6.1054  -6.0854  -6.0854  -6.0854  -6.0854
    -6.0259  -6.0259  -6.0259  -6.0259  -6.0194  -6.0194  -6.0194  -6.0194
    -5.9317  -5.9317  -5.9317  -5.9317  -5.9186  -5.9186  -5.9186  -5.9186
    -5.5894  -5.5894  -5.5894  -5.5894  -5.5809  -5.5809  -5.5809  -5.5809
    -4.6797  -4.6797  -4.6797  -4.6797  -4.6723  -4.6723  -4.6723  -4.6723
    -4.2295  -4.2295  -4.2295  -4.2295  -4.1269  -4.1269  -4.1269  -4.1269
    -3.5911  -3.5911  -3.5911  -3.5911  -3.5363  -3.5363  -3.5363  -3.5363
    -3.3235  -3.3235  -3.3235  -3.3235  -3.3213  -3.3213  -3.3213  -3.3213
    -2.9949  -2.9949  -2.9949  -2.9949  -2.8853  -2.8853  -2.8853  -2.8853
    -1.8503  -1.8503  -1.8503  -1.8503  -1.8445  -1.8445  -1.8445  -1.8445
    -1.7057  -1.7057  -1.7057  -1.7057  -1.6502  -1.6502  -1.6502  -1.6502
    -1.5364  -1.5364  -1.5364  -1.5364  -1.5344  -1.5344  -1.5344  -1.5344
    -1.4811  -1.4811  -1.4811  -1.4811  -1.4323  -1.4323  -1.4323  -1.4323
    -1.3761  -1.3761  -1.3761  -1.3761  -1.3456  -1.3456  -1.3456  -1.3456
    -1.2005  -1.2005  -1.2005  -1.2005  -1.1856  -1.1856  -1.1856  -1.1856
    -1.1192  -1.1192  -1.1192  -1.1192  -1.0512  -1.0512  -1.0512  -1.0512
    -0.8529  -0.8529  -0.8529  -0.8529  -0.7804  -0.7804  -0.7804  -0.7804
    -0.7340  -0.7340  -0.7340  -0.7340  -0.6352  -0.6352  -0.6352  -0.6352
    -0.5649  -0.5649  -0.5649  -0.5649  -0.5457  -0.5457  -0.5457  -0.5457
    -0.3993  -0.3993  -0.3993  -0.3993  -0.3825  -0.3825  -0.3825  -0.3825
    -0.2963  -0.2963  -0.2963  -0.2963  -0.2193  -0.2193  -0.2193  -0.2193
    -0.1691  -0.1691  -0.1691  -0.1691  -0.1252  -0.1252  -0.1252  -0.1252
     0.7560   0.7560   0.7560   0.7560   0.9470   0.9470   0.9470   0.9470
     1.0130   1.0130   1.0130   1.0130   1.0823   1.0823   1.0823   1.0823
     3.1891   3.1891   3.1891   3.1891   3.2467   3.2467   3.2467   3.2467
     3.3270   3.3270   3.3270   3.3270   3.3422   3.3422   3.3422   3.3422
     3.5427   3.5427   3.5427   3.5427   3.6077   3.6077   3.6077   3.6077
     4.4159   4.4159   4.4159   4.4159   4.4385   4.4385   4.4385   4.4385
     5.3915   5.3915   5.3915   5.3915   5.4554   5.4554   5.4554   5.4554
     7.3900   7.3900   7.3900   7.3900   7.5266   7.5266   7.5266   7.5266
     7.5832   7.5832   7.5832   7.5832   7.6400   7.6400   7.6400   7.6400
     7.9483   7.9483   7.9483   7.9483   8.0562   8.0562   8.0562   8.0562
     8.5249   8.5249   8.5249   8.5249   8.5587   8.5588   8.5588   8.5588
     8.7825   8.7825   8.7825   8.7828

     highest occupied, lowest unoccupied level (ev):     1.0924    3.1578

!    total energy              =   -4388.46769237 Ry
     Harris-Foulkes estimate   =   -4388.46769237 Ry
     estimated scf accuracy    <          8.2E-09 Ry

     total all-electron energy =    -16508.522406 Ry

     The total energy is the sum of the following terms:

     one-electron contribution =   -2443.52930597 Ry
     hartree contribution      =    1531.15233095 Ry
     xc contribution           =    -853.79913315 Ry
     ewald contribution        =   -1437.53688521 Ry
     Dispersion Correction     =      -0.83175133 Ry
     one-center paw contrib.   =   -1183.92294765 Ry

     convergence has been achieved in  17 iterations

     Forces acting on atoms (cartesian axes, Ry/au):

     atom    1 type  4   force =    -0.00011182    0.00060444    0.00013351
     atom    2 type  4   force =     0.00011182   -0.00060444    0.00013351
     atom    3 type  4   force =     0.00011182    0.00060444   -0.00013351
     atom    4 type  4   force =    -0.00011182   -0.00060444   -0.00013351
     atom    5 type  4   force =     0.00011182   -0.00060444   -0.00013351
     atom    6 type  4   force =    -0.00011182    0.00060444   -0.00013351
     atom    7 type  4   force =    -0.00011182   -0.00060444    0.00013351
     atom    8 type  4   force =     0.00011182    0.00060444    0.00013351
     atom    9 type  2   force =    -0.00015984   -0.00009712   -0.00001896
     atom   10 type  2   force =     0.00015984    0.00009712   -0.00001896
     atom   11 type  2   force =     0.00015984   -0.00009712    0.00001896
     atom   12 type  2   force =    -0.00015984    0.00009712    0.00001896
     atom   13 type  2   force =     0.00015984    0.00009712    0.00001896
     atom   14 type  2   force =    -0.00015984   -0.00009712    0.00001896
     atom   15 type  2   force =    -0.00015984    0.00009712   -0.00001896
     atom   16 type  2   force =     0.00015984   -0.00009712   -0.00001896
     atom   17 type  4   force =    -0.00032704   -0.00003051   -0.00033479
     atom   18 type  4   force =     0.00032704    0.00003051   -0.00033479
     atom   19 type  4   force =     0.00032704   -0.00003051    0.00033479
     atom   20 type  4   force =    -0.00032704    0.00003051    0.00033479
     atom   21 type  4   force =     0.00032704    0.00003051    0.00033479
     atom   22 type  4   force =    -0.00032704   -0.00003051    0.00033479
     atom   23 type  4   force =    -0.00032704    0.00003051   -0.00033479
     atom   24 type  4   force =     0.00032704   -0.00003051   -0.00033479
     atom   25 type  1   force =     0.00033100    0.00061515   -0.00019667
     atom   26 type  1   force =    -0.00033100   -0.00061515   -0.00019667
     atom   27 type  1   force =    -0.00033100    0.00061515    0.00019667
     atom   28 type  1   force =     0.00033100   -0.00061515    0.00019667
     atom   29 type  1   force =    -0.00033100   -0.00061515    0.00019667
     atom   30 type  1   force =     0.00033100    0.00061515    0.00019667
     atom   31 type  1   force =     0.00033100   -0.00061515   -0.00019667
     atom   32 type  1   force =    -0.00033100    0.00061515   -0.00019667
     atom   33 type  4   force =     0.00083787   -0.00039045    0.00056286
     atom   34 type  4   force =    -0.00083787    0.00039045    0.00056286
     atom   35 type  4   force =    -0.00083787   -0.00039045   -0.00056286
     atom   36 type  4   force =     0.00083787    0.00039045   -0.00056286
     atom   37 type  4   force =    -0.00083787    0.00039045   -0.00056286
     atom   38 type  4   force =     0.00083787   -0.00039045   -0.00056286
     atom   39 type  4   force =     0.00083787    0.00039045    0.00056286
     atom   40 type  4   force =    -0.00083787   -0.00039045    0.00056286
     atom   41 type  1   force =    -0.00002713    0.00067533    0.00002992
     atom   42 type  1   force =     0.00002713   -0.00067533    0.00002992
     atom   43 type  1   force =     0.00002713    0.00067533   -0.00002992
     atom   44 type  1   force =    -0.00002713   -0.00067533   -0.00002992
     atom   45 type  1   force =     0.00002713   -0.00067533   -0.00002992
     atom   46 type  1   force =    -0.00002713    0.00067533   -0.00002992
     atom   47 type  1   force =    -0.00002713   -0.00067533    0.00002992
     atom   48 type  1   force =     0.00002713    0.00067533    0.00002992
     atom   49 type  4   force =    -0.00028315   -0.00023081    0.00047804
     atom   50 type  4   force =     0.00028315    0.00023081    0.00047804
     atom   51 type  4   force =     0.00028315   -0.00023081   -0.00047804
     atom   52 type  4   force =    -0.00028315    0.00023081   -0.00047804
     atom   53 type  4   force =     0.00028315    0.00023081   -0.00047804
     atom   54 type  4   force =    -0.00028315   -0.00023081   -0.00047804
     atom   55 type  4   force =    -0.00028315    0.00023081    0.00047804
     atom   56 type  4   force =     0.00028315   -0.00023081    0.00047804
     atom   57 type  2   force =    -0.00001024   -0.00001921   -0.00012410
     atom   58 type  2   force =     0.00001024    0.00001921   -0.00012410
     atom   59 type  2   force =     0.00001024   -0.00001921    0.00012410
     atom   60 type  2   force =    -0.00001024    0.00001921    0.00012410
     atom   61 type  2   force =     0.00001024    0.00001921    0.00012410
     atom   62 type  2   force =    -0.00001024   -0.00001921    0.00012410
     atom   63 type  2   force =    -0.00001024    0.00001921   -0.00012410
     atom   64 type  2   force =     0.00001024   -0.00001921   -0.00012410
     atom   65 type  4   force =     0.00108963    0.00006759    0.00003735
     atom   66 type  4   force =    -0.00108963   -0.00006759    0.00003735
     atom   67 type  4   force =    -0.00108963    0.00006759   -0.00003735
     atom   68 type  4   force =     0.00108963   -0.00006759   -0.00003735
     atom   69 type  4   force =    -0.00108963   -0.00006759   -0.00003735
     atom   70 type  4   force =     0.00108963    0.00006759   -0.00003735
     atom   71 type  4   force =     0.00108963   -0.00006759    0.00003735
     atom   72 type  4   force =    -0.00108963    0.00006759    0.00003735
     atom   73 type  2   force =    -0.00018771    0.00092980    0.00037629
     atom   74 type  2   force =     0.00018771   -0.00092980    0.00037629
     atom   75 type  2   force =     0.00018771    0.00092980   -0.00037629
     atom   76 type  2   force =    -0.00018771   -0.00092980   -0.00037629
     atom   77 type  2   force =     0.00018771   -0.00092980   -0.00037629
     atom   78 type  2   force =    -0.00018771    0.00092980   -0.00037629
     atom   79 type  2   force =    -0.00018771   -0.00092980    0.00037629
     atom   80 type  2   force =     0.00018771    0.00092980    0.00037629
     atom   81 type  1   force =     0.00004475   -0.00044837    0.00003954
     atom   82 type  1   force =    -0.00004475    0.00044837    0.00003954
     atom   83 type  1   force =    -0.00004475   -0.00044837   -0.00003954
     atom   84 type  1   force =     0.00004475    0.00044837   -0.00003954
     atom   85 type  1   force =    -0.00004475    0.00044837   -0.00003954
     atom   86 type  1   force =     0.00004475   -0.00044837   -0.00003954
     atom   87 type  1   force =     0.00004475    0.00044837    0.00003954
     atom   88 type  1   force =    -0.00004475   -0.00044837    0.00003954
     atom   89 type  3   force =     0.00013522   -0.00012684   -0.00012431
     atom   90 type  3   force =    -0.00013522    0.00012684   -0.00012431
     atom   91 type  3   force =    -0.00013522   -0.00012684    0.00012431
     atom   92 type  3   force =     0.00013522    0.00012684    0.00012431
     atom   93 type  3   force =    -0.00013522    0.00012684    0.00012431
     atom   94 type  3   force =     0.00013522   -0.00012684    0.00012431
     atom   95 type  3   force =     0.00013522    0.00012684   -0.00012431
     atom   96 type  3   force =    -0.00013522   -0.00012684   -0.00012431
     atom   97 type  4   force =    -0.00019659   -0.00047501   -0.00024327
     atom   98 type  4   force =     0.00019659    0.00047501   -0.00024327
     atom   99 type  4   force =     0.00019659   -0.00047501    0.00024327
     atom  100 type  4   force =    -0.00019659    0.00047501    0.00024327
     atom  101 type  4   force =     0.00019659    0.00047501    0.00024327
     atom  102 type  4   force =    -0.00019659   -0.00047501    0.00024327
     atom  103 type  4   force =    -0.00019659    0.00047501   -0.00024327
     atom  104 type  4   force =     0.00019659   -0.00047501   -0.00024327
     atom  105 type  2   force =    -0.00003221   -0.00023885   -0.00019827
     atom  106 type  2   force =     0.00003221    0.00023885   -0.00019827
     atom  107 type  2   force =     0.00003221   -0.00023885    0.00019827
     atom  108 type  2   force =    -0.00003221    0.00023885    0.00019827
     atom  109 type  2   force =     0.00003221    0.00023885    0.00019827
     atom  110 type  2   force =    -0.00003221   -0.00023885    0.00019827
     atom  111 type  2   force =    -0.00003221    0.00023885   -0.00019827
     atom  112 type  2   force =     0.00003221   -0.00023885   -0.00019827
     atom  113 type  1   force =    -0.00028994   -0.00011494   -0.00013528
     atom  114 type  1   force =     0.00028994    0.00011494   -0.00013528
     atom  115 type  1   force =     0.00028994   -0.00011494    0.00013528
     atom  116 type  1   force =    -0.00028994    0.00011494    0.00013528
     atom  117 type  1   force =     0.00028994    0.00011494    0.00013528
     atom  118 type  1   force =    -0.00028994   -0.00011494    0.00013528
     atom  119 type  1   force =    -0.00028994    0.00011494   -0.00013528
     atom  120 type  1   force =     0.00028994   -0.00011494   -0.00013528
     atom  121 type  3   force =    -0.00016558   -0.00029989    0.00009154
     atom  122 type  3   force =     0.00016558    0.00029989    0.00009154
     atom  123 type  3   force =     0.00016558   -0.00029989   -0.00009154
     atom  124 type  3   force =    -0.00016558    0.00029989   -0.00009154
     atom  125 type  3   force =     0.00016558    0.00029989   -0.00009154
     atom  126 type  3   force =    -0.00016558   -0.00029989   -0.00009154
     atom  127 type  3   force =    -0.00016558    0.00029989    0.00009154
     atom  128 type  3   force =     0.00016558   -0.00029989    0.00009154
     atom  129 type  4   force =    -0.00012888    0.00042167    0.00032743
     atom  130 type  4   force =     0.00012888   -0.00042167    0.00032743
     atom  131 type  4   force =     0.00012888    0.00042167   -0.00032743
     atom  132 type  4   force =    -0.00012888   -0.00042167   -0.00032743
     atom  133 type  4   force =     0.00012888   -0.00042167   -0.00032743
     atom  134 type  4   force =    -0.00012888    0.00042167   -0.00032743
     atom  135 type  4   force =    -0.00012888   -0.00042167    0.00032743
     atom  136 type  4   force =     0.00012888    0.00042167    0.00032743
     atom  137 type  2   force =    -0.00023332   -0.00096117    0.00019609
     atom  138 type  2   force =     0.00023332    0.00096117    0.00019609
     atom  139 type  2   force =     0.00023332   -0.00096117   -0.00019609
     atom  140 type  2   force =    -0.00023332    0.00096117   -0.00019609
     atom  141 type  2   force =     0.00023332    0.00096117   -0.00019609
     atom  142 type  2   force =    -0.00023332   -0.00096117   -0.00019609
     atom  143 type  2   force =    -0.00023332    0.00096117    0.00019609
     atom  144 type  2   force =     0.00023332   -0.00096117    0.00019609
     atom  145 type  1   force =     0.00027510   -0.00006618    0.00010716
     atom  146 type  1   force =    -0.00027510    0.00006618    0.00010716
     atom  147 type  1   force =    -0.00027510   -0.00006618   -0.00010716
     atom  148 type  1   force =     0.00027510    0.00006618   -0.00010716
     atom  149 type  1   force =    -0.00027510    0.00006618   -0.00010716
     atom  150 type  1   force =     0.00027510   -0.00006618   -0.00010716
     atom  151 type  1   force =     0.00027510    0.00006618    0.00010716
     atom  152 type  1   force =    -0.00027510   -0.00006618    0.00010716
     atom  153 type  1   force =    -0.00012791    0.00015647   -0.00026535
     atom  154 type  1   force =     0.00012791   -0.00015647   -0.00026535
     atom  155 type  1   force =     0.00012791    0.00015647    0.00026535
     atom  156 type  1   force =    -0.00012791   -0.00015647    0.00026535
     atom  157 type  1   force =     0.00012791   -0.00015647    0.00026535
     atom  158 type  1   force =    -0.00012791    0.00015647    0.00026535
     atom  159 type  1   force =    -0.00012791   -0.00015647   -0.00026535
     atom  160 type  1   force =     0.00012791    0.00015647   -0.00026535
     atom  161 type  3   force =    -0.00072610   -0.00021028    0.00029134
     atom  162 type  3   force =     0.00072610    0.00021028    0.00029134
     atom  163 type  3   force =     0.00072610   -0.00021028   -0.00029134
     atom  164 type  3   force =    -0.00072610    0.00021028   -0.00029134
     atom  165 type  3   force =     0.00072610    0.00021028   -0.00029134
     atom  166 type  3   force =    -0.00072610   -0.00021028   -0.00029134
     atom  167 type  3   force =    -0.00072610    0.00021028    0.00029134
     atom  168 type  3   force =     0.00072610   -0.00021028    0.00029134
     atom  169 type  3   force =     0.00039146   -0.00030719   -0.00062364
     atom  170 type  3   force =    -0.00039146    0.00030719   -0.00062364
     atom  171 type  3   force =    -0.00039146   -0.00030719    0.00062364
     atom  172 type  3   force =     0.00039146    0.00030719    0.00062364
     atom  173 type  3   force =    -0.00039146    0.00030719    0.00062364
     atom  174 type  3   force =     0.00039146   -0.00030719    0.00062364
     atom  175 type  3   force =     0.00039146    0.00030719   -0.00062364
     atom  176 type  3   force =    -0.00039146   -0.00030719   -0.00062364
     atom  177 type  3   force =     0.00016897    0.00017036    0.00052654
     atom  178 type  3   force =    -0.00016897   -0.00017036    0.00052654
     atom  179 type  3   force =    -0.00016897    0.00017036   -0.00052654
     atom  180 type  3   force =     0.00016897   -0.00017036   -0.00052654
     atom  181 type  3   force =    -0.00016897   -0.00017036   -0.00052654
     atom  182 type  3   force =     0.00016897    0.00017036   -0.00052654
     atom  183 type  3   force =     0.00016897   -0.00017036    0.00052654
     atom  184 type  3   force =    -0.00016897    0.00017036    0.00052654

     Total force =     0.008711     Total SCF correction =     0.000217


     Computing stress (Cartesian axis) and pressure

          total   stress  (Ry/bohr**3)                   (kbar)     P=   -0.31
  -0.00000475   0.00000000   0.00000000         -0.70      0.00      0.00
   0.00000000   0.00000489   0.00000000          0.00      0.72      0.00
   0.00000000   0.00000000  -0.00000654          0.00      0.00     -0.96


     Writing output data file scf.save
 
     init_run     :    346.84s CPU    352.43s WALL (       1 calls)
     electrons    :  15238.53s CPU  15463.68s WALL (       1 calls)
     forces       :    179.99s CPU    180.71s WALL (       1 calls)
     stress       :   1030.55s CPU   1031.89s WALL (       1 calls)

     Called by init_run:
     wfcinit      :    334.48s CPU    339.46s WALL (       1 calls)
     potinit      :      4.30s CPU      4.35s WALL (       1 calls)

     Called by electrons:
     c_bands      :  13959.40s CPU  14154.21s WALL (      17 calls)
     sum_band     :   1246.33s CPU   1272.98s WALL (      17 calls)
     v_of_rho     :      5.17s CPU      5.38s WALL (      18 calls)
     newd         :     14.55s CPU     18.17s WALL (      18 calls)
     PAW_pot      :     12.37s CPU     12.39s WALL (      18 calls)
     mix_rho      :      1.21s CPU      1.27s WALL (      17 calls)

     Called by c_bands:
     init_us_2    :     33.37s CPU     33.53s WALL (     296 calls)
     cegterg      :  13784.52s CPU  13979.17s WALL (     136 calls)

     Called by sum_band:
     sum_band:bec :      0.47s CPU      0.47s WALL (     136 calls)
     addusdens    :     15.92s CPU     19.35s WALL (      17 calls)

     Called by *egterg:
     h_psi        :   6462.79s CPU   6588.37s WALL (     583 calls)
     s_psi        :   1916.17s CPU   1916.20s WALL (     583 calls)
     g_psi        :     18.41s CPU     18.42s WALL (     439 calls)
     cdiaghg      :    778.94s CPU    779.08s WALL (     575 calls)

     Called by h_psi:
     h_psi:pot    :   6437.57s CPU   6562.70s WALL (     583 calls)
     h_psi:calbec :   1936.36s CPU   1938.19s WALL (     583 calls)
     vloc_psi     :   2584.71s CPU   2708.01s WALL (     583 calls)
     add_vuspsi   :   1916.50s CPU   1916.49s WALL (     583 calls)

     General routines
     calbec       :   2897.25s CPU   2900.04s WALL (     759 calls)
     fft          :     12.71s CPU     13.31s WALL (     258 calls)
     fftw         :   2858.06s CPU   3003.55s WALL (  403534 calls)
 
     Parallel routines
     fft_scatter  :   1042.82s CPU   1188.63s WALL (  403792 calls)
 
     PWSCF        :     4h40m CPU        4h45m WALL

 
   This run was terminated on:  19:52:49  20Jan2018            

=------------------------------------------------------------------------------=
   JOB DONE.
=------------------------------------------------------------------------------=
