
     Program PWSCF v.6.1 (svn rev. 13369) starts on 18Dec2017 at 12:56:42 

     This program is part of the open-source Quantum ESPRESSO suite
     for quantum simulation of materials; please cite
         "P. Giannozzi et al., J. Phys.:Condens. Matter 21 395502 (2009);
          URL http://www.quantum-espresso.org", 
     in publications or presentations arising from this work. More details at
     http://www.quantum-espresso.org/quote

     Parallel version (MPI), running on     8 processors
     R & G space division:  proc/nbgrp/npool/nimage =       8
     Waiting for input...
     Reading input from standard input

     Current dimensions of program PWSCF are:
     Max number of different atomic species (ntypx) = 10
     Max number of k-points (npk) =  40000
     Max angular momentum in pseudopotentials (lmaxx) =  3
               file C.pbe-n-kjpaw_psl.0.1.UPF: wavefunction(s)  2P renormalized
               file N.pbe-n-kjpaw_psl.0.1.UPF: wavefunction(s)  2P renormalized
               file H.pbe-kjpaw_psl.0.1.UPF: wavefunction(s)  1S renormalized
               file O.pbe-n-kjpaw_psl.0.1.UPF: wavefunction(s)  2P renormalized

     -------------------------------------
     Parameters for Dispersion Correction:
     -------------------------------------
       atom      VdW radius       C_6     

        C          2.744         60.710
        N          2.640         42.670
        H          1.892          4.857
        O          2.536         24.284

     Subspace diagonalization in iterative solution of the eigenvalue problem:
     a serial algorithm will be used

 
     Parallelization info
     --------------------
     sticks:   dense  smooth     PW     G-vecs:    dense   smooth      PW
     Min        1018    1018    275                94006    94006   13205
     Max        1019    1019    276                94012    94012   13208
     Sum        8151    8151   2207               752085   752085  105655
 


     bravais-lattice index     =            0
     lattice parameter (alat)  =       9.0883  a.u.
     unit-cell volume          =    5567.7973 (a.u.)^3
     number of atoms/cell      =           80
     number of atomic types    =            4
     number of electrons       =       248.00
     number of Kohn-Sham states=          148
     kinetic-energy cutoff     =     100.0000  Ry
     charge density cutoff     =     400.0000  Ry
     convergence threshold     =      1.0E-08
     mixing beta               =       0.5000
     number of iterations used =            8  plain     mixing
     Exchange-correlation      =  SLA  PW   PBX  PBC ( 1  4  3  4 0 0)

     celldm(1)=   9.088260  celldm(2)=   0.000000  celldm(3)=   0.000000
     celldm(4)=   0.000000  celldm(5)=   0.000000  celldm(6)=   0.000000

     crystal axes: (cart. coord. in units of alat)
               a(1) = (   1.000000   0.000000   0.000000 )  
               a(2) = (   0.000000   3.108457   0.000000 )  
               a(3) = (  -0.145190   0.000000   2.386143 )  

     reciprocal axes: (cart. coord. in units 2 pi/alat)
               b(1) = (  1.000000  0.000000  0.060847 )  
               b(2) = (  0.000000  0.321703  0.000000 )  
               b(3) = (  0.000000  0.000000  0.419086 )  


     PseudoPot. # 1 for  C read from file:
     /scratch/ahofstet/pseudo/C.pbe-n-kjpaw_psl.0.1.UPF
     MD5 check sum: 430fe95172b1e11ef3f8ed03bac87931
     Pseudo is Projector augmented-wave + core cor, Zval =  4.0
     Generated using "atomic" code by A. Dal Corso  v.5.0.99 svn rev. 10869
     Shape of augmentation charge: BESSEL
     Using radial grid of 1073 points,  4 beta functions with: 
                l(1) =   0
                l(2) =   0
                l(3) =   1
                l(4) =   1
     Q(r) pseudized with 0 coefficients 


     PseudoPot. # 2 for  N read from file:
     /scratch/ahofstet/pseudo/N.pbe-n-kjpaw_psl.0.1.UPF
     MD5 check sum: f73187c8b701007e77325f868c9291d7
     Pseudo is Projector augmented-wave + core cor, Zval =  5.0
     Generated using "atomic" code by A. Dal Corso  v.5.0.99 svn rev. 10869
     Shape of augmentation charge: PSQ
     Using radial grid of 1085 points,  4 beta functions with: 
                l(1) =   0
                l(2) =   0
                l(3) =   1
                l(4) =   1
     Q(r) pseudized with 0 coefficients 


     PseudoPot. # 3 for  H read from file:
     /scratch/ahofstet/pseudo/H.pbe-kjpaw_psl.0.1.UPF
     MD5 check sum: 94e484f906d9e9773b2f6e52662335b2
     Pseudo is Projector augmented-wave, Zval =  1.0
     Generated using "atomic" code by A. Dal Corso  v.5.0.99 svn rev. 10869
     Shape of augmentation charge: PSQ
     Using radial grid of  929 points,  2 beta functions with: 
                l(1) =   0
                l(2) =   0
     Q(r) pseudized with 0 coefficients 


     PseudoPot. # 4 for  O read from file:
     /scratch/ahofstet/pseudo/O.pbe-n-kjpaw_psl.0.1.UPF
     MD5 check sum: 3f94a2996a3169367d6eb21d9b593f20
     Pseudo is Projector augmented-wave + core cor, Zval =  6.0
     Generated using "atomic" code by A. Dal Corso  v.5.0.99 svn rev. 10869
     Shape of augmentation charge: BESSEL
     Using radial grid of 1095 points,  4 beta functions with: 
                l(1) =   0
                l(2) =   0
                l(3) =   1
                l(4) =   1
     Q(r) pseudized with 0 coefficients 


     atomic species   valence    mass     pseudopotential
        C              4.00    12.01070      C( 1.00)
        N              5.00    14.00670      N( 1.00)
        H              1.00     1.00794      H( 1.00)
        O              6.00    15.99940      O( 1.00)

      4 Sym. Ops., with inversion, found ( 2 have fractional translation)



   Cartesian axes

     site n.     atom                  positions (alat units)
         1           C   tau(   1) = (   0.8031488   2.5957895  -0.0564736  )
         2           C   tau(   2) = (   0.1242561   1.0415612   1.2495449  )
         3           C   tau(   3) = (   0.0516609   0.5126671   2.4426163  )
         4           C   tau(   4) = (   0.7305536   2.0668953   1.1365977  )
         5           H   tau(   5) = (   0.8525763   2.7401449  -0.2227682  )
         6           H   tau(   6) = (   0.0748286   1.1859166   1.4158395  )
         7           H   tau(   7) = (   0.0022334   0.3683116   2.6089108  )
         8           H   tau(   8) = (   0.7799811   1.9225399   0.9703032  )
         9           C   tau(   9) = (   0.9344079   2.5789480   0.2112387  )
        10           C   tau(  10) = (  -0.0070031   1.0247198   0.9818326  )
        11           C   tau(  11) = (  -0.0795983   0.5295085   2.1749040  )
        12           C   tau(  12) = (   0.8618128   2.0837368   1.4043100  )
        13           H   tau(  13) = (   1.1144963   2.6945523   0.2812153  )
        14           H   tau(  14) = (  -0.1870914   1.1403241   0.9118560  )
        15           H   tau(  15) = (  -0.2596866   0.4139042   2.1049274  )
        16           H   tau(  16) = (   1.0419011   1.9681325   1.4742866  )
        17           C   tau(  17) = (   0.7873563   2.3856435   0.3571432  )
        18           C   tau(  18) = (   0.1400486   0.8314153   0.8359281  )
        19           C   tau(  19) = (   0.0674534   0.7228130   2.0289995  )
        20           C   tau(  20) = (   0.7147611   2.2770413   1.5502145  )
        21           H   tau(  21) = (   0.8084784   2.3005072   0.5649811  )
        22           H   tau(  22) = (   0.1189264   0.7462790   0.6280902  )
        23           H   tau(  23) = (   0.0463313   0.8079493   1.8211615  )
        24           H   tau(  24) = (   0.7358832   2.3621776   1.7580525  )
        25           C   tau(  25) = (   0.5842791   2.4133566  -0.0531181  )
        26           C   tau(  26) = (   0.3431258   0.8591283   1.2461894  )
        27           C   tau(  27) = (   0.2705306   0.6950999   2.4392607  )
        28           C   tau(  28) = (   0.5116839   2.2493282   1.1399533  )
        29           C   tau(  29) = (   0.3794300   2.3389358  -0.2669844  )
        30           C   tau(  30) = (   0.5479748   0.7847076   1.4600557  )
        31           C   tau(  31) = (   0.4753796   0.7695207   2.6531270  )
        32           C   tau(  32) = (   0.3068349   2.3237490   0.9260870  )
        33           H   tau(  33) = (   0.1610716   2.3925017  -0.2003929  )
        34           H   tau(  34) = (   0.7663333   0.8382734   1.3934643  )
        35           H   tau(  35) = (   0.6937381   0.7159548   2.5865356  )
        36           H   tau(  36) = (   0.0884764   2.2701831   0.9926784  )
        37           H   tau(  37) = (   0.4247609   2.4617610  -0.4538046  )
        38           H   tau(  38) = (   0.5026439   0.9075327   1.6468759  )
        39           H   tau(  39) = (   0.4300488   0.6466956   2.8399473  )
        40           H   tau(  40) = (   0.3521657   2.2009238   0.7392667  )
        41           C   tau(  41) = (   0.0227348   1.8697704   2.1226853  )
        42           C   tau(  42) = (   0.7594797   0.3155421   1.4565287  )
        43           C   tau(  43) = (   0.8320748   1.2386862   0.2634574  )
        44           C   tau(  44) = (   0.0953300   2.7929144   0.9296140  )
        45           C   tau(  45) = (   0.0406189   1.5692591   2.0137856  )
        46           C   tau(  46) = (   0.7415957   0.0150309   1.5654284  )
        47           C   tau(  47) = (   0.8141908   1.5391974   0.3723571  )
        48           C   tau(  48) = (   0.1132140   3.0934257   0.8207142  )
        49           H   tau(  49) = (   0.2371898   1.5285246   1.8850565  )
        50           H   tau(  50) = (   0.5450248  -0.0257036   1.6941575  )
        51           H   tau(  51) = (   0.6176199   1.5799319   0.5010862  )
        52           H   tau(  52) = (   0.3097849   3.1341602   0.6919852  )
        53           H   tau(  53) = (   0.0488579   1.4283792   2.1951290  )
        54           H   tau(  54) = (   0.7333566   2.9826075   1.3840850  )
        55           H   tau(  55) = (   0.8059518   1.6800773   0.1910137  )
        56           H   tau(  56) = (   0.1214531   0.1258490   1.0020577  )
        57           C   tau(  57) = (  -0.2065938   1.5105670   1.8609965  )
        58           C   tau(  58) = (   0.9888083  -0.0436613   1.7182175  )
        59           C   tau(  59) = (   1.0614035   1.5978895   0.5251462  )
        60           C   tau(  60) = (  -0.1339987   3.1521178   0.6679251  )
        61           N   tau(  61) = (   0.2288919   2.0426330   2.0433923  )
        62           N   tau(  62) = (   0.5533226   0.4884047   1.5358217  )
        63           N   tau(  63) = (   0.6259178   1.0658235   0.3427504  )
        64           N   tau(  64) = (   0.3014870   2.6200518   0.8503210  )
        65           H   tau(  65) = (   0.3923539   1.9674192   1.9321270  )
        66           H   tau(  66) = (   0.3898606   0.4131909   1.6470870  )
        67           H   tau(  67) = (   0.4624557   1.1410373   0.4540156  )
        68           H   tau(  68) = (   0.4649491   2.6952656   0.7390557  )
        69           N   tau(  69) = (   0.5954868   1.4691400   1.7248234  )
        70           N   tau(  70) = (   0.1867278  -0.0850882   1.8543906  )
        71           N   tau(  71) = (   0.2593229   1.6393165   0.6613192  )
        72           N   tau(  72) = (   0.6680819   3.1935448   0.5317521  )
        73           O   tau(  73) = (   0.5704240   2.2844920   0.2035301  )
        74           O   tau(  74) = (   0.3569809   0.7302638   0.9895412  )
        75           O   tau(  75) = (   0.2843857   0.8239645   2.1826125  )
        76           O   tau(  76) = (   0.4978288   2.3781928   1.3966015  )
        77           O   tau(  77) = (   0.8237353   1.9359077   2.2715831  )
        78           O   tau(  78) = (  -0.0415207   0.3816795   1.3076309  )
        79           O   tau(  79) = (   0.0310744   1.1725488   0.1145596  )
        80           O   tau(  80) = (   0.8963304   2.7267771   1.0785118  )

     number of k points=    12
                       cart. coord. in units 2pi/alat
        k(    1) = (   0.0000000   0.0000000   0.0000000), wk =   0.1250000
        k(    2) = (   0.0000000   0.0000000  -0.2095432), wk =   0.1250000
        k(    3) = (   0.0000000  -0.1608515   0.0000000), wk =   0.1250000
        k(    4) = (   0.0000000  -0.1608515  -0.2095432), wk =   0.1250000
        k(    5) = (   0.2500000   0.0000000   0.0152118), wk =   0.2500000
        k(    6) = (   0.2500000   0.0000000  -0.1943314), wk =   0.2500000
        k(    7) = (   0.2500000  -0.1608515   0.0152118), wk =   0.2500000
        k(    8) = (   0.2500000  -0.1608515  -0.1943314), wk =   0.2500000
        k(    9) = (  -0.5000000   0.0000000  -0.0304236), wk =   0.1250000
        k(   10) = (  -0.5000000   0.0000000  -0.2399669), wk =   0.1250000
        k(   11) = (  -0.5000000  -0.1608515  -0.0304236), wk =   0.1250000
        k(   12) = (  -0.5000000  -0.1608515  -0.2399669), wk =   0.1250000

     Dense  grid:   752085 G-vectors     FFT dimensions: (  60, 180, 144)

     Estimated max dynamical RAM per process >     704.68MB

     Estimated total allocated dynamical RAM >    5637.45MB

     Check: negative/imaginary core charge=   -0.000002    0.000000

     Initial potential from superposition of free atoms

     starting charge  247.99829, renormalised to  248.00000
     Starting wfc are  224 randomized atomic wfcs
     Checking if some PAW data can be deallocated... 

     total cpu time spent up to now is       50.7 secs

     per-process dynamical memory:   534.9 Mb

     Self-consistent Calculation

     iteration #  1     ecut=   100.00 Ry     beta=0.50
     Davidson diagonalization with overlap
     ethr =  1.00E-02,  avg # of iterations =  3.3

     total cpu time spent up to now is      186.6 secs

     total energy              =   -1185.23078704 Ry
     Harris-Foulkes estimate   =   -1189.68756546 Ry
     estimated scf accuracy    <       8.39782043 Ry

     iteration #  2     ecut=   100.00 Ry     beta=0.50
     Davidson diagonalization with overlap
     ethr =  3.39E-03,  avg # of iterations =  2.7

     total cpu time spent up to now is      259.9 secs

     total energy              =   -1185.68441357 Ry
     Harris-Foulkes estimate   =   -1186.42746108 Ry
     estimated scf accuracy    <       1.45802074 Ry

     iteration #  3     ecut=   100.00 Ry     beta=0.50
     Davidson diagonalization with overlap
     ethr =  5.88E-04,  avg # of iterations =  5.5

     total cpu time spent up to now is      401.6 secs

     total energy              =   -1186.55071617 Ry
     Harris-Foulkes estimate   =   -1187.00878759 Ry
     estimated scf accuracy    <       1.23933156 Ry

     iteration #  4     ecut=   100.00 Ry     beta=0.50
     Davidson diagonalization with overlap
     ethr =  5.00E-04,  avg # of iterations =  1.8

     total cpu time spent up to now is      468.4 secs

     total energy              =   -1186.53783009 Ry
     Harris-Foulkes estimate   =   -1186.66582912 Ry
     estimated scf accuracy    <       0.25632351 Ry

     iteration #  5     ecut=   100.00 Ry     beta=0.50
     Davidson diagonalization with overlap
     ethr =  1.03E-04,  avg # of iterations =  5.4

     total cpu time spent up to now is      605.7 secs

     total energy              =   -1186.69287254 Ry
     Harris-Foulkes estimate   =   -1186.71103961 Ry
     estimated scf accuracy    <       0.08445219 Ry

     iteration #  6     ecut=   100.00 Ry     beta=0.50
     Davidson diagonalization with overlap
     ethr =  3.41E-05,  avg # of iterations =  2.0

     total cpu time spent up to now is      673.1 secs

     total energy              =   -1186.67461371 Ry
     Harris-Foulkes estimate   =   -1186.69649649 Ry
     estimated scf accuracy    <       0.04499214 Ry

     iteration #  7     ecut=   100.00 Ry     beta=0.50
     Davidson diagonalization with overlap
     ethr =  1.81E-05,  avg # of iterations =  3.7

     total cpu time spent up to now is      767.4 secs

     total energy              =   -1186.68583020 Ry
     Harris-Foulkes estimate   =   -1186.68629592 Ry
     estimated scf accuracy    <       0.00156071 Ry

     iteration #  8     ecut=   100.00 Ry     beta=0.50
     Davidson diagonalization with overlap
     ethr =  6.29E-07,  avg # of iterations =  5.8

     total cpu time spent up to now is      916.9 secs

     total energy              =   -1186.68653721 Ry
     Harris-Foulkes estimate   =   -1186.68714685 Ry
     estimated scf accuracy    <       0.00140918 Ry

     iteration #  9     ecut=   100.00 Ry     beta=0.50
     Davidson diagonalization with overlap
     ethr =  5.68E-07,  avg # of iterations =  1.0

     total cpu time spent up to now is      981.0 secs

     total energy              =   -1186.68641307 Ry
     Harris-Foulkes estimate   =   -1186.68661855 Ry
     estimated scf accuracy    <       0.00040118 Ry

     iteration # 10     ecut=   100.00 Ry     beta=0.50
     Davidson diagonalization with overlap
     ethr =  1.62E-07,  avg # of iterations =  4.0

     total cpu time spent up to now is     1107.8 secs

     total energy              =   -1186.68669723 Ry
     Harris-Foulkes estimate   =   -1186.68677581 Ry
     estimated scf accuracy    <       0.00020748 Ry

     iteration # 11     ecut=   100.00 Ry     beta=0.50
     Davidson diagonalization with overlap
     ethr =  8.37E-08,  avg # of iterations =  1.0

     total cpu time spent up to now is     1172.1 secs

     total energy              =   -1186.68666259 Ry
     Harris-Foulkes estimate   =   -1186.68670373 Ry
     estimated scf accuracy    <       0.00007757 Ry

     iteration # 12     ecut=   100.00 Ry     beta=0.50
     Davidson diagonalization with overlap
     ethr =  3.13E-08,  avg # of iterations =  4.0

     total cpu time spent up to now is     1290.7 secs

     total energy              =   -1186.68670512 Ry
     Harris-Foulkes estimate   =   -1186.68671516 Ry
     estimated scf accuracy    <       0.00002080 Ry

     iteration # 13     ecut=   100.00 Ry     beta=0.50
     Davidson diagonalization with overlap
     ethr =  8.39E-09,  avg # of iterations =  2.7

     total cpu time spent up to now is     1359.3 secs

     total energy              =   -1186.68670400 Ry
     Harris-Foulkes estimate   =   -1186.68670649 Ry
     estimated scf accuracy    <       0.00000393 Ry

     iteration # 14     ecut=   100.00 Ry     beta=0.50
     Davidson diagonalization with overlap
     ethr =  1.58E-09,  avg # of iterations =  4.0

     total cpu time spent up to now is     1499.7 secs

     total energy              =   -1186.68670886 Ry
     Harris-Foulkes estimate   =   -1186.68671060 Ry
     estimated scf accuracy    <       0.00000604 Ry

     iteration # 15     ecut=   100.00 Ry     beta=0.50
     Davidson diagonalization with overlap
     ethr =  1.58E-09,  avg # of iterations =  1.0

     total cpu time spent up to now is     1564.2 secs

     total energy              =   -1186.68670780 Ry
     Harris-Foulkes estimate   =   -1186.68670896 Ry
     estimated scf accuracy    <       0.00000301 Ry

     iteration # 16     ecut=   100.00 Ry     beta=0.50
     Davidson diagonalization with overlap
     ethr =  1.21E-09,  avg # of iterations =  3.5

     total cpu time spent up to now is     1662.9 secs

     total energy              =   -1186.68670864 Ry
     Harris-Foulkes estimate   =   -1186.68670865 Ry
     estimated scf accuracy    <       0.00000002 Ry

     iteration # 17     ecut=   100.00 Ry     beta=0.50
     Davidson diagonalization with overlap
     ethr =  8.71E-12,  avg # of iterations =  4.4

     total cpu time spent up to now is     1816.1 secs

     total energy              =   -1186.68670867 Ry
     Harris-Foulkes estimate   =   -1186.68670868 Ry
     estimated scf accuracy    <       0.00000005 Ry

     iteration # 18     ecut=   100.00 Ry     beta=0.50
     Davidson diagonalization with overlap
     ethr =  8.71E-12,  avg # of iterations =  1.0

     total cpu time spent up to now is     1881.2 secs

     total energy              =   -1186.68670865 Ry
     Harris-Foulkes estimate   =   -1186.68670867 Ry
     estimated scf accuracy    <       0.00000002 Ry

     iteration # 19     ecut=   100.00 Ry     beta=0.50
     Davidson diagonalization with overlap
     ethr =  8.71E-12,  avg # of iterations =  4.0

     total cpu time spent up to now is     2008.3 secs

     total energy              =   -1186.68670867 Ry
     Harris-Foulkes estimate   =   -1186.68670867 Ry
     estimated scf accuracy    <       0.00000002 Ry

     iteration # 20     ecut=   100.00 Ry     beta=0.50
     Davidson diagonalization with overlap
     ethr =  7.69E-12,  avg # of iterations =  1.0

     total cpu time spent up to now is     2073.2 secs

     End of self-consistent calculation

          k = 0.0000 0.0000 0.0000 ( 94103 PWs)   bands (ev):

   -21.5628 -21.5626 -21.5584 -21.5584 -20.1068 -20.1050 -20.0776 -20.0756
   -17.1943 -17.1915 -17.1824 -17.1824 -16.6841 -16.6836 -16.6804 -16.6802
   -13.8776 -13.8672 -13.8346 -13.8310 -13.4937 -13.4859 -13.4794 -13.4644
   -12.8671 -12.8581 -12.8348 -12.8295 -11.0378 -11.0148 -10.8826 -10.8462
    -8.8441  -8.8234  -8.7927  -8.7784  -8.7524  -8.7391  -8.6768  -8.6730
    -7.9279  -7.9045  -7.8706  -7.8600  -7.3473  -7.3358  -7.3349  -7.2750
    -6.8037  -6.8016  -6.7447  -6.6670  -6.6005  -6.4821  -6.3330  -6.2521
    -5.7836  -5.7180  -5.7086  -5.6464  -5.1129  -5.0734  -5.0610  -5.0573
    -5.0402  -4.8375  -4.8019  -4.7952  -4.7926  -4.6658  -4.5515  -4.3789
    -4.3298  -4.3228  -4.3197  -4.2209  -3.8947  -3.8806  -3.8209  -3.7787
    -3.7233  -3.6768  -3.5765  -3.5016  -3.4825  -3.4049  -3.3053  -3.2513
    -3.1305  -3.1200  -3.0927  -3.0749  -2.7595  -2.7418  -2.7296  -2.7055
    -2.6821  -2.6640  -2.6358  -2.6168  -2.4608  -2.4598  -2.3979  -2.3961
    -2.1434  -2.0857  -2.0083  -1.9833  -0.8662  -0.8364  -0.8261  -0.7894
    -0.6442  -0.6183  -0.6166  -0.5673  -0.1448  -0.1360  -0.0977  -0.0700
     0.5234   0.5414   0.5627   0.5749   4.8805   5.0073   5.0392   5.0407
     5.1618   5.1801   5.1846   5.3700   5.7135   5.7678   5.9725   6.0124
     6.0396   6.0938   6.1372   6.1511   6.1762   6.4108   6.6284   6.7176
     6.7510   6.8016   6.8347   7.0596

          k = 0.0000 0.0000-0.2095 ( 94074 PWs)   bands (ev):

   -21.5606 -21.5606 -21.5605 -21.5605 -20.1059 -20.1059 -20.0766 -20.0766
   -17.1887 -17.1887 -17.1866 -17.1866 -16.6839 -16.6839 -16.6802 -16.6802
   -13.8561 -13.8561 -13.8491 -13.8491 -13.4902 -13.4902 -13.4717 -13.4717
   -12.8512 -12.8512 -12.8454 -12.8454 -10.9597 -10.9597 -10.9296 -10.9296
    -8.8210  -8.8210  -8.7953  -8.7953  -8.7178  -8.7178  -8.7086  -8.7086
    -7.9012  -7.9012  -7.8802  -7.8802  -7.3456  -7.3456  -7.3133  -7.3133
    -6.7515  -6.7515  -6.7214  -6.7214  -6.5427  -6.5427  -6.3161  -6.3161
    -5.7530  -5.7530  -5.6969  -5.6969  -5.0799  -5.0799  -5.0446  -5.0446
    -4.9342  -4.9342  -4.8001  -4.8001  -4.7020  -4.7020  -4.4570  -4.4570
    -4.3696  -4.3696  -4.2769  -4.2769  -3.8953  -3.8953  -3.7838  -3.7838
    -3.6860  -3.6860  -3.5640  -3.5640  -3.4552  -3.4552  -3.2563  -3.2563
    -3.1385  -3.1385  -3.0794  -3.0794  -2.7271  -2.7271  -2.6912  -2.6912
    -2.6851  -2.6851  -2.6482  -2.6482  -2.4618  -2.4618  -2.3972  -2.3972
    -2.1284  -2.1284  -1.9837  -1.9837  -0.8561  -0.8561  -0.8058  -0.8058
    -0.6334  -0.6334  -0.5932  -0.5932  -0.1451  -0.1451  -0.0758  -0.0758
     0.5403   0.5403   0.5615   0.5615   4.9336   4.9336   5.0955   5.0955
     5.1584   5.1584   5.2278   5.2278   5.7736   5.7736   5.9419   5.9419
     6.1310   6.1310   6.1829   6.1829   6.2913   6.2913   6.5651   6.5651
     6.8343   6.8343   6.8592   6.8592

          k = 0.0000-0.1609 0.0000 ( 94114 PWs)   bands (ev):

   -21.5627 -21.5627 -21.5584 -21.5584 -20.1059 -20.1059 -20.0766 -20.0766
   -17.1929 -17.1929 -17.1824 -17.1824 -16.6823 -16.6823 -16.6819 -16.6819
   -13.8725 -13.8725 -13.8327 -13.8327 -13.4920 -13.4920 -13.4697 -13.4697
   -12.8626 -12.8626 -12.8321 -12.8321 -11.0277 -11.0277 -10.8630 -10.8630
    -8.8369  -8.8369  -8.7800  -8.7800  -8.7485  -8.7485  -8.6746  -8.6746
    -7.9177  -7.9177  -7.8638  -7.8638  -7.3420  -7.3420  -7.3055  -7.3055
    -6.8064  -6.8064  -6.7107  -6.7107  -6.5363  -6.5363  -6.2878  -6.2878
    -5.7665  -5.7665  -5.6600  -5.6600  -5.1316  -5.1316  -5.0430  -5.0430
    -4.9307  -4.9307  -4.8008  -4.8008  -4.7270  -4.7270  -4.4520  -4.4520
    -4.3378  -4.3378  -4.2696  -4.2696  -3.8669  -3.8669  -3.7856  -3.7856
    -3.7420  -3.7420  -3.5097  -3.5097  -3.4619  -3.4619  -3.2679  -3.2679
    -3.1389  -3.1389  -3.0731  -3.0731  -2.7435  -2.7435  -2.7273  -2.7273
    -2.6834  -2.6834  -2.6253  -2.6253  -2.4307  -2.4307  -2.4139  -2.4139
    -2.1176  -2.1176  -1.9956  -1.9956  -0.8579  -0.8579  -0.8005  -0.8005
    -0.6318  -0.6318  -0.5915  -0.5915  -0.1448  -0.1448  -0.0796  -0.0796
     0.5308   0.5308   0.5706   0.5706   4.9443   4.9443   5.0400   5.0400
     5.1666   5.1666   5.2699   5.2699   5.7667   5.7667   5.9947   5.9947
     6.0620   6.0620   6.1548   6.1548   6.1929   6.1929   6.6989   6.6989
     6.8380   6.8380   7.0050   7.0050

          k = 0.0000-0.1609-0.2095 ( 94028 PWs)   bands (ev):

   -21.5606 -21.5606 -21.5605 -21.5605 -20.1059 -20.1059 -20.0766 -20.0766
   -17.1883 -17.1883 -17.1870 -17.1870 -16.6825 -16.6825 -16.6817 -16.6817
   -13.8547 -13.8547 -13.8505 -13.8505 -13.4908 -13.4908 -13.4712 -13.4712
   -12.8489 -12.8489 -12.8477 -12.8477 -10.9598 -10.9598 -10.9296 -10.9296
    -8.8206  -8.8206  -8.7959  -8.7959  -8.7155  -8.7155  -8.7108  -8.7108
    -7.8989  -7.8989  -7.8826  -7.8826  -7.3378  -7.3378  -7.3212  -7.3212
    -6.7535  -6.7535  -6.7189  -6.7189  -6.5440  -6.5440  -6.3141  -6.3141
    -5.7502  -5.7502  -5.7014  -5.7014  -5.0783  -5.0783  -5.0562  -5.0562
    -4.8985  -4.8985  -4.8276  -4.8276  -4.7020  -4.7020  -4.4571  -4.4571
    -4.3564  -4.3564  -4.2924  -4.2924  -3.8871  -3.8871  -3.7811  -3.7811
    -3.6878  -3.6878  -3.5740  -3.5740  -3.4429  -3.4429  -3.2692  -3.2692
    -3.1228  -3.1228  -3.0870  -3.0870  -2.7322  -2.7322  -2.6945  -2.6945
    -2.6885  -2.6885  -2.6455  -2.6455  -2.4356  -2.4356  -2.4160  -2.4160
    -2.1253  -2.1253  -1.9873  -1.9873  -0.8559  -0.8559  -0.8066  -0.8066
    -0.6181  -0.6181  -0.6075  -0.6075  -0.1434  -0.1434  -0.0781  -0.0781
     0.5441   0.5441   0.5583   0.5583   4.9465   4.9465   5.1187   5.1187
     5.1381   5.1381   5.2075   5.2075   5.7823   5.7823   5.9400   5.9400
     6.1364   6.1364   6.1998   6.1998   6.3461   6.3461   6.3716   6.3716
     6.8542   6.8542   6.8800   6.8800

          k = 0.2500 0.0000 0.0152 ( 94015 PWs)   bands (ev):

   -21.5570 -21.5569 -21.5533 -21.5533 -20.0912 -20.0904 -20.0623 -20.0614
   -17.2250 -17.2232 -17.2159 -17.2156 -16.6596 -16.6587 -16.6560 -16.6557
   -13.8399 -13.8133 -13.8004 -13.7915 -13.5598 -13.5588 -13.5438 -13.5337
   -12.9193 -12.8893 -12.8802 -12.8720 -11.0510 -11.0350 -10.9722 -10.9484
    -8.8623  -8.8226  -8.8225  -8.8126  -8.7066  -8.6546  -8.6421  -8.6355
    -7.8926  -7.8823  -7.8096  -7.7870  -7.2971  -7.2684  -7.2654  -7.2069
    -6.7638  -6.7374  -6.7241  -6.7081  -6.4827  -6.4791  -6.2961  -6.2847
    -6.0195  -5.9922  -5.9570  -5.8911  -5.2671  -5.2275  -5.0239  -4.9994
    -4.9493  -4.9034  -4.8995  -4.8650  -4.6256  -4.5503  -4.4704  -4.4013
    -4.3013  -4.2349  -4.2204  -4.1905  -4.0255  -3.9866  -3.9069  -3.8576
    -3.7327  -3.6876  -3.5618  -3.4533  -3.4470  -3.3986  -3.2898  -3.2062
    -3.1914  -3.1495  -3.1076  -3.0814  -2.9493  -2.9326  -2.8589  -2.8485
    -2.7327  -2.6871  -2.6569  -2.6439  -2.3323  -2.2254  -2.1825  -2.1193
    -1.8440  -1.8167  -1.7179  -1.7054  -0.7189  -0.7001  -0.6712  -0.6642
    -0.4176  -0.4081  -0.3860  -0.3666  -0.0905  -0.0821  -0.0729  -0.0631
     0.6459   0.6815   0.7175   0.7238   4.7187   4.8012   4.9454   4.9626
     4.9849   5.1093   5.1100   5.2744   5.4174   5.4393   5.5868   5.6217
     5.7353   5.8264   5.8732   5.9020   6.2966   6.4969   6.5337   6.5358
     6.6295   6.6671   6.9461   7.1548

          k = 0.2500 0.0000-0.1943 ( 93990 PWs)   bands (ev):

   -21.5553 -21.5553 -21.5550 -21.5549 -20.0909 -20.0907 -20.0619 -20.0617
   -17.2220 -17.2208 -17.2191 -17.2178 -16.6600 -16.6581 -16.6568 -16.6551
   -13.8259 -13.8158 -13.8077 -13.7951 -13.5678 -13.5510 -13.5430 -13.5348
   -12.9022 -12.9009 -12.8841 -12.8765 -11.0423 -11.0240 -10.9774 -10.9548
    -8.8460  -8.8339  -8.8203  -8.8081  -8.6776  -8.6710  -8.6587  -8.6560
    -7.9006  -7.8866  -7.8082  -7.7868  -7.2881  -7.2741  -7.2658  -7.2351
    -6.7931  -6.7473  -6.7124  -6.6409  -6.4853  -6.4407  -6.3028  -6.2832
    -6.0088  -5.9704  -5.9337  -5.9042  -5.2771  -5.2478  -5.0877  -5.0035
    -5.0032  -4.9193  -4.8884  -4.8462  -4.6559  -4.5088  -4.4819  -4.3398
    -4.2881  -4.2449  -4.2323  -4.1800  -4.0496  -3.9462  -3.9001  -3.8897
    -3.6543  -3.6135  -3.5918  -3.5709  -3.4909  -3.3755  -3.2419  -3.2314
    -3.1862  -3.1696  -3.0931  -3.0772  -2.9585  -2.9288  -2.8789  -2.8218
    -2.7075  -2.6863  -2.6755  -2.6380  -2.2930  -2.2913  -2.1573  -2.1216
    -1.8358  -1.8222  -1.7177  -1.7094  -0.7233  -0.6956  -0.6727  -0.6694
    -0.4376  -0.3972  -0.3916  -0.3541  -0.1103  -0.0779  -0.0772  -0.0416
     0.6716   0.6852   0.7021   0.7030   4.7403   4.7750   4.9843   4.9897
     5.0371   5.0848   5.0960   5.2156   5.4364   5.4483   5.5714   5.5773
     5.7620   5.7846   5.9069   5.9276   6.4756   6.4859   6.5763   6.5899
     6.6020   6.6462   6.7181   6.9407

          k = 0.2500-0.1609 0.0152 ( 94042 PWs)   bands (ev):

   -21.5569 -21.5569 -21.5533 -21.5533 -20.0908 -20.0908 -20.0618 -20.0618
   -17.2241 -17.2241 -17.2158 -17.2158 -16.6588 -16.6588 -16.6562 -16.6562
   -13.8287 -13.8287 -13.7940 -13.7940 -13.5591 -13.5591 -13.5389 -13.5389
   -12.9070 -12.9070 -12.8733 -12.8733 -11.0442 -11.0442 -10.9591 -10.9591
    -8.8459  -8.8459  -8.8172  -8.8172  -8.6782  -8.6782  -8.6381  -8.6381
    -7.8877  -7.8877  -7.7982  -7.7982  -7.2873  -7.2873  -7.2325  -7.2325
    -6.7492  -6.7492  -6.7156  -6.7156  -6.4811  -6.4811  -6.2920  -6.2920
    -6.0143  -6.0143  -5.9144  -5.9144  -5.2477  -5.2477  -5.0071  -5.0071
    -4.9442  -4.9442  -4.8690  -4.8690  -4.5978  -4.5978  -4.4211  -4.4211
    -4.2722  -4.2722  -4.2152  -4.2152  -3.9710  -3.9710  -3.9195  -3.9195
    -3.7066  -3.7066  -3.4924  -3.4924  -3.4409  -3.4409  -3.2487  -3.2487
    -3.1508  -3.1508  -3.1038  -3.1038  -2.9230  -2.9230  -2.8723  -2.8723
    -2.7128  -2.7128  -2.6501  -2.6501  -2.2726  -2.2726  -2.1540  -2.1540
    -1.8304  -1.8304  -1.7109  -1.7109  -0.7110  -0.7110  -0.6651  -0.6651
    -0.4078  -0.4078  -0.3822  -0.3822  -0.0806  -0.0806  -0.0738  -0.0738
     0.6619   0.6619   0.7228   0.7228   4.7693   4.7693   4.9377   4.9377
     5.0322   5.0322   5.2050   5.2050   5.4307   5.4307   5.6051   5.6051
     5.7822   5.7822   5.8911   5.8911   6.4230   6.4230   6.5173   6.5173
     6.5932   6.5932   7.1074   7.1074

          k = 0.2500-0.1609-0.1943 ( 94008 PWs)   bands (ev):

   -21.5553 -21.5553 -21.5549 -21.5549 -20.0908 -20.0908 -20.0618 -20.0618
   -17.2214 -17.2214 -17.2184 -17.2184 -16.6589 -16.6589 -16.6561 -16.6561
   -13.8211 -13.8211 -13.8012 -13.8012 -13.5607 -13.5607 -13.5376 -13.5376
   -12.9005 -12.9005 -12.8813 -12.8813 -11.0346 -11.0346 -10.9646 -10.9646
    -8.8420  -8.8420  -8.8119  -8.8119  -8.6743  -8.6743  -8.6577  -8.6577
    -7.8940  -7.8940  -7.7971  -7.7971  -7.2873  -7.2873  -7.2441  -7.2441
    -6.7690  -6.7690  -6.6843  -6.6843  -6.4575  -6.4575  -6.2918  -6.2918
    -5.9876  -5.9876  -5.9215  -5.9215  -5.2627  -5.2627  -5.0676  -5.0676
    -4.9367  -4.9367  -4.8714  -4.8714  -4.5861  -4.5861  -4.4200  -4.4200
    -4.2532  -4.2532  -4.2176  -4.2176  -3.9880  -3.9880  -3.8904  -3.8904
    -3.6491  -3.6491  -3.5720  -3.5720  -3.4284  -3.4284  -3.2512  -3.2512
    -3.1693  -3.1693  -3.0819  -3.0819  -2.9288  -2.9288  -2.8646  -2.8646
    -2.6976  -2.6976  -2.6574  -2.6574  -2.2773  -2.2773  -2.1526  -2.1526
    -1.8285  -1.8285  -1.7134  -1.7134  -0.7126  -0.7126  -0.6673  -0.6673
    -0.4198  -0.4198  -0.3701  -0.3701  -0.0946  -0.0946  -0.0598  -0.0598
     0.6804   0.6804   0.7011   0.7011   4.7668   4.7668   4.9863   4.9863
     5.0420   5.0420   5.1603   5.1603   5.4414   5.4414   5.5728   5.5728
     5.7875   5.7875   5.9134   5.9134   6.5255   6.5255   6.5537   6.5537
     6.6381   6.6381   6.7215   6.7215

          k =-0.5000 0.0000-0.0304 ( 94008 PWs)   bands (ev):

   -21.5511 -21.5511 -21.5482 -21.5482 -20.0755 -20.0754 -20.0468 -20.0467
   -17.2565 -17.2552 -17.2497 -17.2495 -16.6338 -16.6334 -16.6301 -16.6300
   -13.7794 -13.7447 -13.7293 -13.7246 -13.6458 -13.6456 -13.6455 -13.6335
   -12.9668 -12.9246 -12.9224 -12.9140 -11.0609 -11.0597 -11.0565 -11.0563
    -8.8571  -8.8362  -8.8249  -8.8047  -8.6665  -8.6114  -8.6026  -8.5985
    -7.8970  -7.8944  -7.7171  -7.6888  -7.2643  -7.2134  -7.1673  -7.1397
    -6.7749  -6.7448  -6.6304  -6.6215  -6.4441  -6.4152  -6.2937  -6.2586
    -6.2357  -6.1889  -6.1025  -6.0726  -5.4217  -5.3939  -5.2502  -5.1139
    -5.0130  -4.9010  -4.8765  -4.8499  -4.7303  -4.6007  -4.4466  -4.4368
    -4.2046  -4.1821  -4.1284  -4.1080  -3.8908  -3.8774  -3.8205  -3.8103
    -3.7982  -3.7900  -3.4918  -3.4315  -3.4086  -3.3776  -3.3236  -3.3174
    -3.2009  -3.1736  -3.1560  -3.0624  -3.0002  -2.9860  -2.9560  -2.8941
    -2.7360  -2.7212  -2.7132  -2.6941  -2.3008  -2.2114  -2.1560  -2.0967
    -1.5477  -1.5075  -1.3152  -1.3050  -0.4691  -0.4611  -0.4423  -0.4292
    -0.2263  -0.1866  -0.1782  -0.1628  -0.1036  -0.0963  -0.0192  -0.0049
     0.8057   0.8122   0.8370   0.8570   4.5046   4.5815   4.6256   4.7127
     4.8507   4.8685   4.9003   4.9812   5.1518   5.1631   5.2154   5.2280
     5.6058   5.6816   5.7329   5.8023   6.2084   6.2445   6.2598   6.3333
     7.0661   7.0798   7.0816   7.2944

          k =-0.5000 0.0000-0.2400 ( 93874 PWs)   bands (ev):

   -21.5497 -21.5497 -21.5497 -21.5497 -20.0754 -20.0754 -20.0468 -20.0468
   -17.2531 -17.2531 -17.2523 -17.2523 -16.6337 -16.6337 -16.6300 -16.6300
   -13.7644 -13.7644 -13.7250 -13.7250 -13.6451 -13.6451 -13.6394 -13.6394
   -12.9483 -12.9483 -12.9167 -12.9167 -11.0584 -11.0584 -11.0559 -11.0559
    -8.8445  -8.8445  -8.8109  -8.8109  -8.6421  -8.6421  -8.6194  -8.6194
    -7.7978  -7.7978  -7.7810  -7.7810  -7.2283  -7.2283  -7.1773  -7.1773
    -6.7064  -6.7064  -6.6740  -6.6740  -6.4251  -6.4251  -6.2810  -6.2810
    -6.2203  -6.2203  -6.1043  -6.1043  -5.4108  -5.4108  -5.1657  -5.1657
    -4.9296  -4.9296  -4.8719  -4.8719  -4.5970  -4.5970  -4.5252  -4.5252
    -4.1907  -4.1907  -4.1013  -4.1013  -3.8505  -3.8505  -3.8234  -3.8234
    -3.6858  -3.6858  -3.6589  -3.6589  -3.3776  -3.3776  -3.2574  -3.2574
    -3.2324  -3.2324  -3.1099  -3.1099  -2.9937  -2.9937  -2.9159  -2.9159
    -2.7221  -2.7221  -2.6989  -2.6989  -2.2735  -2.2735  -2.1096  -2.1096
    -1.5255  -1.5255  -1.3106  -1.3106  -0.4710  -0.4710  -0.4328  -0.4328
    -0.2071  -0.2071  -0.1597  -0.1597  -0.1096  -0.1096  -0.0103  -0.0103
     0.8191   0.8191   0.8337   0.8337   4.5457   4.5457   4.6685   4.6685
     4.8682   4.8682   4.9358   4.9358   5.1743   5.1743   5.2234   5.2234
     5.5638   5.5638   5.8087   5.8087   6.2253   6.2253   6.3472   6.3472
     7.1203   7.1203   7.2871   7.2871

          k =-0.5000-0.1609-0.0304 ( 93932 PWs)   bands (ev):

   -21.5511 -21.5511 -21.5482 -21.5482 -20.0755 -20.0755 -20.0468 -20.0468
   -17.2559 -17.2559 -17.2496 -17.2496 -16.6336 -16.6336 -16.6301 -16.6301
   -13.7642 -13.7642 -13.7253 -13.7253 -13.6480 -13.6480 -13.6368 -13.6368
   -12.9507 -12.9507 -12.9131 -12.9131 -11.0602 -11.0602 -11.0565 -11.0565
    -8.8352  -8.8352  -8.8306  -8.8306  -8.6288  -8.6288  -8.6064  -8.6064
    -7.8958  -7.8958  -7.7036  -7.7036  -7.2378  -7.2378  -7.1539  -7.1539
    -6.7598  -6.7598  -6.6265  -6.6265  -6.4312  -6.4312  -6.2757  -6.2757
    -6.2089  -6.2089  -6.0897  -6.0897  -5.4142  -5.4142  -5.1823  -5.1823
    -4.9551  -4.9551  -4.8562  -4.8562  -4.6764  -4.6764  -4.4255  -4.4255
    -4.2135  -4.2135  -4.1073  -4.1073  -3.8869  -3.8869  -3.8193  -3.8193
    -3.7878  -3.7878  -3.4295  -3.4295  -3.4175  -3.4175  -3.3297  -3.3297
    -3.1821  -3.1821  -3.1214  -3.1214  -2.9838  -2.9838  -2.9259  -2.9259
    -2.7315  -2.7315  -2.6983  -2.6983  -2.2556  -2.2556  -2.1265  -2.1265
    -1.5283  -1.5283  -1.3100  -1.3100  -0.4672  -0.4672  -0.4328  -0.4328
    -0.2135  -0.2135  -0.1626  -0.1626  -0.0996  -0.0996  -0.0132  -0.0132
     0.8059   0.8059   0.8498   0.8498   4.5507   4.5507   4.6683   4.6683
     4.8800   4.8800   4.8933   4.8933   5.1527   5.1527   5.2481   5.2481
     5.6213   5.6213   5.8029   5.8029   6.2204   6.2204   6.2850   6.2850
     7.0225   7.0225   7.2190   7.2190

          k =-0.5000-0.1609-0.2400 ( 93952 PWs)   bands (ev):

   -21.5497 -21.5497 -21.5497 -21.5497 -20.0754 -20.0754 -20.0468 -20.0468
   -17.2530 -17.2530 -17.2525 -17.2525 -16.6337 -16.6337 -16.6300 -16.6300
   -13.7632 -13.7632 -13.7263 -13.7263 -13.6455 -13.6455 -13.6390 -13.6390
   -12.9465 -12.9465 -12.9184 -12.9184 -11.0572 -11.0572 -11.0571 -11.0571
    -8.8440  -8.8440  -8.8111  -8.8111  -8.6415  -8.6415  -8.6202  -8.6202
    -7.7934  -7.7934  -7.7856  -7.7856  -7.2166  -7.2166  -7.1903  -7.1903
    -6.6906  -6.6906  -6.6871  -6.6871  -6.4265  -6.4265  -6.2806  -6.2806
    -6.2217  -6.2217  -6.1037  -6.1037  -5.4093  -5.4093  -5.1661  -5.1661
    -4.9286  -4.9286  -4.8717  -4.8717  -4.5944  -4.5944  -4.5348  -4.5348
    -4.1474  -4.1474  -4.1386  -4.1386  -3.8462  -3.8462  -3.8326  -3.8326
    -3.6752  -3.6752  -3.6716  -3.6716  -3.3652  -3.3652  -3.2583  -3.2583
    -3.2326  -3.2326  -3.1273  -3.1273  -2.9623  -2.9623  -2.9353  -2.9353
    -2.7241  -2.7241  -2.6958  -2.6958  -2.2660  -2.2660  -2.1180  -2.1180
    -1.5257  -1.5257  -1.3107  -1.3107  -0.4581  -0.4581  -0.4475  -0.4475
    -0.1988  -0.1988  -0.1660  -0.1660  -0.1064  -0.1064  -0.0129  -0.0129
     0.8150   0.8150   0.8374   0.8374   4.5611   4.5611   4.6657   4.6657
     4.8749   4.8749   4.9006   4.9006   5.1938   5.1938   5.2117   5.2117
     5.5809   5.5809   5.8011   5.8011   6.2666   6.2666   6.3035   6.3035
     7.1156   7.1156   7.2762   7.2762

     highest occupied, lowest unoccupied level (ev):     0.8570    4.5046

!    total energy              =   -1186.68670866 Ry
     Harris-Foulkes estimate   =   -1186.68670867 Ry
     estimated scf accuracy    <          8.0E-09 Ry

     total all-electron energy =     -4556.303364 Ry

     The total energy is the sum of the following terms:

     one-electron contribution =    -721.58395789 Ry
     hartree contribution      =     451.71908888 Ry
     xc contribution           =    -257.15137654 Ry
     ewald contribution        =    -304.01074807 Ry
     Dispersion Correction     =      -0.35472238 Ry
     one-center paw contrib.   =    -355.30499267 Ry

     convergence has been achieved in  20 iterations

     Forces acting on atoms (cartesian axes, Ry/au):

     atom    1 type  1   force =    -0.01421446    0.00847743    0.01371148
     atom    2 type  1   force =     0.01421446    0.00847743   -0.01371148
     atom    3 type  1   force =     0.01421446   -0.00847743   -0.01371148
     atom    4 type  1   force =    -0.01421446   -0.00847743    0.01371148
     atom    5 type  3   force =     0.00170063   -0.00278676   -0.00174528
     atom    6 type  3   force =    -0.00170063   -0.00278676    0.00174528
     atom    7 type  3   force =    -0.00170063    0.00278676    0.00174528
     atom    8 type  3   force =     0.00170063    0.00278676   -0.00174528
     atom    9 type  1   force =    -0.01155841    0.00227933   -0.00530395
     atom   10 type  1   force =     0.01155841    0.00227933    0.00530395
     atom   11 type  1   force =     0.01155841   -0.00227933    0.00530395
     atom   12 type  1   force =    -0.01155841   -0.00227933   -0.00530395
     atom   13 type  3   force =     0.00153584   -0.00093582    0.00108619
     atom   14 type  3   force =    -0.00153584   -0.00093582   -0.00108619
     atom   15 type  3   force =    -0.00153584    0.00093582   -0.00108619
     atom   16 type  3   force =     0.00153584    0.00093582    0.00108619
     atom   17 type  1   force =     0.00101951    0.00214524    0.00411132
     atom   18 type  1   force =    -0.00101951    0.00214524   -0.00411132
     atom   19 type  1   force =    -0.00101951   -0.00214524   -0.00411132
     atom   20 type  1   force =     0.00101951   -0.00214524    0.00411132
     atom   21 type  3   force =     0.00053767   -0.00056915   -0.00007416
     atom   22 type  3   force =    -0.00053767   -0.00056915    0.00007416
     atom   23 type  3   force =    -0.00053767    0.00056915    0.00007416
     atom   24 type  3   force =     0.00053767    0.00056915   -0.00007416
     atom   25 type  1   force =     0.01815232    0.00383354    0.02275223
     atom   26 type  1   force =    -0.01815232    0.00383354   -0.02275223
     atom   27 type  1   force =    -0.01815232   -0.00383354   -0.02275223
     atom   28 type  1   force =     0.01815232   -0.00383354    0.02275223
     atom   29 type  1   force =    -0.03978585   -0.00755866   -0.00621931
     atom   30 type  1   force =     0.03978585   -0.00755866    0.00621931
     atom   31 type  1   force =     0.03978585    0.00755866    0.00621931
     atom   32 type  1   force =    -0.03978585    0.00755866   -0.00621931
     atom   33 type  3   force =     0.03314192   -0.01142824   -0.00764101
     atom   34 type  3   force =    -0.03314192   -0.01142824    0.00764101
     atom   35 type  3   force =    -0.03314192    0.01142824    0.00764101
     atom   36 type  3   force =     0.03314192    0.01142824   -0.00764101
     atom   37 type  3   force =    -0.00000318    0.00077217   -0.00182942
     atom   38 type  3   force =     0.00000318    0.00077217    0.00182942
     atom   39 type  3   force =     0.00000318   -0.00077217    0.00182942
     atom   40 type  3   force =    -0.00000318   -0.00077217   -0.00182942
     atom   41 type  1   force =    -0.00233918   -0.00364788    0.00788677
     atom   42 type  1   force =     0.00233918   -0.00364788   -0.00788677
     atom   43 type  1   force =     0.00233918    0.00364788   -0.00788677
     atom   44 type  1   force =    -0.00233918    0.00364788    0.00788677
     atom   45 type  1   force =     0.05304172    0.00260292   -0.00443997
     atom   46 type  1   force =    -0.05304172    0.00260292    0.00443997
     atom   47 type  1   force =    -0.05304172   -0.00260292    0.00443997
     atom   48 type  1   force =     0.05304172   -0.00260292   -0.00443997
     atom   49 type  3   force =    -0.04188331    0.00623581    0.01657269
     atom   50 type  3   force =     0.04188331    0.00623581   -0.01657269
     atom   51 type  3   force =     0.04188331   -0.00623581   -0.01657269
     atom   52 type  3   force =    -0.04188331   -0.00623581    0.01657269
     atom   53 type  3   force =    -0.00217825   -0.00012735    0.00399996
     atom   54 type  3   force =     0.00217825   -0.00012735   -0.00399996
     atom   55 type  3   force =     0.00217825    0.00012735   -0.00399996
     atom   56 type  3   force =    -0.00217825    0.00012735    0.00399996
     atom   57 type  1   force =    -0.03268104   -0.01384642   -0.04038974
     atom   58 type  1   force =     0.03268104   -0.01384642    0.04038974
     atom   59 type  1   force =     0.03268104    0.01384642    0.04038974
     atom   60 type  1   force =    -0.03268104    0.01384642   -0.04038974
     atom   61 type  2   force =    -0.00153358    0.00645738   -0.00083772
     atom   62 type  2   force =     0.00153358    0.00645738    0.00083772
     atom   63 type  2   force =     0.00153358   -0.00645738    0.00083772
     atom   64 type  2   force =    -0.00153358   -0.00645738   -0.00083772
     atom   65 type  3   force =     0.00036814   -0.00438845    0.00181307
     atom   66 type  3   force =    -0.00036814   -0.00438845   -0.00181307
     atom   67 type  3   force =    -0.00036814    0.00438845   -0.00181307
     atom   68 type  3   force =     0.00036814    0.00438845    0.00181307
     atom   69 type  2   force =     0.02939018    0.00238981    0.01739626
     atom   70 type  2   force =    -0.02939018    0.00238981   -0.01739626
     atom   71 type  2   force =    -0.02939018   -0.00238981   -0.01739626
     atom   72 type  2   force =     0.02939018   -0.00238981    0.01739626
     atom   73 type  4   force =     0.00279202    0.00241359   -0.01542380
     atom   74 type  4   force =    -0.00279202    0.00241359    0.01542380
     atom   75 type  4   force =    -0.00279202   -0.00241359    0.01542380
     atom   76 type  4   force =     0.00279202   -0.00241359   -0.01542380
     atom   77 type  4   force =     0.00575605    0.00723366   -0.00741298
     atom   78 type  4   force =    -0.00575605    0.00723366    0.00741298
     atom   79 type  4   force =    -0.00575605   -0.00723366    0.00741298
     atom   80 type  4   force =     0.00575605   -0.00723366   -0.00741298

     Total force =     0.236931     Total SCF correction =     0.000162


     Computing stress (Cartesian axis) and pressure

          total   stress  (Ry/bohr**3)                   (kbar)     P=   -4.90
  -0.00003603   0.00000000   0.00000990         -5.30      0.00      1.46
   0.00000000  -0.00002281   0.00000000          0.00     -3.36      0.00
   0.00000990   0.00000000  -0.00004107          1.46      0.00     -6.04


     Writing output data file scf.save
 
     init_run     :     48.13s CPU     50.00s WALL (       1 calls)
     electrons    :   1937.36s CPU   2022.63s WALL (       1 calls)
     forces       :     22.59s CPU     22.78s WALL (       1 calls)
     stress       :     89.79s CPU     90.17s WALL (       1 calls)

     Called by init_run:
     wfcinit      :     38.88s CPU     40.57s WALL (       1 calls)
     potinit      :      3.31s CPU      3.34s WALL (       1 calls)

     Called by electrons:
     c_bands      :   1751.06s CPU   1824.13s WALL (      20 calls)
     sum_band     :    172.35s CPU    183.11s WALL (      20 calls)
     v_of_rho     :      2.08s CPU      2.32s WALL (      21 calls)
     newd         :      5.07s CPU      6.19s WALL (      21 calls)
     PAW_pot      :      6.21s CPU      6.22s WALL (      21 calls)
     mix_rho      :      0.58s CPU      0.67s WALL (      20 calls)

     Called by c_bands:
     init_us_2    :     10.61s CPU     10.65s WALL (     516 calls)
     cegterg      :   1708.06s CPU   1781.01s WALL (     240 calls)

     Called by sum_band:
     sum_band:bec :      0.12s CPU      0.12s WALL (     240 calls)
     addusdens    :      5.17s CPU      6.23s WALL (      20 calls)

     Called by *egterg:
     h_psi        :    932.85s CPU    990.75s WALL (     994 calls)
     s_psi        :    197.79s CPU    197.82s WALL (     994 calls)
     g_psi        :      5.26s CPU      5.26s WALL (     742 calls)
     cdiaghg      :     75.93s CPU     75.90s WALL (     982 calls)

     Called by h_psi:
     h_psi:pot    :    925.58s CPU    983.37s WALL (     994 calls)
     h_psi:calbec :    201.24s CPU    201.63s WALL (     994 calls)
     vloc_psi     :    525.93s CPU    583.29s WALL (     994 calls)
     add_vuspsi   :    198.41s CPU    198.44s WALL (     994 calls)

     General routines
     calbec       :    285.85s CPU    286.41s WALL (    1294 calls)
     fft          :      1.57s CPU      2.01s WALL (     297 calls)
     fftw         :    562.30s CPU    626.24s WALL (  248562 calls)
 
     Parallel routines
     fft_scatter  :    141.02s CPU    192.63s WALL (  248859 calls)
 
     PWSCF        : 35m 9.63s CPU    37m37.57s WALL

 
   This run was terminated on:  13:34:20  18Dec2017            

=------------------------------------------------------------------------------=
   JOB DONE.
=------------------------------------------------------------------------------=
