
     Program PWSCF v.6.1 (svn rev. 13369) starts on 12Dec2017 at  4: 8: 8 

     This program is part of the open-source Quantum ESPRESSO suite
     for quantum simulation of materials; please cite
         "P. Giannozzi et al., J. Phys.:Condens. Matter 21 395502 (2009);
          URL http://www.quantum-espresso.org", 
     in publications or presentations arising from this work. More details at
     http://www.quantum-espresso.org/quote

     Parallel version (MPI), running on     8 processors
     R & G space division:  proc/nbgrp/npool/nimage =       8
     Waiting for input...
     Reading input from standard input

     Current dimensions of program PWSCF are:
     Max number of different atomic species (ntypx) = 10
     Max number of k-points (npk) =  40000
     Max angular momentum in pseudopotentials (lmaxx) =  3
               file C.pbe-n-kjpaw_psl.0.1.UPF: wavefunction(s)  2P renormalized
               file N.pbe-n-kjpaw_psl.0.1.UPF: wavefunction(s)  2P renormalized
               file H.pbe-kjpaw_psl.0.1.UPF: wavefunction(s)  1S renormalized
               file O.pbe-n-kjpaw_psl.0.1.UPF: wavefunction(s)  2P renormalized

     -------------------------------------
     Parameters for Dispersion Correction:
     -------------------------------------
       atom      VdW radius       C_6     

        C          2.744         60.710
        N          2.640         42.670
        H          1.892          4.857
        O          2.536         24.284

     Subspace diagonalization in iterative solution of the eigenvalue problem:
     a serial algorithm will be used

 
     Parallelization info
     --------------------
     sticks:   dense  smooth     PW     G-vecs:    dense   smooth      PW
     Min        1385    1385    363               124396   124396   16795
     Max        1386    1386    364               124398   124398   16796
     Sum       11083   11083   2911               995175   995175  134365
 


     bravais-lattice index     =            0
     lattice parameter (alat)  =      15.9398  a.u.
     unit-cell volume          =    7366.0383 (a.u.)^3
     number of atoms/cell      =          126
     number of atomic types    =            4
     number of electrons       =       356.00
     number of Kohn-Sham states=          213
     kinetic-energy cutoff     =     100.0000  Ry
     charge density cutoff     =     400.0000  Ry
     convergence threshold     =      1.0E-08
     mixing beta               =       0.5000
     number of iterations used =            8  plain     mixing
     Exchange-correlation      =  SLA  PW   PBX  PBC ( 1  4  3  4 0 0)

     celldm(1)=  15.939840  celldm(2)=   0.000000  celldm(3)=   0.000000
     celldm(4)=   0.000000  celldm(5)=   0.000000  celldm(6)=   0.000000

     crystal axes: (cart. coord. in units of alat)
               a(1) = (   1.000000   0.000000   0.000000 )  
               a(2) = (   0.398813   1.370046   0.000000 )  
               a(3) = (   0.092714   0.686331   1.327538 )  

     reciprocal axes: (cart. coord. in units 2 pi/alat)
               b(1) = (  1.000000 -0.291095  0.080656 )  
               b(2) = (  0.000000  0.729903 -0.377356 )  
               b(3) = (  0.000000  0.000000  0.753274 )  


     PseudoPot. # 1 for  C read from file:
     /scratch/ahofstet/pseudo/C.pbe-n-kjpaw_psl.0.1.UPF
     MD5 check sum: 430fe95172b1e11ef3f8ed03bac87931
     Pseudo is Projector augmented-wave + core cor, Zval =  4.0
     Generated using "atomic" code by A. Dal Corso  v.5.0.99 svn rev. 10869
     Shape of augmentation charge: BESSEL
     Using radial grid of 1073 points,  4 beta functions with: 
                l(1) =   0
                l(2) =   0
                l(3) =   1
                l(4) =   1
     Q(r) pseudized with 0 coefficients 


     PseudoPot. # 2 for  N read from file:
     /scratch/ahofstet/pseudo/N.pbe-n-kjpaw_psl.0.1.UPF
     MD5 check sum: f73187c8b701007e77325f868c9291d7
     Pseudo is Projector augmented-wave + core cor, Zval =  5.0
     Generated using "atomic" code by A. Dal Corso  v.5.0.99 svn rev. 10869
     Shape of augmentation charge: PSQ
     Using radial grid of 1085 points,  4 beta functions with: 
                l(1) =   0
                l(2) =   0
                l(3) =   1
                l(4) =   1
     Q(r) pseudized with 0 coefficients 


     PseudoPot. # 3 for  H read from file:
     /scratch/ahofstet/pseudo/H.pbe-kjpaw_psl.0.1.UPF
     MD5 check sum: 94e484f906d9e9773b2f6e52662335b2
     Pseudo is Projector augmented-wave, Zval =  1.0
     Generated using "atomic" code by A. Dal Corso  v.5.0.99 svn rev. 10869
     Shape of augmentation charge: PSQ
     Using radial grid of  929 points,  2 beta functions with: 
                l(1) =   0
                l(2) =   0
     Q(r) pseudized with 0 coefficients 


     PseudoPot. # 4 for  O read from file:
     /scratch/ahofstet/pseudo/O.pbe-n-kjpaw_psl.0.1.UPF
     MD5 check sum: 3f94a2996a3169367d6eb21d9b593f20
     Pseudo is Projector augmented-wave + core cor, Zval =  6.0
     Generated using "atomic" code by A. Dal Corso  v.5.0.99 svn rev. 10869
     Shape of augmentation charge: BESSEL
     Using radial grid of 1095 points,  4 beta functions with: 
                l(1) =   0
                l(2) =   0
                l(3) =   1
                l(4) =   1
     Q(r) pseudized with 0 coefficients 


     atomic species   valence    mass     pseudopotential
        C              4.00    12.01070      C( 1.00)
        N              5.00    14.00670      N( 1.00)
        H              1.00     1.00794      H( 1.00)
        O              6.00    15.99940      O( 1.00)

      2 Sym. Ops., with inversion, found



   Cartesian axes

     site n.     atom                  positions (alat units)
         1           C   tau(   1) = (   0.4307228   1.1752040   1.2368163  )
         2           C   tau(   2) = (   1.0608044   0.8811730   0.0907220  )
         3           C   tau(   3) = (   0.2925287   0.5103874   0.0766977  )
         4           C   tau(   4) = (   1.1989985   1.5459897   1.2508406  )
         5           C   tau(   5) = (   0.3467963   0.6346493   0.1697188  )
         6           C   tau(   6) = (   1.1447310   1.4217278   1.1578195  )
         7           C   tau(   7) = (   0.4503927   0.7467868   0.1065155  )
         8           C   tau(   8) = (   1.0411345   1.3095903   1.2210228  )
         9           C   tau(   9) = (   0.5922100   1.4237602   1.2753757  )
        10           C   tau(  10) = (   0.8993173   0.6326169   0.0521626  )
        11           C   tau(  11) = (   0.5330635   1.3051075   1.1805944  )
        12           C   tau(  12) = (   0.9584638   0.7512696   0.1469440  )
        13           O   tau(  13) = (   0.3959462   1.0590025   1.1536979  )
        14           O   tau(  14) = (   1.0955811   0.9973746   0.1738404  )
        15           O   tau(  15) = (   0.0967168   0.3174827   0.0669902  )
        16           O   tau(  16) = (   1.3948104   1.7388944   1.2605481  )
        17           O   tau(  17) = (   0.1858770   0.3897540   0.2994825  )
        18           O   tau(  18) = (   1.3056502   1.6666230   1.0280558  )
        19           O   tau(  19) = (   0.4536495   0.8874166   0.3417674  )
        20           O   tau(  20) = (   1.0378778   1.1689605   0.9857709  )
        21           O   tau(  21) = (   0.5971745   0.9749132   0.1437793  )
        22           O   tau(  22) = (   0.8943527   1.0814639   1.1837590  )
        23           O   tau(  23) = (   0.4712678   1.2773839   0.9150384  )
        24           O   tau(  24) = (   1.0202594   0.7789931   0.4124999  )
        25           O   tau(  25) = (   0.7129182   1.3487948   0.9781551  )
        26           O   tau(  26) = (   0.7786090   0.7075823   0.3493832  )
        27           N   tau(  27) = (   0.1855904   0.3987680   0.1512886  )
        28           N   tau(  28) = (   1.3059368   1.6576091   1.1762498  )
        29           N   tau(  29) = (   0.5035394   0.8780356   0.2035071  )
        30           N   tau(  30) = (   0.9879879   1.1783414   1.1240312  )
        31           N   tau(  31) = (   0.5755248   1.3096562   1.0133880  )
        32           N   tau(  32) = (   0.9160025   0.7467209   0.3141503  )
        33           N   tau(  33) = (   0.4374722   0.5840164   1.0553656  )
        34           N   tau(  34) = (   1.0540550   1.4723607   0.2721727  )
        35           C   tau(  35) = (   0.6090387   0.6033494   1.0873072  )
        36           C   tau(  36) = (   0.8824885   1.4530276   0.2402311  )
        37           C   tau(  37) = (   0.6763885   0.7672009   1.0460467  )
        38           C   tau(  38) = (   0.8151387   1.2891762   0.2814916  )
        39           C   tau(  39) = (   0.7373293   0.7840035   0.8754077  )
        40           C   tau(  40) = (   0.7541980   1.2723736   0.4521306  )
        41           C   tau(  41) = (   0.6129870   0.7574208   0.7460387  )
        42           C   tau(  42) = (   0.8785403   1.2989563   0.5814996  )
        43           C   tau(  43) = (   0.4804315   0.8829355   0.7449126  )
        44           C   tau(  44) = (   1.0110957   1.1734416   0.5826257  )
        45           C   tau(  45) = (   0.3214572   0.8125682   0.6967142  )
        46           C   tau(  46) = (   1.1700700   1.2438088   0.6308241  )
        47           N   tau(  47) = (   0.2585174   0.7070724   0.8254708  )
        48           N   tau(  48) = (   1.2330098   1.3493047   0.5020676  )
        49           C   tau(  49) = (   0.1549793   0.5776029   0.7614909  )
        50           C   tau(  50) = (   1.3365479   1.4787741   0.5660475  )
        51           C   tau(  51) = (   0.2488975   0.4453076   0.6801312  )
        52           C   tau(  52) = (   1.2426297   1.6110695   0.6474071  )
        53           C   tau(  53) = (   0.6992003   1.6745625   0.7833786  )
        54           C   tau(  54) = (   0.7923269   0.3818146   0.5441597  )
        55           C   tau(  55) = (   0.8366404   1.6982506   0.9006324  )
        56           C   tau(  56) = (   0.6548868   0.3581265   0.4269059  )
        57           C   tau(  57) = (   0.7929720   1.7841026   1.0553793  )
        58           C   tau(  58) = (   0.6985553   0.2722745   0.2721590  )
        59           C   tau(  59) = (   0.3398962   0.6719915   1.1727261  )
        60           C   tau(  60) = (   1.1516310   1.3843856   0.1548123  )
        61           C   tau(  61) = (   0.1736530   0.7090045   1.1094288  )
        62           C   tau(  62) = (   1.3178742   1.3473726   0.2181095  )
        63           C   tau(  63) = (   0.1781204   0.8017689   0.9544053  )
        64           C   tau(  64) = (   1.3134069   1.2546082   0.3731331  )
        65           H   tau(  65) = (   0.3560984   0.6526607   0.8918270  )
        66           H   tau(  66) = (   1.1354288   1.4037163   0.4357113  )
        67           H   tau(  67) = (   0.3053473   0.6470494   0.2912979  )
        68           H   tau(  68) = (   1.1861800   1.4093277   1.0362404  )
        69           H   tau(  69) = (   0.6704458   1.5142277   1.2268348  )
        70           H   tau(  70) = (   0.8210815   0.5421494   0.1007035  )
        71           H   tau(  71) = (   1.0294233   1.9463212   1.2141575  )
        72           H   tau(  72) = (   0.4621040   0.1100559   0.1133808  )
        73           H   tau(  73) = (   1.0714905   1.8822598   1.0188014  )
        74           H   tau(  74) = (   0.4200368   0.1741172   0.3087369  )
        75           H   tau(  75) = (   0.7760839   0.7918022   1.1262212  )
        76           H   tau(  76) = (   0.7154433   1.2645749   0.2013172  )
        77           H   tau(  77) = (   0.5886515   0.8602723   1.0716967  )
        78           H   tau(  78) = (   0.9028757   1.1961047   0.2558417  )
        79           H   tau(  79) = (   0.8345275   0.6985137   0.8572321  )
        80           H   tau(  80) = (   0.6569998   1.3578633   0.4703063  )
        81           H   tau(  81) = (   0.7894767   0.9030632   0.8616349  )
        82           H   tau(  82) = (   0.7020506   1.1533139   0.4659035  )
        83           H   tau(  83) = (   0.6707281   0.7548821   0.6291453  )
        84           H   tau(  84) = (   0.8207991   1.3014949   0.6983930  )
        85           H   tau(  85) = (   0.5620181   0.6380559   0.7625033  )
        86           H   tau(  86) = (   0.9295092   1.4183212   0.5650351  )
        87           H   tau(  87) = (   0.5102729   0.9772624   0.6601257  )
        88           H   tau(  88) = (   0.9812544   1.0791147   0.6674126  )
        89           H   tau(  89) = (   0.4692030   0.9411835   0.8612040  )
        90           H   tau(  90) = (   1.0223242   1.1151936   0.4663343  )
        91           H   tau(  91) = (   0.3347272   0.7417564   0.5885306  )
        92           H   tau(  92) = (   1.1568001   1.3146207   0.7390077  )
        93           H   tau(  93) = (   0.2298472   0.9020734   0.6730169  )
        94           H   tau(  94) = (   1.2616800   1.1543037   0.6545214  )
        95           H   tau(  95) = (   1.0728313   0.6345634   0.6779069  )
        96           H   tau(  96) = (   0.4186959   1.4218137   0.6496315  )
        97           H   tau(  97) = (   0.0856095   0.5294676   0.8606626  )
        98           H   tau(  98) = (   1.4059177   1.5269094   0.4668757  )
        99           H   tau(  99) = (   0.3528572   0.4953967   0.6187198  )
       100           H   tau( 100) = (   1.1386700   1.5609803   0.7088185  )
       101           H   tau( 101) = (   0.1730369   0.3993159   0.5849185  )
       102           H   tau( 102) = (   1.3184904   1.6570612   0.7426199  )
       103           H   tau( 103) = (   0.7335791   1.5785408   0.7020338  )
       104           H   tau( 104) = (   0.7579481   0.4778363   0.6255045  )
       105           H   tau( 105) = (   0.5953605   1.6299950   0.8491701  )
       106           H   tau( 106) = (   0.8961668   0.4263821   0.4783682  )
       107           H   tau( 107) = (   0.8824769   1.5802892   0.9313225  )
       108           H   tau( 108) = (   0.6090504   0.4760879   0.3962158  )
       109           H   tau( 109) = (   0.9351619   1.7609783   0.8419741  )
       110           H   tau( 110) = (   0.5563654   0.2953988   0.4855642  )
       111           H   tau( 111) = (   0.8496651   1.7264550   1.1587709  )
       112           H   tau( 112) = (   0.6418621   0.3299220   0.1687674  )
       113           H   tau( 113) = (   0.6643798   1.7751356   1.0753443  )
       114           H   tau( 114) = (   0.8271474   0.2812415   0.2521940  )
       115           H   tau( 115) = (   0.3987100   0.7848430   1.1993920  )
       116           H   tau( 116) = (   1.0928172   1.2715341   0.1281463  )
       117           H   tau( 117) = (   0.7305236   1.9731350   1.2840046  )
       118           H   tau( 118) = (   0.7610036   0.0832421   0.0435337  )
       119           H   tau( 119) = (   1.1137795   0.7844748   1.1970754  )
       120           H   tau( 120) = (   0.3777478   1.2719023   0.1304630  )
       121           H   tau( 121) = (   0.1025643   0.6001293   1.0983655  )
       122           H   tau( 122) = (   1.3889629   1.4562478   0.2291728  )
       123           H   tau( 123) = (   0.2472230   0.9106130   0.9708533  )
       124           H   tau( 124) = (   1.2443042   1.1457641   0.3566850  )
       125           H   tau( 125) = (   1.0594914   0.8343021   0.9123978  )
       126           H   tau( 126) = (   0.4320358   1.2220750   0.4151406  )

     number of k points=     8
                       cart. coord. in units 2pi/alat
        k(    1) = (   0.0000000   0.0000000   0.0000000), wk =   0.2500000
        k(    2) = (   0.0000000   0.0000000  -0.3766370), wk =   0.2500000
        k(    3) = (   0.0000000  -0.3649513   0.1886782), wk =   0.2500000
        k(    4) = (   0.0000000  -0.3649513  -0.1879587), wk =   0.2500000
        k(    5) = (  -0.5000000   0.1455474  -0.0403278), wk =   0.2500000
        k(    6) = (  -0.5000000   0.1455474  -0.4169647), wk =   0.2500000
        k(    7) = (  -0.5000000  -0.2194040   0.1483505), wk =   0.2500000
        k(    8) = (  -0.5000000  -0.2194040  -0.2282865), wk =   0.2500000

     Dense  grid:   995175 G-vectors     FFT dimensions: ( 108, 150, 160)

     Estimated max dynamical RAM per process >    1111.93MB

     Estimated total allocated dynamical RAM >    8895.48MB

     Check: negative/imaginary core charge=   -0.000002    0.000000

     Initial potential from superposition of free atoms

     starting charge  355.99765, renormalised to  356.00000
     Starting wfc are  318 randomized atomic wfcs
     Checking if some PAW data can be deallocated... 

     total cpu time spent up to now is       73.5 secs

     per-process dynamical memory:   761.1 Mb

     Self-consistent Calculation

     iteration #  1     ecut=   100.00 Ry     beta=0.50
     Davidson diagonalization with overlap
     ethr =  1.00E-02,  avg # of iterations =  4.0

     total cpu time spent up to now is      270.2 secs

     total energy              =   -1673.29154042 Ry
     Harris-Foulkes estimate   =   -1679.96408471 Ry
     estimated scf accuracy    <      12.70837995 Ry

     iteration #  2     ecut=   100.00 Ry     beta=0.50
     Davidson diagonalization with overlap
     ethr =  3.57E-03,  avg # of iterations =  3.1

     total cpu time spent up to now is      381.6 secs

     total energy              =   -1674.32638288 Ry
     Harris-Foulkes estimate   =   -1675.44427009 Ry
     estimated scf accuracy    <       2.26957335 Ry

     iteration #  3     ecut=   100.00 Ry     beta=0.50
     Davidson diagonalization with overlap
     ethr =  6.38E-04,  avg # of iterations =  6.6

     total cpu time spent up to now is      599.5 secs

     total energy              =   -1675.51457403 Ry
     Harris-Foulkes estimate   =   -1676.19968964 Ry
     estimated scf accuracy    <       1.79817146 Ry

     iteration #  4     ecut=   100.00 Ry     beta=0.50
     Davidson diagonalization with overlap
     ethr =  5.05E-04,  avg # of iterations =  4.0

     total cpu time spent up to now is      705.9 secs

     total energy              =   -1675.50196807 Ry
     Harris-Foulkes estimate   =   -1675.69459694 Ry
     estimated scf accuracy    <       0.38216881 Ry

     iteration #  5     ecut=   100.00 Ry     beta=0.50
     Davidson diagonalization with overlap
     ethr =  1.07E-04,  avg # of iterations =  6.6

     total cpu time spent up to now is      898.7 secs

     total energy              =   -1675.71821466 Ry
     Harris-Foulkes estimate   =   -1675.79539504 Ry
     estimated scf accuracy    <       0.28829625 Ry

     iteration #  6     ecut=   100.00 Ry     beta=0.50
     Davidson diagonalization with overlap
     ethr =  8.10E-05,  avg # of iterations =  2.0

     total cpu time spent up to now is      999.7 secs

     total energy              =   -1675.70725470 Ry
     Harris-Foulkes estimate   =   -1675.75083249 Ry
     estimated scf accuracy    <       0.11761797 Ry

     iteration #  7     ecut=   100.00 Ry     beta=0.50
     Davidson diagonalization with overlap
     ethr =  3.30E-05,  avg # of iterations =  3.9

     total cpu time spent up to now is     1113.3 secs

     total energy              =   -1675.71660672 Ry
     Harris-Foulkes estimate   =   -1675.72389405 Ry
     estimated scf accuracy    <       0.01433576 Ry

     iteration #  8     ecut=   100.00 Ry     beta=0.50
     Davidson diagonalization with overlap
     ethr =  4.03E-06,  avg # of iterations =  8.6

     total cpu time spent up to now is     1323.7 secs

     total energy              =   -1675.72398111 Ry
     Harris-Foulkes estimate   =   -1675.72454184 Ry
     estimated scf accuracy    <       0.00228218 Ry

     iteration #  9     ecut=   100.00 Ry     beta=0.50
     Davidson diagonalization with overlap
     ethr =  6.41E-07,  avg # of iterations =  1.8

     total cpu time spent up to now is     1421.5 secs

     total energy              =   -1675.72362165 Ry
     Harris-Foulkes estimate   =   -1675.72413488 Ry
     estimated scf accuracy    <       0.00119546 Ry

     iteration # 10     ecut=   100.00 Ry     beta=0.50
     Davidson diagonalization with overlap
     ethr =  3.36E-07,  avg # of iterations =  3.0

     total cpu time spent up to now is     1558.9 secs

     total energy              =   -1675.72396541 Ry
     Harris-Foulkes estimate   =   -1675.72401021 Ry
     estimated scf accuracy    <       0.00014388 Ry

     iteration # 11     ecut=   100.00 Ry     beta=0.50
     Davidson diagonalization with overlap
     ethr =  4.04E-08,  avg # of iterations =  3.0

     total cpu time spent up to now is     1668.4 secs

     total energy              =   -1675.72398255 Ry
     Harris-Foulkes estimate   =   -1675.72399169 Ry
     estimated scf accuracy    <       0.00002264 Ry

     iteration # 12     ecut=   100.00 Ry     beta=0.50
     Davidson diagonalization with overlap
     ethr =  6.36E-09,  avg # of iterations =  4.0

     total cpu time spent up to now is     1845.6 secs

     total energy              =   -1675.72399273 Ry
     Harris-Foulkes estimate   =   -1675.72399625 Ry
     estimated scf accuracy    <       0.00001226 Ry

     iteration # 13     ecut=   100.00 Ry     beta=0.50
     Davidson diagonalization with overlap
     ethr =  3.44E-09,  avg # of iterations =  2.0

     total cpu time spent up to now is     1947.4 secs

     total energy              =   -1675.72399232 Ry
     Harris-Foulkes estimate   =   -1675.72399409 Ry
     estimated scf accuracy    <       0.00000442 Ry

     iteration # 14     ecut=   100.00 Ry     beta=0.50
     Davidson diagonalization with overlap
     ethr =  1.24E-09,  avg # of iterations =  4.0

     total cpu time spent up to now is     2090.0 secs

     total energy              =   -1675.72399365 Ry
     Harris-Foulkes estimate   =   -1675.72399386 Ry
     estimated scf accuracy    <       0.00000090 Ry

     iteration # 15     ecut=   100.00 Ry     beta=0.50
     Davidson diagonalization with overlap
     ethr =  2.53E-10,  avg # of iterations =  2.0

     total cpu time spent up to now is     2192.1 secs

     total energy              =   -1675.72399364 Ry
     Harris-Foulkes estimate   =   -1675.72399377 Ry
     estimated scf accuracy    <       0.00000033 Ry

     iteration # 16     ecut=   100.00 Ry     beta=0.50
     Davidson diagonalization with overlap
     ethr =  9.35E-11,  avg # of iterations =  3.0

     total cpu time spent up to now is     2324.8 secs

     total energy              =   -1675.72399371 Ry
     Harris-Foulkes estimate   =   -1675.72399373 Ry
     estimated scf accuracy    <       0.00000007 Ry

     iteration # 17     ecut=   100.00 Ry     beta=0.50
     Davidson diagonalization with overlap
     ethr =  2.03E-11,  avg # of iterations =  3.5

     total cpu time spent up to now is     2448.0 secs

     total energy              =   -1675.72399372 Ry
     Harris-Foulkes estimate   =   -1675.72399373 Ry
     estimated scf accuracy    <       0.00000001 Ry

     iteration # 18     ecut=   100.00 Ry     beta=0.50
     Davidson diagonalization with overlap
     ethr =  4.07E-12,  avg # of iterations =  4.0

     total cpu time spent up to now is     2588.1 secs

     End of self-consistent calculation

          k = 0.0000 0.0000 0.0000 (124437 PWs)   bands (ev):

   -24.2312 -24.2303 -24.0898 -24.0891 -23.9223 -23.9216 -19.7916 -19.7908
   -19.6027 -19.6008 -19.4670 -19.4665 -19.0924 -19.0880 -18.2906 -18.2863
   -16.8358 -16.8257 -15.8378 -15.7254 -14.2361 -14.2003 -13.8016 -13.7882
   -13.7658 -13.7341 -13.6747 -13.6252 -12.8286 -12.7678 -12.7038 -12.6717
   -12.0571 -12.0523 -11.4778 -11.4762 -11.2325 -11.2264 -11.0542 -11.0397
   -10.2840 -10.2684 -10.2080 -10.2003 -10.1357 -10.1107  -9.4474  -9.4339
    -8.8005  -8.7968  -8.6520  -8.6424  -8.0360  -8.0252  -7.9383  -7.9255
    -7.8882  -7.8449  -7.7289  -7.6592  -7.2939  -7.2179  -7.0862  -7.0862
    -6.9628  -6.9125  -6.7604  -6.6153  -6.4973  -6.4667  -6.4191  -6.3945
    -6.3380  -6.2934  -6.2767  -6.2638  -6.2341  -6.2088  -6.1110  -6.0245
    -5.9016  -5.8643  -5.7848  -5.7700  -5.7624  -5.6763  -5.3760  -5.3037
    -5.2591  -5.2099  -5.1132  -5.1005  -5.0474  -5.0367  -4.9919  -4.8889
    -4.8801  -4.7940  -4.7241  -4.6753  -4.3845  -4.2479  -4.1821  -4.0382
    -3.9947  -3.9272  -3.8761  -3.6918  -3.6725  -3.6245  -3.5599  -3.5207
    -3.5126  -3.4452  -3.4286  -3.4146  -3.3669  -3.3042  -3.0053  -2.9303
    -2.8636  -2.7818  -2.6852  -2.6726  -2.5437  -2.5115  -2.4534  -2.4464
    -2.3370  -2.2750  -2.1969  -2.1459  -2.0823  -1.9855  -1.9834  -1.9214
    -1.9004  -1.8476  -1.7498  -1.7050  -1.5027  -1.4905  -1.3865  -1.3060
    -1.2492  -1.2286  -1.2156  -1.1891  -1.1732  -1.1262  -1.1248  -1.1065
    -1.0553  -1.0550  -0.9701  -0.9422  -0.9262  -0.8830  -0.8571  -0.8407
    -0.7686  -0.7449  -0.7261  -0.7201  -0.5754  -0.5577  -0.2194  -0.1557
    -0.0234   0.0154   0.0248   0.0426   0.7818   0.8186   0.8404   0.8633
     0.8903   1.0056   2.9661   3.0140   3.2366   3.3026   3.5173   3.6440
     5.2312   5.5032   5.9361   5.9782   6.4619   6.6045   6.8809   7.0098
     7.0736   7.2148   7.2398   7.2869   7.3111   7.3617   7.5999   7.6640
     7.7320   7.7793   7.9098   7.9328   7.9468   8.0725   8.1660   8.1864
     8.2037   8.2571   8.4209   8.5551   8.5911

          k = 0.0000 0.0000-0.3766 (124378 PWs)   bands (ev):

   -24.2312 -24.2303 -24.0898 -24.0891 -23.9223 -23.9216 -19.7916 -19.7908
   -19.6027 -19.6008 -19.4670 -19.4665 -19.0925 -19.0880 -18.2902 -18.2866
   -16.8353 -16.8261 -15.8378 -15.7254 -14.2366 -14.2001 -13.8038 -13.7793
   -13.7694 -13.7363 -13.6729 -13.6293 -12.8051 -12.7894 -12.6966 -12.6779
   -12.0650 -12.0447 -11.4765 -11.4747 -11.2490 -11.2132 -11.0541 -11.0411
   -10.2799 -10.2725 -10.1820 -10.1788 -10.1763 -10.1219  -9.4537  -9.4238
    -8.8116  -8.7850  -8.6614  -8.6292  -8.0533  -7.9911  -7.9650  -7.9102
    -7.8803  -7.8748  -7.7009  -7.6783  -7.3034  -7.2033  -7.1000  -7.0652
    -6.9672  -6.9100  -6.7636  -6.6014  -6.4917  -6.4539  -6.4342  -6.4031
    -6.3589  -6.2708  -6.2697  -6.2603  -6.2414  -6.2083  -6.0709  -6.0490
    -5.9072  -5.8644  -5.8235  -5.7808  -5.7539  -5.6725  -5.3532  -5.3457
    -5.2648  -5.1677  -5.1184  -5.0904  -5.0348  -5.0271  -4.9881  -4.9677
    -4.8502  -4.8361  -4.7142  -4.6589  -4.3847  -4.2391  -4.1613  -3.9968
    -3.9845  -3.9446  -3.8963  -3.7025  -3.6936  -3.6004  -3.5584  -3.5437
    -3.5042  -3.4511  -3.4028  -3.4014  -3.3682  -3.3394  -2.9693  -2.9480
    -2.8220  -2.8113  -2.6982  -2.6498  -2.5409  -2.5365  -2.5058  -2.4212
    -2.3055  -2.2895  -2.1816  -2.1642  -2.0578  -2.0434  -1.9828  -1.9349
    -1.8982  -1.7981  -1.7386  -1.7000  -1.5140  -1.4858  -1.4057  -1.3294
    -1.2795  -1.2746  -1.1858  -1.1826  -1.1548  -1.1341  -1.1174  -1.0700
    -1.0391  -0.9975  -0.9812  -0.9515  -0.9257  -0.8733  -0.8589  -0.8574
    -0.8029  -0.7542  -0.7246  -0.6701  -0.5880  -0.5782  -0.2235  -0.1533
    -0.0219   0.0185   0.0273   0.0388   0.7799   0.8183   0.8645   0.8658
     0.8827   0.9814   2.9635   3.0133   3.2360   3.3041   3.5191   3.6419
     5.2317   5.4982   5.9374   5.9770   6.5741   6.6812   6.7014   6.9756
     7.0872   7.1662   7.2107   7.2672   7.3515   7.4662   7.5927   7.6240
     7.6766   7.8214   7.8442   7.9163   7.9963   8.0834   8.1721   8.2374
     8.3199   8.3905   8.4248   8.5477   8.5796

          k = 0.0000-0.3650 0.1887 (124434 PWs)   bands (ev):

   -24.2312 -24.2303 -24.0898 -24.0891 -23.9223 -23.9216 -19.7916 -19.7908
   -19.6027 -19.6008 -19.4670 -19.4665 -19.0924 -19.0880 -18.2894 -18.2874
   -16.8354 -16.8260 -15.8377 -15.7254 -14.2366 -14.2001 -13.7969 -13.7796
   -13.7742 -13.7498 -13.6589 -13.6300 -12.8202 -12.7791 -12.6886 -12.6833
   -12.0593 -12.0501 -11.4784 -11.4739 -11.2542 -11.2071 -11.0540 -11.0417
   -10.2854 -10.2716 -10.1888 -10.1866 -10.1578 -10.1155  -9.4460  -9.4324
    -8.8156  -8.7910  -8.6509  -8.6359  -8.0688  -7.9916  -7.9565  -7.9307
    -7.8628  -7.8460  -7.7333  -7.6602  -7.3009  -7.2048  -7.0868  -7.0690
    -6.9646  -6.9010  -6.7889  -6.5961  -6.4844  -6.4774  -6.4183  -6.4173
    -6.3204  -6.2935  -6.2761  -6.2684  -6.2362  -6.2111  -6.0873  -6.0528
    -5.9035  -5.8720  -5.8296  -5.7573  -5.7136  -5.7123  -5.3442  -5.3138
    -5.3026  -5.1804  -5.1032  -5.0956  -5.0210  -5.0185  -4.9986  -4.9360
    -4.8644  -4.8126  -4.7278  -4.6903  -4.3236  -4.3126  -4.1121  -4.0845
    -3.9813  -3.9041  -3.8914  -3.7081  -3.6860  -3.6103  -3.5527  -3.5514
    -3.4481  -3.4352  -3.4227  -3.4187  -3.3598  -3.3366  -2.9770  -2.9641
    -2.8403  -2.8287  -2.6920  -2.6254  -2.5663  -2.5086  -2.4569  -2.4480
    -2.3422  -2.2722  -2.1812  -2.1269  -2.0810  -2.0451  -1.9600  -1.9577
    -1.8628  -1.8542  -1.7547  -1.6960  -1.5236  -1.4759  -1.3697  -1.3622
    -1.3121  -1.2246  -1.2174  -1.2149  -1.1493  -1.1098  -1.1002  -1.0861
    -1.0449  -0.9898  -0.9627  -0.9625  -0.9117  -0.8927  -0.8468  -0.8402
    -0.8155  -0.7594  -0.7217  -0.6954  -0.5797  -0.5521  -0.2204  -0.1531
    -0.0247   0.0206   0.0258   0.0397   0.7784   0.8162   0.8454   0.8679
     0.9060   0.9804   2.9654   3.0139   3.2372   3.3055   3.5090   3.6419
     5.2330   5.4992   5.9516   5.9737   6.5506   6.6087   6.7709   6.8911
     6.9980   7.0558   7.3190   7.3738   7.4236   7.4876   7.5761   7.6453
     7.8128   7.8544   7.8972   8.0067   8.0118   8.0564   8.1201   8.1420
     8.2113   8.2773   8.4450   8.5247   8.6457

          k = 0.0000-0.3650-0.1880 (124452 PWs)   bands (ev):

   -24.2312 -24.2303 -24.0898 -24.0891 -23.9223 -23.9216 -19.7916 -19.7908
   -19.6027 -19.6008 -19.4670 -19.4665 -19.0925 -19.0880 -18.2897 -18.2871
   -16.8357 -16.8257 -15.8377 -15.7254 -14.2363 -14.2000 -13.8001 -13.7994
   -13.7559 -13.7406 -13.6610 -13.6335 -12.7980 -12.7973 -12.6917 -12.6831
   -12.0624 -12.0462 -11.4790 -11.4772 -11.2698 -11.1873 -11.0543 -11.0399
   -10.2774 -10.2708 -10.2377 -10.1552 -10.1501 -10.1170  -9.4558  -9.4257
    -8.8336  -8.7763  -8.6687  -8.6117  -8.0230  -8.0194  -7.9316  -7.9128
    -7.9011  -7.8762  -7.7155  -7.6700  -7.2980  -7.2027  -7.1056  -7.0646
    -6.9647  -6.9061  -6.7874  -6.6101  -6.5116  -6.4503  -6.4379  -6.3798
    -6.3455  -6.2784  -6.2654  -6.2643  -6.2409  -6.2071  -6.0624  -6.0359
    -5.8964  -5.8352  -5.8309  -5.8172  -5.7493  -5.7009  -5.3454  -5.3376
    -5.2432  -5.1970  -5.1137  -5.1090  -5.0471  -5.0012  -4.9639  -4.9627
    -4.8523  -4.8248  -4.7260  -4.6858  -4.2943  -4.2851  -4.1341  -4.1143
    -4.0004  -3.9274  -3.8058  -3.7401  -3.6902  -3.6136  -3.5849  -3.5576
    -3.4578  -3.4447  -3.4163  -3.4153  -3.3642  -3.3152  -3.0053  -2.9209
    -2.8451  -2.8142  -2.6629  -2.6590  -2.5301  -2.5283  -2.4859  -2.4261
    -2.3105  -2.2879  -2.1805  -2.1207  -2.0507  -2.0151  -2.0126  -1.9493
    -1.9449  -1.8027  -1.7427  -1.7044  -1.5161  -1.4797  -1.3771  -1.3427
    -1.3167  -1.2487  -1.2331  -1.1871  -1.1620  -1.1335  -1.1043  -1.0753
    -1.0354  -1.0056  -0.9798  -0.9541  -0.9318  -0.9010  -0.8371  -0.8021
    -0.7554  -0.7480  -0.7269  -0.7178  -0.5888  -0.5850  -0.2181  -0.1527
    -0.0275   0.0202   0.0209   0.0477   0.7769   0.8171   0.8406   0.8601
     0.8968   1.0101   2.9694   3.0120   3.2386   3.3042   3.5099   3.6399
     5.2341   5.4973   5.9514   5.9839   6.4617   6.5828   6.9322   6.9412
     7.0759   7.1503   7.2192   7.2997   7.3422   7.4788   7.6279   7.7292
     7.7889   7.7899   7.8604   7.8916   7.9498   8.0403   8.1212   8.1775
     8.1792   8.2873   8.3758   8.5138   8.5689

          k =-0.5000 0.1455-0.0403 (124400 PWs)   bands (ev):

   -24.2306 -24.2305 -24.0900 -24.0891 -23.9222 -23.9219 -19.7915 -19.7906
   -19.6026 -19.6008 -19.4676 -19.4666 -19.0921 -19.0879 -18.2899 -18.2862
   -16.8350 -16.8268 -15.8263 -15.7380 -14.2416 -14.1937 -13.7979 -13.7933
   -13.7655 -13.7403 -13.6749 -13.6699 -12.7590 -12.7399 -12.6980 -12.6936
   -12.0799 -12.0167 -11.4825 -11.4721 -11.2361 -11.2080 -11.0609 -11.0290
   -10.3532 -10.3379 -10.2266 -10.1689 -10.1338 -10.1134  -9.4306  -9.4093
    -8.7620  -8.7325  -8.6941  -8.6218  -8.0562  -8.0026  -7.9498  -7.9198
    -7.8570  -7.8533  -7.7522  -7.6401  -7.2831  -7.2541  -7.1711  -7.1709
    -6.9675  -6.9427  -6.7368  -6.5680  -6.4802  -6.4794  -6.3730  -6.3647
    -6.3583  -6.3310  -6.2556  -6.2406  -6.2197  -6.1991  -6.0853  -6.0681
    -5.9617  -5.8499  -5.8226  -5.7705  -5.7460  -5.6754  -5.3616  -5.3596
    -5.2575  -5.1593  -5.1120  -5.0595  -5.0282  -5.0209  -4.9624  -4.9581
    -4.8534  -4.8431  -4.7322  -4.7221  -4.2610  -4.1736  -4.1551  -4.0961
    -3.9894  -3.9286  -3.8064  -3.7612  -3.6447  -3.6076  -3.5531  -3.5336
    -3.5034  -3.4884  -3.4494  -3.4485  -3.3718  -3.3385  -2.9583  -2.8749
    -2.8517  -2.7392  -2.7105  -2.6450  -2.5926  -2.5169  -2.4497  -2.4110
    -2.2996  -2.2928  -2.2322  -2.1282  -2.0916  -2.0843  -2.0099  -1.9573
    -1.9116  -1.8326  -1.7274  -1.7047  -1.5499  -1.4437  -1.3437  -1.3373
    -1.2974  -1.2589  -1.2227  -1.1589  -1.1496  -1.1119  -1.1100  -1.0610
    -1.0394  -1.0081  -1.0062  -0.9459  -0.9271  -0.8690  -0.8569  -0.8271
    -0.8002  -0.7708  -0.7558  -0.7357  -0.5643  -0.5553  -0.2168  -0.1785
    -0.0280   0.0043   0.0411   0.0545   0.8179   0.8240   0.8282   0.8755
     0.9164   0.9880   2.9392   3.0419   3.2605   3.2734   3.5328   3.6170
     5.3047   5.3677   5.9551   6.0186   6.5264   6.5856   6.8035   6.9448
     7.1115   7.1437   7.1939   7.2794   7.3375   7.3912   7.5655   7.6314
     7.7322   7.8299   7.9560   8.0524   8.0612   8.1222   8.2476   8.2747
     8.3559   8.4243   8.5219   8.5239   8.5876

          k =-0.5000 0.1455-0.4170 (124354 PWs)   bands (ev):

   -24.2306 -24.2305 -24.0900 -24.0891 -23.9222 -23.9219 -19.7915 -19.7906
   -19.6026 -19.6008 -19.4676 -19.4665 -19.0922 -19.0879 -18.2899 -18.2862
   -16.8352 -16.8266 -15.8263 -15.7379 -14.2423 -14.1939 -13.7988 -13.7843
   -13.7781 -13.7351 -13.6844 -13.6595 -12.7616 -12.7556 -12.6943 -12.6776
   -12.0588 -12.0407 -11.4808 -11.4722 -11.2558 -11.1867 -11.0634 -11.0290
   -10.3545 -10.3359 -10.1913 -10.1813 -10.1530 -10.1207  -9.4441  -9.3938
    -8.7764  -8.7187  -8.6695  -8.6451  -8.0497  -7.9918  -7.9692  -7.9431
    -7.8903  -7.8292  -7.6801  -7.6755  -7.3005  -7.2632  -7.1829  -7.1155
    -6.9750  -6.9452  -6.7260  -6.5754  -6.4829  -6.4509  -6.4102  -6.3706
    -6.3412  -6.3177  -6.2926  -6.2297  -6.2195  -6.1669  -6.0886  -6.0821
    -5.9655  -5.8504  -5.8224  -5.7864  -5.7471  -5.6837  -5.4018  -5.3267
    -5.2008  -5.1849  -5.1299  -5.0690  -5.0395  -5.0099  -4.9768  -4.9220
    -4.8778  -4.8353  -4.7429  -4.7102  -4.2248  -4.1785  -4.1458  -4.1173
    -3.9543  -3.9377  -3.7919  -3.7535  -3.6759  -3.6431  -3.6007  -3.5257
    -3.5151  -3.4871  -3.4254  -3.4217  -3.3968  -3.3164  -2.9194  -2.9069
    -2.8088  -2.7996  -2.7031  -2.6878  -2.5481  -2.5144  -2.4577  -2.3947
    -2.3147  -2.2616  -2.2509  -2.1221  -2.1054  -2.0366  -2.0260  -1.9412
    -1.9236  -1.8619  -1.7137  -1.6851  -1.5227  -1.4518  -1.3551  -1.3476
    -1.3197  -1.2488  -1.2074  -1.1943  -1.1638  -1.1112  -1.0902  -1.0665
    -1.0539  -1.0344  -1.0010  -0.9450  -0.9118  -0.8750  -0.8329  -0.8299
    -0.8098  -0.7597  -0.7349  -0.7056  -0.5912  -0.5648  -0.2122  -0.1765
    -0.0243  -0.0016   0.0345   0.0588   0.8155   0.8239   0.8278   0.8760
     0.8915   1.0081   2.9354   3.0418   3.2609   3.2741   3.5326   3.6170
     5.3062   5.3678   5.9557   6.0191   6.5232   6.6804   6.7658   6.9396
     6.9655   7.0983   7.1249   7.2921   7.3759   7.4288   7.6408   7.7026
     7.8323   7.9030   8.0180   8.0225   8.1279   8.1802   8.1872   8.3268
     8.3586   8.4032   8.4269   8.4806   8.5949

          k =-0.5000-0.2194 0.1484 (124372 PWs)   bands (ev):

   -24.2306 -24.2305 -24.0900 -24.0891 -23.9222 -23.9219 -19.7915 -19.7906
   -19.6026 -19.6008 -19.4676 -19.4666 -19.0922 -19.0879 -18.2893 -18.2868
   -16.8353 -16.8265 -15.8264 -15.7378 -14.2425 -14.1937 -13.7976 -13.7809
   -13.7755 -13.7476 -13.6703 -13.6689 -12.7521 -12.7481 -12.7075 -12.6818
   -12.0738 -12.0245 -11.4836 -11.4709 -11.2291 -11.2137 -11.0637 -11.0292
   -10.3472 -10.3439 -10.2046 -10.1786 -10.1392 -10.1186  -9.4211  -9.4177
    -8.7503  -8.7431  -8.6669  -8.6497  -8.0666  -7.9861  -7.9726  -7.9331
    -7.8647  -7.8394  -7.7397  -7.6369  -7.2688  -7.2667  -7.1768  -7.1430
    -6.9717  -6.9457  -6.7061  -6.6017  -6.4727  -6.4425  -6.4371  -6.3941
    -6.3334  -6.3328  -6.2505  -6.2373  -6.2342  -6.1834  -6.0721  -6.0608
    -5.9727  -5.8919  -5.7924  -5.7590  -5.7153  -5.7060  -5.3644  -5.3448
    -5.2194  -5.2105  -5.0890  -5.0869  -5.0612  -5.0335  -4.9492  -4.9286
    -4.8366  -4.8050  -4.7657  -4.7316  -4.2918  -4.2034  -4.1499  -4.0743
    -3.9744  -3.8709  -3.8408  -3.7427  -3.6712  -3.5870  -3.5748  -3.5406
    -3.5169  -3.4884  -3.4401  -3.4096  -3.4003  -3.3190  -2.9605  -2.8980
    -2.8055  -2.7818  -2.7337  -2.6434  -2.5622  -2.5436  -2.4438  -2.4039
    -2.3018  -2.2971  -2.2743  -2.1356  -2.1231  -2.0065  -1.9879  -1.9434
    -1.8842  -1.8568  -1.7336  -1.7013  -1.5283  -1.4564  -1.3683  -1.3595
    -1.2875  -1.2181  -1.1957  -1.1740  -1.1400  -1.1024  -1.1007  -1.0893
    -1.0618  -1.0224  -1.0207  -0.9611  -0.9500  -0.8566  -0.8433  -0.8180
    -0.8084  -0.7608  -0.7534  -0.7327  -0.5671  -0.5489  -0.2104  -0.1800
    -0.0271   0.0015   0.0392   0.0565   0.8154   0.8273   0.8326   0.8591
     0.9038   1.0111   2.9336   3.0433   3.2637   3.2725   3.5309   3.6129
     5.3050   5.3717   5.9602   6.0252   6.5196   6.5685   6.8408   6.9488
     6.9935   7.1227   7.2965   7.3150   7.4336   7.4741   7.5372   7.5987
     7.6804   7.8475   7.8563   7.9545   8.1463   8.1693   8.2136   8.2584
     8.3983   8.4646   8.4811   8.5234   8.6323

          k =-0.5000-0.2194-0.2283 (124348 PWs)   bands (ev):

   -24.2306 -24.2305 -24.0900 -24.0891 -23.9222 -23.9219 -19.7915 -19.7906
   -19.6026 -19.6008 -19.4676 -19.4666 -19.0922 -19.0878 -18.2893 -18.2868
   -16.8348 -16.8270 -15.8264 -15.7378 -14.2417 -14.1936 -13.8102 -13.7980
   -13.7474 -13.7459 -13.6801 -13.6591 -12.7552 -12.7490 -12.7175 -12.6700
   -12.0512 -12.0447 -11.4832 -11.4730 -11.2305 -11.2125 -11.0614 -11.0298
   -10.3481 -10.3470 -10.2267 -10.1617 -10.1388 -10.1099  -9.4326  -9.4090
    -8.7558  -8.7425  -8.6745  -8.6383  -8.0228  -7.9998  -7.9532  -7.9260
    -7.9042  -7.8675  -7.6798  -7.6775  -7.2922  -7.2427  -7.1864  -7.1724
    -6.9588  -6.9366  -6.7127  -6.5793  -6.4859  -6.4750  -6.3983  -6.3586
    -6.3519  -6.3345  -6.2441  -6.2314  -6.2263  -6.2034  -6.0880  -6.0511
    -5.9685  -5.8773  -5.7968  -5.7883  -5.7418  -5.6824  -5.3828  -5.3222
    -5.2582  -5.1515  -5.0778  -5.0616  -5.0438  -5.0272  -4.9647  -4.9535
    -4.8651  -4.8617  -4.7379  -4.7185  -4.2905  -4.1834  -4.1547  -4.0596
    -3.9720  -3.9024  -3.8322  -3.7581  -3.6605  -3.6092  -3.5672  -3.5377
    -3.5030  -3.4881  -3.4571  -3.4035  -3.3997  -3.3213  -2.9227  -2.9195
    -2.8141  -2.7596  -2.7337  -2.6837  -2.5670  -2.4954  -2.4479  -2.4056
    -2.3094  -2.2974  -2.2610  -2.1386  -2.0694  -2.0436  -2.0016  -1.9297
    -1.9089  -1.8706  -1.7037  -1.7001  -1.5009  -1.4833  -1.3720  -1.3692
    -1.3121  -1.2342  -1.2157  -1.1864  -1.1198  -1.1139  -1.0954  -1.0873
    -1.0546  -1.0529  -0.9965  -0.9627  -0.9068  -0.8611  -0.8479  -0.8056
    -0.7830  -0.7631  -0.7451  -0.7358  -0.5915  -0.5607  -0.2115  -0.1767
    -0.0310   0.0046   0.0407   0.0542   0.8107   0.8249   0.8313   0.8709
     0.9246   0.9922   2.9356   3.0444   3.2588   3.2757   3.5310   3.6134
     5.3046   5.3691   5.9629   6.0228   6.5586   6.5662   6.8531   6.8902
     7.0486   7.1787   7.2059   7.3129   7.4350   7.4896   7.6175   7.6301
     7.6881   7.7176   7.9417   7.9960   8.0375   8.1370   8.2154   8.2738
     8.3382   8.4208   8.4616   8.5281   8.5368

     highest occupied, lowest unoccupied level (ev):     1.0111    2.9336

!    total energy              =   -1675.72399373 Ry
     Harris-Foulkes estimate   =   -1675.72399373 Ry
     estimated scf accuracy    <          4.4E-09 Ry

     total all-electron energy =     -6323.132287 Ry

     The total energy is the sum of the following terms:

     one-electron contribution =    -974.88263800 Ry
     hartree contribution      =     623.05770374 Ry
     xc contribution           =    -367.80803578 Ry
     ewald contribution        =    -473.33681574 Ry
     Dispersion Correction     =      -0.61489397 Ry
     one-center paw contrib.   =    -482.13931397 Ry

     convergence has been achieved in  18 iterations

     Forces acting on atoms (cartesian axes, Ry/au):

     atom    1 type  1   force =    -0.00028383   -0.00081497    0.00006393
     atom    2 type  1   force =     0.00028383    0.00081497   -0.00006393
     atom    3 type  1   force =     0.00060964   -0.00051717    0.00055569
     atom    4 type  1   force =    -0.00060964    0.00051717   -0.00055569
     atom    5 type  1   force =     0.00040393   -0.00097536   -0.00044054
     atom    6 type  1   force =    -0.00040393    0.00097536    0.00044054
     atom    7 type  1   force =     0.00065179    0.00023540    0.00016773
     atom    8 type  1   force =    -0.00065179   -0.00023540   -0.00016773
     atom    9 type  1   force =    -0.00222058    0.00013117    0.00009125
     atom   10 type  1   force =     0.00222058   -0.00013117   -0.00009125
     atom   11 type  1   force =     0.00026213    0.00026169    0.00001173
     atom   12 type  1   force =    -0.00026213   -0.00026169   -0.00001173
     atom   13 type  4   force =     0.00023030    0.00053396    0.00045169
     atom   14 type  4   force =    -0.00023030   -0.00053396   -0.00045169
     atom   15 type  4   force =     0.00092925    0.00052293    0.00011548
     atom   16 type  4   force =    -0.00092925   -0.00052293   -0.00011548
     atom   17 type  4   force =     0.00015529   -0.00052216   -0.00036485
     atom   18 type  4   force =    -0.00015529    0.00052216    0.00036485
     atom   19 type  4   force =     0.00033948   -0.00007342    0.00001680
     atom   20 type  4   force =    -0.00033948    0.00007342   -0.00001680
     atom   21 type  4   force =    -0.00070547   -0.00079941    0.00068665
     atom   22 type  4   force =     0.00070547    0.00079941   -0.00068665
     atom   23 type  4   force =     0.00028062    0.00010272    0.00074723
     atom   24 type  4   force =    -0.00028062   -0.00010272   -0.00074723
     atom   25 type  4   force =     0.00026567   -0.00019999   -0.00049550
     atom   26 type  4   force =    -0.00026567    0.00019999    0.00049550
     atom   27 type  2   force =     0.00040167   -0.00007743    0.00064982
     atom   28 type  2   force =    -0.00040167    0.00007743   -0.00064982
     atom   29 type  2   force =     0.00054780    0.00025877    0.00006967
     atom   30 type  2   force =    -0.00054780   -0.00025877   -0.00006967
     atom   31 type  2   force =     0.00017895   -0.00008169    0.00022831
     atom   32 type  2   force =    -0.00017895    0.00008169   -0.00022831
     atom   33 type  2   force =    -0.00041781    0.00010021   -0.00003576
     atom   34 type  2   force =     0.00041781   -0.00010021    0.00003576
     atom   35 type  1   force =     0.00084886    0.00083848   -0.00040855
     atom   36 type  1   force =    -0.00084886   -0.00083848    0.00040855
     atom   37 type  1   force =    -0.00036521   -0.00050008   -0.00090739
     atom   38 type  1   force =     0.00036521    0.00050008    0.00090739
     atom   39 type  1   force =    -0.00002892   -0.00081210   -0.00069358
     atom   40 type  1   force =     0.00002892    0.00081210    0.00069358
     atom   41 type  1   force =     0.00033107   -0.00009623    0.00059559
     atom   42 type  1   force =    -0.00033107    0.00009623   -0.00059559
     atom   43 type  1   force =    -0.00137268    0.00108877   -0.00006030
     atom   44 type  1   force =     0.00137268   -0.00108877    0.00006030
     atom   45 type  1   force =     0.00006125    0.00021820   -0.00008161
     atom   46 type  1   force =    -0.00006125   -0.00021820    0.00008161
     atom   47 type  2   force =     0.00007024   -0.00022159    0.00033911
     atom   48 type  2   force =    -0.00007024    0.00022159   -0.00033911
     atom   49 type  1   force =    -0.00040576    0.00011373    0.00008954
     atom   50 type  1   force =     0.00040576   -0.00011373   -0.00008954
     atom   51 type  1   force =     0.00038021    0.00030390   -0.00001279
     atom   52 type  1   force =    -0.00038021   -0.00030390    0.00001279
     atom   53 type  1   force =    -0.00015603   -0.00038129   -0.00029239
     atom   54 type  1   force =     0.00015603    0.00038129    0.00029239
     atom   55 type  1   force =     0.00033153    0.00058971   -0.00009047
     atom   56 type  1   force =    -0.00033153   -0.00058971    0.00009047
     atom   57 type  1   force =     0.00006647   -0.00030501    0.00025023
     atom   58 type  1   force =    -0.00006647    0.00030501   -0.00025023
     atom   59 type  1   force =    -0.00035928    0.00029011   -0.00024555
     atom   60 type  1   force =     0.00035928   -0.00029011    0.00024555
     atom   61 type  1   force =     0.00063826   -0.00019268    0.00044270
     atom   62 type  1   force =    -0.00063826    0.00019268   -0.00044270
     atom   63 type  1   force =     0.00059161   -0.00004223   -0.00045889
     atom   64 type  1   force =    -0.00059161    0.00004223    0.00045889
     atom   65 type  3   force =     0.00059397   -0.00009536    0.00031922
     atom   66 type  3   force =    -0.00059397    0.00009536   -0.00031922
     atom   67 type  3   force =     0.00043721   -0.00050671   -0.00069054
     atom   68 type  3   force =    -0.00043721    0.00050671    0.00069054
     atom   69 type  3   force =    -0.00009340   -0.00090035    0.00029019
     atom   70 type  3   force =     0.00009340    0.00090035   -0.00029019
     atom   71 type  3   force =    -0.00032238   -0.00029711   -0.00030882
     atom   72 type  3   force =     0.00032238    0.00029711    0.00030882
     atom   73 type  3   force =    -0.00012695   -0.00012707    0.00021744
     atom   74 type  3   force =     0.00012695    0.00012707   -0.00021744
     atom   75 type  3   force =     0.00017965    0.00010588    0.00017992
     atom   76 type  3   force =    -0.00017965   -0.00010588   -0.00017992
     atom   77 type  3   force =     0.00027436   -0.00037905    0.00007538
     atom   78 type  3   force =    -0.00027436    0.00037905   -0.00007538
     atom   79 type  3   force =     0.00005881   -0.00085278    0.00026757
     atom   80 type  3   force =    -0.00005881    0.00085278   -0.00026757
     atom   81 type  3   force =     0.00046165    0.00058284    0.00074884
     atom   82 type  3   force =    -0.00046165   -0.00058284   -0.00074884
     atom   83 type  3   force =    -0.00051892   -0.00005227   -0.00011349
     atom   84 type  3   force =     0.00051892    0.00005227    0.00011349
     atom   85 type  3   force =    -0.00060631    0.00029528    0.00020055
     atom   86 type  3   force =     0.00060631   -0.00029528   -0.00020055
     atom   87 type  3   force =    -0.00027086   -0.00014475   -0.00045454
     atom   88 type  3   force =     0.00027086    0.00014475    0.00045454
     atom   89 type  3   force =     0.00011822   -0.00027887    0.00010725
     atom   90 type  3   force =    -0.00011822    0.00027887   -0.00010725
     atom   91 type  3   force =    -0.00034034   -0.00032915    0.00004992
     atom   92 type  3   force =     0.00034034    0.00032915   -0.00004992
     atom   93 type  3   force =    -0.00003868    0.00035293    0.00059852
     atom   94 type  3   force =     0.00003868   -0.00035293   -0.00059852
     atom   95 type  3   force =    -0.00025712    0.00054342   -0.00026356
     atom   96 type  3   force =     0.00025712   -0.00054342    0.00026356
     atom   97 type  3   force =     0.00018538   -0.00030421   -0.00018553
     atom   98 type  3   force =    -0.00018538    0.00030421    0.00018553
     atom   99 type  3   force =    -0.00030475    0.00001491    0.00004634
     atom  100 type  3   force =     0.00030475   -0.00001491   -0.00004634
     atom  101 type  3   force =    -0.00010068   -0.00027593    0.00034879
     atom  102 type  3   force =     0.00010068    0.00027593   -0.00034879
     atom  103 type  3   force =    -0.00013318   -0.00026102   -0.00006164
     atom  104 type  3   force =     0.00013318    0.00026102    0.00006164
     atom  105 type  3   force =    -0.00012096   -0.00035042   -0.00022646
     atom  106 type  3   force =     0.00012096    0.00035042    0.00022646
     atom  107 type  3   force =    -0.00046306    0.00018887   -0.00046926
     atom  108 type  3   force =     0.00046306   -0.00018887    0.00046926
     atom  109 type  3   force =     0.00021784    0.00007517   -0.00046596
     atom  110 type  3   force =    -0.00021784   -0.00007517    0.00046596
     atom  111 type  3   force =     0.00073399   -0.00041226    0.00018952
     atom  112 type  3   force =    -0.00073399    0.00041226   -0.00018952
     atom  113 type  3   force =    -0.00041268   -0.00010158   -0.00002723
     atom  114 type  3   force =     0.00041268    0.00010158    0.00002723
     atom  115 type  3   force =    -0.00064762   -0.00042238   -0.00056542
     atom  116 type  3   force =     0.00064762    0.00042238    0.00056542
     atom  117 type  3   force =     0.00012681    0.00021955    0.00036047
     atom  118 type  3   force =    -0.00012681   -0.00021955   -0.00036047
     atom  119 type  3   force =    -0.00075527   -0.00051625    0.00017980
     atom  120 type  3   force =     0.00075527    0.00051625   -0.00017980
     atom  121 type  3   force =    -0.00001943    0.00076441    0.00062158
     atom  122 type  3   force =     0.00001943   -0.00076441   -0.00062158
     atom  123 type  3   force =    -0.00048233    0.00009537    0.00000841
     atom  124 type  3   force =     0.00048233   -0.00009537   -0.00000841
     atom  125 type  3   force =    -0.00124262    0.00027953   -0.00062769
     atom  126 type  3   force =     0.00124262   -0.00027953    0.00062769

     Total force =     0.008946     Total SCF correction =     0.000140


     Computing stress (Cartesian axis) and pressure

          total   stress  (Ry/bohr**3)                   (kbar)     P=   -5.89
  -0.00004003  -0.00000139   0.00000441         -5.89     -0.20      0.65
  -0.00000139  -0.00003612  -0.00000181         -0.20     -5.31     -0.27
   0.00000441  -0.00000181  -0.00004400          0.65     -0.27     -6.47


     Writing output data file scf.save
 
     init_run     :     69.40s CPU     72.66s WALL (       1 calls)
     electrons    :   2384.92s CPU   2514.76s WALL (       1 calls)
     forces       :     30.77s CPU     31.05s WALL (       1 calls)
     stress       :    215.20s CPU    215.64s WALL (       1 calls)

     Called by init_run:
     wfcinit      :     54.02s CPU     57.08s WALL (       1 calls)
     potinit      :      5.37s CPU      5.41s WALL (       1 calls)

     Called by electrons:
     c_bands      :   2117.62s CPU   2227.98s WALL (      18 calls)
     sum_band     :    244.30s CPU    261.68s WALL (      18 calls)
     v_of_rho     :      3.59s CPU      3.95s WALL (      19 calls)
     newd         :      7.68s CPU      9.40s WALL (      19 calls)
     PAW_pot      :     10.62s CPU     10.63s WALL (      19 calls)
     mix_rho      :      0.84s CPU      0.91s WALL (      18 calls)

     Called by c_bands:
     init_us_2    :     14.37s CPU     14.44s WALL (     312 calls)
     cegterg      :   2062.30s CPU   2172.44s WALL (     144 calls)

     Called by sum_band:
     sum_band:bec :      0.12s CPU      0.12s WALL (     144 calls)
     addusdens    :      8.29s CPU      9.93s WALL (      18 calls)

     Called by *egterg:
     h_psi        :   1259.91s CPU   1352.42s WALL (     705 calls)
     s_psi        :    207.50s CPU    207.48s WALL (     705 calls)
     g_psi        :      7.03s CPU      7.03s WALL (     553 calls)
     cdiaghg      :    120.33s CPU    120.40s WALL (     697 calls)

     Called by h_psi:
     h_psi:pot    :   1251.53s CPU   1343.87s WALL (     705 calls)
     h_psi:calbec :    197.21s CPU    197.60s WALL (     705 calls)
     vloc_psi     :    846.87s CPU    938.79s WALL (     705 calls)
     add_vuspsi   :    207.44s CPU    207.48s WALL (     705 calls)

     General routines
     calbec       :    299.90s CPU    300.58s WALL (     889 calls)
     fft          :      5.23s CPU      5.84s WALL (     271 calls)
     fftw         :    918.01s CPU   1025.04s WALL (  203578 calls)
 
     Parallel routines
     fft_scatter  :    165.62s CPU    272.77s WALL (  203849 calls)
 
     PWSCF        : 45m15.17s CPU    48m22.87s WALL

 
   This run was terminated on:   4:56:31  12Dec2017            

=------------------------------------------------------------------------------=
   JOB DONE.
=------------------------------------------------------------------------------=
