
     Program PWSCF v.6.1 (svn rev. 13369) starts on 14Dec2017 at 18:26:17 

     This program is part of the open-source Quantum ESPRESSO suite
     for quantum simulation of materials; please cite
         "P. Giannozzi et al., J. Phys.:Condens. Matter 21 395502 (2009);
          URL http://www.quantum-espresso.org", 
     in publications or presentations arising from this work. More details at
     http://www.quantum-espresso.org/quote

     Parallel version (MPI), running on     8 processors
     R & G space division:  proc/nbgrp/npool/nimage =       8
     Waiting for input...
     Reading input from standard input

     Current dimensions of program PWSCF are:
     Max number of different atomic species (ntypx) = 10
     Max number of k-points (npk) =  40000
     Max angular momentum in pseudopotentials (lmaxx) =  3
               file C.pbe-n-kjpaw_psl.0.1.UPF: wavefunction(s)  2P renormalized
               file N.pbe-n-kjpaw_psl.0.1.UPF: wavefunction(s)  2P renormalized
               file H.pbe-kjpaw_psl.0.1.UPF: wavefunction(s)  1S renormalized
               file O.pbe-n-kjpaw_psl.0.1.UPF: wavefunction(s)  2P renormalized

     -------------------------------------
     Parameters for Dispersion Correction:
     -------------------------------------
       atom      VdW radius       C_6     

        C          2.744         60.710
        N          2.640         42.670
        H          1.892          4.857
        O          2.536         24.284

     Subspace diagonalization in iterative solution of the eigenvalue problem:
     a serial algorithm will be used

 
     Parallelization info
     --------------------
     sticks:   dense  smooth     PW     G-vecs:    dense   smooth      PW
     Min        1435    1435    374               128039   128039   17102
     Max        1436    1436    375               128041   128041   17105
     Sum       11483   11483   2999              1024321  1024321  136829
 


     bravais-lattice index     =            0
     lattice parameter (alat)  =      11.3176  a.u.
     unit-cell volume          =    7582.6972 (a.u.)^3
     number of atoms/cell      =          124
     number of atomic types    =            4
     number of electrons       =       296.00
     number of Kohn-Sham states=          177
     kinetic-energy cutoff     =     100.0000  Ry
     charge density cutoff     =     400.0000  Ry
     convergence threshold     =      1.0E-08
     mixing beta               =       0.5000
     number of iterations used =            8  plain     mixing
     Exchange-correlation      =  SLA  PW   PBX  PBC ( 1  4  3  4 0 0)

     celldm(1)=  11.317570  celldm(2)=   0.000000  celldm(3)=   0.000000
     celldm(4)=   0.000000  celldm(5)=   0.000000  celldm(6)=   0.000000

     crystal axes: (cart. coord. in units of alat)
               a(1) = (   1.000000   0.000000   0.000000 )  
               a(2) = (   0.000000   2.816831   0.000000 )  
               a(3) = (  -0.240189   0.000000   1.856964 )  

     reciprocal axes: (cart. coord. in units 2 pi/alat)
               b(1) = (  1.000000  0.000000  0.129345 )  
               b(2) = (  0.000000  0.355009  0.000000 )  
               b(3) = (  0.000000  0.000000  0.538514 )  


     PseudoPot. # 1 for  C read from file:
     /scratch/ahofstet/pseudo/C.pbe-n-kjpaw_psl.0.1.UPF
     MD5 check sum: 430fe95172b1e11ef3f8ed03bac87931
     Pseudo is Projector augmented-wave + core cor, Zval =  4.0
     Generated using "atomic" code by A. Dal Corso  v.5.0.99 svn rev. 10869
     Shape of augmentation charge: BESSEL
     Using radial grid of 1073 points,  4 beta functions with: 
                l(1) =   0
                l(2) =   0
                l(3) =   1
                l(4) =   1
     Q(r) pseudized with 0 coefficients 


     PseudoPot. # 2 for  N read from file:
     /scratch/ahofstet/pseudo/N.pbe-n-kjpaw_psl.0.1.UPF
     MD5 check sum: f73187c8b701007e77325f868c9291d7
     Pseudo is Projector augmented-wave + core cor, Zval =  5.0
     Generated using "atomic" code by A. Dal Corso  v.5.0.99 svn rev. 10869
     Shape of augmentation charge: PSQ
     Using radial grid of 1085 points,  4 beta functions with: 
                l(1) =   0
                l(2) =   0
                l(3) =   1
                l(4) =   1
     Q(r) pseudized with 0 coefficients 


     PseudoPot. # 3 for  H read from file:
     /scratch/ahofstet/pseudo/H.pbe-kjpaw_psl.0.1.UPF
     MD5 check sum: 94e484f906d9e9773b2f6e52662335b2
     Pseudo is Projector augmented-wave, Zval =  1.0
     Generated using "atomic" code by A. Dal Corso  v.5.0.99 svn rev. 10869
     Shape of augmentation charge: PSQ
     Using radial grid of  929 points,  2 beta functions with: 
                l(1) =   0
                l(2) =   0
     Q(r) pseudized with 0 coefficients 


     PseudoPot. # 4 for  O read from file:
     /scratch/ahofstet/pseudo/O.pbe-n-kjpaw_psl.0.1.UPF
     MD5 check sum: 3f94a2996a3169367d6eb21d9b593f20
     Pseudo is Projector augmented-wave + core cor, Zval =  6.0
     Generated using "atomic" code by A. Dal Corso  v.5.0.99 svn rev. 10869
     Shape of augmentation charge: BESSEL
     Using radial grid of 1095 points,  4 beta functions with: 
                l(1) =   0
                l(2) =   0
                l(3) =   1
                l(4) =   1
     Q(r) pseudized with 0 coefficients 


     atomic species   valence    mass     pseudopotential
        C              4.00    12.01070      C( 1.00)
        N              5.00    14.00670      N( 1.00)
        H              1.00     1.00794      H( 1.00)
        O              6.00    15.99940      O( 1.00)

      2 Sym. Ops., with inversion, found
          (note:  2 additional sym.ops. were found but ignored
           their fractional translations are incommensurate with FFT grid)


   Cartesian axes

     site n.     atom                  positions (alat units)
         1           C   tau(   1) = (   0.5426837   0.3464394   1.6422320  )
         2           C   tau(   2) = (   0.0970331   1.7548548   1.1432135  )
         3           C   tau(   3) = (   0.2171275   2.4703915   0.2147316  )
         4           C   tau(   4) = (   0.6627781   1.0619761   0.7137502  )
         5           N   tau(   5) = (   0.4215187   0.4725901   1.7904010  )
         6           N   tau(   6) = (   0.2181981   1.8810055   0.9950445  )
         7           N   tau(   7) = (   0.3382925   2.3442408   0.0665626  )
         8           N   tau(   8) = (   0.5416131   0.9358253   0.8619192  )
         9           C   tau(   9) = (   0.2307723   0.5537922   1.6943874  )
        10           C   tau(  10) = (   0.4089445   1.9622076   1.0910580  )
        11           C   tau(  11) = (   0.5290389   2.2630386   0.1625762  )
        12           C   tau(  12) = (   0.3508667   0.8546232   0.7659056  )
        13           C   tau(  13) = (   0.2268255   0.4784816   1.4724344  )
        14           C   tau(  14) = (   0.4128913   1.8868970   1.3130111  )
        15           C   tau(  15) = (   0.5329857   2.3383492   0.3845292  )
        16           C   tau(  16) = (   0.3469199   0.9299338   0.5439526  )
        17           C   tau(  17) = (   0.0750944   0.5089229   1.2933847  )
        18           C   tau(  18) = (   0.5646224   1.9173383   1.4920607  )
        19           C   tau(  19) = (   0.6847168   2.3079080   0.5635789  )
        20           C   tau(  20) = (   0.1951888   0.8994926   0.3649029  )
        21           C   tau(  21) = (   0.1230768   0.4124923   1.0893252  )
        22           C   tau(  22) = (   0.5166399   1.8209077   1.6961202  )
        23           C   tau(  23) = (   0.6367344   2.4043385   0.7676384  )
        24           C   tau(  24) = (   0.2431712   0.9959231   0.1608434  )
        25           C   tau(  25) = (   0.3208338   0.2841193   1.0562634  )
        26           C   tau(  26) = (   0.3188829   1.6925348   1.7291820  )
        27           C   tau(  27) = (   0.4389773   2.5327115   0.8007002  )
        28           C   tau(  28) = (   0.4409283   1.1242961   0.1277816  )
        29           C   tau(  29) = (   0.4713406   0.2489869   1.2277057  )
        30           C   tau(  30) = (   0.1683761   1.6574024   1.5577397  )
        31           C   tau(  31) = (   0.2884705   2.5678439   0.6292579  )
        32           C   tau(  32) = (   0.5914350   1.1594285   0.2992239  )
        33           C   tau(  33) = (   0.4271583   0.3466232   1.4395062  )
        34           C   tau(  34) = (   0.2125585   1.7550387   1.3459392  )
        35           C   tau(  35) = (   0.3326529   2.4702076   0.4174574  )
        36           C   tau(  36) = (   0.5472527   1.0617922   0.5110244  )
        37           C   tau(  37) = (   0.7297326   0.5145158   0.1639264  )
        38           C   tau(  38) = (   0.1501730   1.9229312   0.7645554  )
        39           C   tau(  39) = (   0.0300786   2.3023151   1.6930372  )
        40           C   tau(  40) = (   0.6096382   0.8938997   1.0924082  )
        41           C   tau(  41) = (   0.6671836   0.3277567   0.3314253  )
        42           C   tau(  42) = (   0.2127220   1.7361722   0.5970565  )
        43           C   tau(  43) = (   0.0926276   2.4890741   1.5255383  )
        44           C   tau(  44) = (   0.5470892   1.0806587   1.2599071  )
        45           C   tau(  45) = (   0.7677064   0.1009998   0.2632585  )
        46           C   tau(  46) = (   0.1121992   1.5094152   0.6652233  )
        47           C   tau(  47) = (  -0.0078952   2.7158311   1.5937052  )
        48           C   tau(  48) = (   0.6476120   1.3074156   1.1917403  )
        49           C   tau(  49) = (   0.7599450   0.4022454   0.5597273  )
        50           C   tau(  50) = (   0.1199606   1.8106608   0.3687546  )
        51           C   tau(  51) = (  -0.0001338   2.4145855   1.2972364  )
        52           C   tau(  52) = (   0.6398505   1.0061701   1.4882091  )
        53           C   tau(  53) = (   0.4156181   0.3058738   0.3464875  )
        54           C   tau(  54) = (   0.4642875   1.7142892   0.5819943  )
        55           C   tau(  55) = (   0.3441931   2.5109571   1.5104762  )
        56           C   tau(  56) = (   0.2955237   1.1025416   1.2749693  )
        57           H   tau(  57) = (   0.6966339   0.2660249   1.6923467  )
        58           H   tau(  58) = (  -0.0569171   1.6744403   1.0930988  )
        59           H   tau(  59) = (   0.0631773   2.5508060   0.1646169  )
        60           H   tau(  60) = (   0.8167283   1.1423905   0.7638649  )
        61           H   tau(  61) = (   0.1221272   0.6651763   1.7869387  )
        62           H   tau(  62) = (   0.5175895   2.0735918   0.9985067  )
        63           H   tau(  63) = (   0.6376840   2.1516545   0.0700249  )
        64           H   tau(  64) = (   0.2422216   0.7432391   0.8584569  )
        65           H   tau(  65) = (  -0.0779247   0.6046341   1.3169676  )
        66           H   tau(  66) = (   0.7176415   2.0130496   1.4684778  )
        67           H   tau(  67) = (   0.8377359   2.2121967   0.5399960  )
        68           H   tau(  68) = (   0.0421697   0.8037813   0.3884858  )
        69           H   tau(  69) = (   0.0049946   0.4319752   0.9519562  )
        70           H   tau(  70) = (   0.6347222   1.8403906   1.8334892  )
        71           H   tau(  71) = (   0.7548166   2.3848557   0.9050074  )
        72           H   tau(  72) = (   0.1250890   0.9764403   0.0234744  )
        73           H   tau(  73) = (   0.3511265   0.2091523   0.8930388  )
        74           H   tau(  74) = (   0.5287791   1.6175677   0.0354430  )
        75           H   tau(  75) = (   0.4086847   2.6076785   0.9639248  )
        76           H   tau(  76) = (   0.2310321   1.1992631   1.8215206  )
        77           H   tau(  77) = (   0.6197698   0.1465589   1.2029911  )
        78           H   tau(  78) = (   0.0199470   1.5549743   1.5824543  )
        79           H   tau(  79) = (   0.1400414   2.6702720   0.6539725  )
        80           H   tau(  80) = (   0.7398642   1.2618566   0.2745093  )
        81           H   tau(  81) = (   0.9120970   0.5373106   0.1635537  )
        82           H   tau(  82) = (  -0.0321914   1.9457260   0.7649281  )
        83           H   tau(  83) = (  -0.1522858   2.2795203   1.6934099  )
        84           H   tau(  84) = (   0.7920026   0.8711049   1.0920355  )
        85           H   tau(  85) = (   0.6516109   0.6720931   0.2173929  )
        86           H   tau(  86) = (   0.2282947   2.0805086   0.7110889  )
        87           H   tau(  87) = (   0.1082003   2.1447377   1.6395707  )
        88           H   tau(  88) = (   0.5315165   0.7363223   1.1458747  )
        89           H   tau(  89) = (   0.9500605   0.1095468   0.2453044  )
        90           H   tau(  90) = (  -0.0701549   1.5179622   0.6831774  )
        91           H   tau(  91) = (  -0.1902494   2.7072841   1.6116593  )
        92           H   tau(  92) = (   0.8299661   1.2988686   1.1737862  )
        93           H   tau(  93) = (   0.7279105   2.7910891   0.3900410  )
        94           H   tau(  94) = (   0.1519951   1.3826737   0.5384408  )
        95           H   tau(  95) = (   0.0319007   0.0257418   1.4669226  )
        96           H   tau(  96) = (   0.6078160   1.4341572   1.3185228  )
        97           H   tau(  97) = (   0.6968234   0.0444054   0.1036022  )
        98           H   tau(  98) = (   0.1830822   1.4528208   0.8248796  )
        99           H   tau(  99) = (   0.0629878   2.7724255   1.7533614  )
       100           H   tau( 100) = (   0.5767290   1.3640100   1.0320840  )
       101           H   tau( 101) = (   0.6850886   0.5623196   0.6105210  )
       102           H   tau( 102) = (   0.1948170   1.9707350   0.3179608  )
       103           H   tau( 103) = (   0.0747226   2.2545113   1.2464426  )
       104           H   tau( 104) = (   0.5649942   0.8460959   1.5390028  )
       105           H   tau( 105) = (   0.7186175   0.2768105   0.6874411  )
       106           H   tau( 106) = (   0.1612880   1.6852259   0.2410407  )
       107           H   tau( 107) = (   0.0411936   2.5400204   1.1695225  )
       108           H   tau( 108) = (   0.5985231   1.1316050   1.6159229  )
       109           H   tau( 109) = (   0.9424281   0.4213075   0.5546197  )
       110           H   tau( 110) = (  -0.0625225   1.8297230   0.3738621  )
       111           H   tau( 111) = (  -0.1826169   2.3955233   1.3023439  )
       112           H   tau( 112) = (   0.8223337   0.9871079   1.4831016  )
       113           H   tau( 113) = (   0.3428103   0.2566511   0.1848587  )
       114           H   tau( 114) = (   0.5370952   1.6650665   0.7436231  )
       115           H   tau( 115) = (   0.4170008   2.5601797   1.6721050  )
       116           H   tau( 116) = (   0.2227159   1.1517643   1.1133405  )
       117           H   tau( 117) = (   0.3694022   0.1770601   0.4693167  )
       118           H   tau( 118) = (   0.5105034   1.5854755   0.4591651  )
       119           H   tau( 119) = (   0.3904090   2.6397708   1.3876469  )
       120           H   tau( 120) = (   0.2493078   1.2313553   1.3977985  )
       121           H   tau( 121) = (   0.3380226   0.4649728   0.3967821  )
       122           H   tau( 122) = (   0.5418830   1.8733883   0.5316997  )
       123           H   tau( 123) = (   0.4217886   2.3518580   1.4601815  )
       124           H   tau( 124) = (   0.2179282   0.9434426   1.3252639  )

     number of k points=     4
                       cart. coord. in units 2pi/alat
        k(    1) = (   0.0000000   0.0000000   0.0000000), wk =   0.3333333
        k(    2) = (   0.0000000   0.0000000  -0.2692568), wk =   0.3333333
        k(    3) = (   0.3333333   0.0000000   0.0431150), wk =   0.6666667
        k(    4) = (   0.3333333   0.0000000  -0.2261418), wk =   0.6666667

     Dense  grid:  1024321 G-vectors     FFT dimensions: (  75, 216, 135)

     Estimated max dynamical RAM per process >     797.54MB

     Estimated total allocated dynamical RAM >    6380.34MB

     Check: negative/imaginary core charge=   -0.000002    0.000000

     Initial potential from superposition of free atoms

     starting charge  295.99716, renormalised to  296.00000
     Starting wfc are  292 randomized atomic wfcs
     Checking if some PAW data can be deallocated... 

     total cpu time spent up to now is       42.8 secs

     per-process dynamical memory:   490.5 Mb

     Self-consistent Calculation

     iteration #  1     ecut=   100.00 Ry     beta=0.50
     Davidson diagonalization with overlap
     ethr =  1.00E-02,  avg # of iterations =  5.0

     total cpu time spent up to now is      138.5 secs

     total energy              =   -1150.46616617 Ry
     Harris-Foulkes estimate   =   -1157.53810380 Ry
     estimated scf accuracy    <      13.43552499 Ry

     iteration #  2     ecut=   100.00 Ry     beta=0.50
     Davidson diagonalization with overlap
     ethr =  4.54E-03,  avg # of iterations =  2.0

     total cpu time spent up to now is      184.6 secs

     total energy              =   -1150.28212809 Ry
     Harris-Foulkes estimate   =   -1151.31223830 Ry
     estimated scf accuracy    <       1.83837198 Ry

     iteration #  3     ecut=   100.00 Ry     beta=0.50
     Davidson diagonalization with overlap
     ethr =  6.21E-04,  avg # of iterations =  5.0

     total cpu time spent up to now is      296.1 secs

     total energy              =   -1153.23097059 Ry
     Harris-Foulkes estimate   =   -1153.99803449 Ry
     estimated scf accuracy    <       4.27334948 Ry

     iteration #  4     ecut=   100.00 Ry     beta=0.50
     Davidson diagonalization with overlap
     ethr =  6.21E-04,  avg # of iterations =  1.8

     total cpu time spent up to now is      340.7 secs

     total energy              =   -1151.43627497 Ry
     Harris-Foulkes estimate   =   -1153.25686070 Ry
     estimated scf accuracy    <       2.90933817 Ry

     iteration #  5     ecut=   100.00 Ry     beta=0.50
     Davidson diagonalization with overlap
     ethr =  6.21E-04,  avg # of iterations =  6.5

     total cpu time spent up to now is      435.8 secs

     total energy              =   -1152.58975779 Ry
     Harris-Foulkes estimate   =   -1152.84408745 Ry
     estimated scf accuracy    <       0.71396238 Ry

     iteration #  6     ecut=   100.00 Ry     beta=0.50
     Davidson diagonalization with overlap
     ethr =  2.41E-04,  avg # of iterations =  1.8

     total cpu time spent up to now is      480.5 secs

     total energy              =   -1152.44909449 Ry
     Harris-Foulkes estimate   =   -1152.61344213 Ry
     estimated scf accuracy    <       0.28106726 Ry

     iteration #  7     ecut=   100.00 Ry     beta=0.50
     Davidson diagonalization with overlap
     ethr =  9.50E-05,  avg # of iterations =  7.0

     total cpu time spent up to now is      571.6 secs

     total energy              =   -1152.59842046 Ry
     Harris-Foulkes estimate   =   -1152.63929243 Ry
     estimated scf accuracy    <       0.08601781 Ry

     iteration #  8     ecut=   100.00 Ry     beta=0.50
     Davidson diagonalization with overlap
     ethr =  2.91E-05,  avg # of iterations =  2.0

     total cpu time spent up to now is      617.4 secs

     total energy              =   -1152.59007838 Ry
     Harris-Foulkes estimate   =   -1152.60291045 Ry
     estimated scf accuracy    <       0.01972824 Ry

     iteration #  9     ecut=   100.00 Ry     beta=0.50
     Davidson diagonalization with overlap
     ethr =  6.66E-06,  avg # of iterations =  5.0

     total cpu time spent up to now is      719.5 secs

     total energy              =   -1152.61334910 Ry
     Harris-Foulkes estimate   =   -1152.62271149 Ry
     estimated scf accuracy    <       0.03119420 Ry

     iteration # 10     ecut=   100.00 Ry     beta=0.50
     Davidson diagonalization with overlap
     ethr =  6.66E-06,  avg # of iterations =  1.0

     total cpu time spent up to now is      763.8 secs

     total energy              =   -1152.60699362 Ry
     Harris-Foulkes estimate   =   -1152.61388499 Ry
     estimated scf accuracy    <       0.01519839 Ry

     iteration # 11     ecut=   100.00 Ry     beta=0.50
     Davidson diagonalization with overlap
     ethr =  5.13E-06,  avg # of iterations =  3.0

     total cpu time spent up to now is      833.4 secs

     total energy              =   -1152.61253799 Ry
     Harris-Foulkes estimate   =   -1152.61253285 Ry
     estimated scf accuracy    <       0.00032371 Ry

     iteration # 12     ecut=   100.00 Ry     beta=0.50
     Davidson diagonalization with overlap
     c_bands:  2 eigenvalues not converged
     ethr =  1.09E-07,  avg # of iterations = 10.5

     total cpu time spent up to now is      927.5 secs

     total energy              =   -1152.61253157 Ry
     Harris-Foulkes estimate   =   -1152.61269263 Ry
     estimated scf accuracy    <       0.00043276 Ry

     iteration # 13     ecut=   100.00 Ry     beta=0.50
     Davidson diagonalization with overlap
     ethr =  1.09E-07,  avg # of iterations =  1.2

     total cpu time spent up to now is      971.9 secs

     total energy              =   -1152.61243795 Ry
     Harris-Foulkes estimate   =   -1152.61254414 Ry
     estimated scf accuracy    <       0.00015897 Ry

     iteration # 14     ecut=   100.00 Ry     beta=0.50
     Davidson diagonalization with overlap
     ethr =  5.37E-08,  avg # of iterations =  4.0

     total cpu time spent up to now is     1055.0 secs

     total energy              =   -1152.61254041 Ry
     Harris-Foulkes estimate   =   -1152.61258853 Ry
     estimated scf accuracy    <       0.00012720 Ry

     iteration # 15     ecut=   100.00 Ry     beta=0.50
     Davidson diagonalization with overlap
     ethr =  4.30E-08,  avg # of iterations =  1.0

     total cpu time spent up to now is     1099.0 secs

     total energy              =   -1152.61252497 Ry
     Harris-Foulkes estimate   =   -1152.61254422 Ry
     estimated scf accuracy    <       0.00004682 Ry

     iteration # 16     ecut=   100.00 Ry     beta=0.50
     Davidson diagonalization with overlap
     ethr =  1.58E-08,  avg # of iterations =  4.0

     total cpu time spent up to now is     1172.3 secs

     total energy              =   -1152.61255195 Ry
     Harris-Foulkes estimate   =   -1152.61254918 Ry
     estimated scf accuracy    <       0.00000277 Ry

     iteration # 17     ecut=   100.00 Ry     beta=0.50
     Davidson diagonalization with overlap
     ethr =  9.37E-10,  avg # of iterations =  5.8

     total cpu time spent up to now is     1254.9 secs

     total energy              =   -1152.61254806 Ry
     Harris-Foulkes estimate   =   -1152.61255337 Ry
     estimated scf accuracy    <       0.00001508 Ry

     iteration # 18     ecut=   100.00 Ry     beta=0.50
     Davidson diagonalization with overlap
     ethr =  9.37E-10,  avg # of iterations =  5.8

     total cpu time spent up to now is     1321.8 secs

     total energy              =   -1152.61254817 Ry
     Harris-Foulkes estimate   =   -1152.61254914 Ry
     estimated scf accuracy    <       0.00000246 Ry

     iteration # 19     ecut=   100.00 Ry     beta=0.50
     Davidson diagonalization with overlap
     ethr =  8.32E-10,  avg # of iterations =  3.2

     total cpu time spent up to now is     1372.4 secs

     total energy              =   -1152.61254815 Ry
     Harris-Foulkes estimate   =   -1152.61254838 Ry
     estimated scf accuracy    <       0.00000066 Ry

     iteration # 20     ecut=   100.00 Ry     beta=0.50
     Davidson diagonalization with overlap
     ethr =  2.22E-10,  avg # of iterations =  4.8

     total cpu time spent up to now is     1452.2 secs

     total energy              =   -1152.61254853 Ry
     Harris-Foulkes estimate   =   -1152.61254855 Ry
     estimated scf accuracy    <       0.00000003 Ry

     iteration # 21     ecut=   100.00 Ry     beta=0.50
     Davidson diagonalization with overlap
     ethr =  1.06E-11,  avg # of iterations =  4.0

     total cpu time spent up to now is     1541.6 secs

     total energy              =   -1152.61254857 Ry
     Harris-Foulkes estimate   =   -1152.61254857 Ry
     estimated scf accuracy    <       0.00000005 Ry

     iteration # 22     ecut=   100.00 Ry     beta=0.50
     Davidson diagonalization with overlap
     ethr =  1.06E-11,  avg # of iterations =  1.0

     total cpu time spent up to now is     1585.7 secs

     total energy              =   -1152.61254855 Ry
     Harris-Foulkes estimate   =   -1152.61254857 Ry
     estimated scf accuracy    <       0.00000005 Ry

     iteration # 23     ecut=   100.00 Ry     beta=0.50
     Davidson diagonalization with overlap
     ethr =  1.06E-11,  avg # of iterations =  4.0

     total cpu time spent up to now is     1636.1 secs

     End of self-consistent calculation

          k = 0.0000 0.0000 0.0000 (127957 PWs)   bands (ev):

   -19.1125 -19.1112 -19.1069 -19.1056 -15.4906 -15.4749 -15.4292 -15.4141
   -14.8063 -14.7722 -14.7716 -14.7327 -13.3506 -13.3272 -13.3203 -13.2975
   -12.9694 -12.9585 -12.9452 -12.9363 -11.8116 -11.7793 -11.7761 -11.7405
   -11.4314 -11.4196 -11.4194 -11.4032 -11.1901 -11.1836 -11.1420 -11.1391
   -11.0124 -11.0063 -10.9866 -10.9828  -9.3061  -9.2917  -9.2379  -9.2201
    -8.8161  -8.7875  -8.7713  -8.7465  -8.2093  -8.1921  -8.1775  -8.1194
    -7.7686  -7.7488  -7.7019  -7.6184  -6.9873  -6.9263  -6.8177  -6.8032
    -6.3037  -6.2827  -6.2536  -6.2347  -6.2124  -6.1860  -6.1026  -5.9870
    -5.9789  -5.9126  -5.8163  -5.7526  -5.3795  -5.3215  -5.3089  -5.2793
    -4.8976  -4.8751  -4.8625  -4.8112  -4.7866  -4.7598  -4.7026  -4.6738
    -4.5154  -4.4512  -4.4325  -4.4258  -4.3906  -4.3587  -4.3546  -4.3142
    -4.2999  -4.2327  -4.1271  -4.1118  -3.9468  -3.9458  -3.9453  -3.9445
    -3.8031  -3.7747  -3.7567  -3.7197  -3.4732  -3.4573  -3.4274  -3.4044
    -3.2364  -3.2296  -3.2071  -3.1960  -3.1582  -3.1551  -3.0469  -3.0417
    -3.0282  -3.0103  -2.7412  -2.7330  -2.6842  -2.6661  -2.6398  -2.5481
    -2.3310  -2.3198  -2.2543  -2.1988  -2.1582  -2.1153  -1.9759  -1.9720
    -1.9616  -1.9596  -1.8920  -1.8631  -1.8540  -1.8522  -1.7767  -1.7495
    -1.0943  -1.0598  -1.0017  -0.9928  -0.1956  -0.1332  -0.1273  -0.0580
     1.0056   1.0684   1.0922   1.1405   3.9268   3.9674   4.0071   4.0242
     5.2967   5.3436   5.3558   5.4621   5.5169   5.5528   5.8110   5.9807
     6.0204   6.0401   6.0631   6.3247   6.4904   6.5027   6.6180   6.6950
     6.8609   6.8981   7.0463   7.0658   7.1185   7.2338   7.3257   7.4842
     7.4957

          k = 0.0000 0.0000-0.2693 (127982 PWs)   bands (ev):

   -19.1097 -19.1097 -19.1084 -19.1084 -15.4733 -15.4733 -15.4471 -15.4471
   -14.7642 -14.7642 -14.7367 -14.7367 -13.3571 -13.3571 -13.3542 -13.3542
   -12.9580 -12.9580 -12.9453 -12.9453 -11.7751 -11.7751 -11.7697 -11.7697
   -11.4296 -11.4296 -11.4006 -11.4006 -11.1311 -11.1311 -11.0890 -11.0890
   -11.0147 -11.0147 -10.9901 -10.9901  -9.3575  -9.3575  -9.3134  -9.3134
    -8.8046  -8.8046  -8.7529  -8.7529  -8.2375  -8.2375  -8.1603  -8.1603
    -7.7473  -7.7473  -7.6142  -7.6142  -6.9234  -6.9234  -6.8318  -6.8318
    -6.2571  -6.2571  -6.2483  -6.2483  -6.0616  -6.0616  -6.0222  -6.0222
    -5.8685  -5.8685  -5.8305  -5.8305  -5.3671  -5.3671  -5.3356  -5.3355
    -4.9146  -4.9146  -4.8414  -4.8414  -4.7692  -4.7692  -4.7534  -4.7534
    -4.4749  -4.4749  -4.4254  -4.4254  -4.4071  -4.4071  -4.3422  -4.3422
    -4.3309  -4.3309  -4.1692  -4.1692  -3.9037  -3.9037  -3.8516  -3.8516
    -3.8146  -3.8146  -3.8009  -3.8009  -3.4600  -3.4600  -3.3885  -3.3885
    -3.2856  -3.2856  -3.2109  -3.2109  -3.1762  -3.1762  -3.0716  -3.0716
    -2.9059  -2.9059  -2.7323  -2.7323  -2.7275  -2.7275  -2.5901  -2.5901
    -2.2516  -2.2516  -2.1902  -2.1902  -2.1030  -2.1030  -1.9760  -1.9760
    -1.9584  -1.9584  -1.8834  -1.8834  -1.8621  -1.8621  -1.8269  -1.8269
    -1.0828  -1.0828  -1.0015  -1.0015  -0.1243  -0.1243  -0.1075  -0.1075
     1.0667   1.0667   1.0816   1.0816   3.9816   3.9816   4.0241   4.0241
     5.4230   5.4230   5.4437   5.4437   5.5180   5.5180   5.6395   5.6395
     5.9972   5.9972   6.2282   6.2282   6.5391   6.5391   6.7191   6.7191
     6.8624   6.8624   7.0476   7.0476   7.1417   7.1417   7.3446   7.3447
     7.5549

          k = 0.3333 0.0000 0.0431 (128072 PWs)   bands (ev):

   -19.1105 -19.1096 -19.1055 -19.1046 -15.4698 -15.4570 -15.4313 -15.4190
   -14.7733 -14.7599 -14.7411 -14.7256 -13.3444 -13.3330 -13.3284 -13.3168
   -13.0070 -13.0025 -12.9827 -12.9748 -11.8234 -11.8027 -11.7789 -11.7627
   -11.4336 -11.4291 -11.4226 -11.4124 -11.1643 -11.1494 -11.1350 -11.1169
   -11.0943 -11.0763 -11.0632 -11.0601  -9.3091  -9.3009  -9.2874  -9.2766
    -8.8183  -8.7812  -8.7765  -8.7388  -8.1330  -8.1193  -8.0859  -8.0792
    -7.7070  -7.6265  -7.6192  -7.5274  -6.9508  -6.8630  -6.8209  -6.7479
    -6.2432  -6.2226  -6.2122  -6.1876  -6.0980  -6.0848  -6.0360  -6.0126
    -5.9188  -5.9126  -5.7914  -5.7516  -5.3563  -5.3155  -5.2601  -5.2299
    -5.0027  -4.8956  -4.8873  -4.8448  -4.8164  -4.8089  -4.7581  -4.7531
    -4.5493  -4.5379  -4.4755  -4.4673  -4.4508  -4.4215  -4.4118  -4.3571
    -4.3266  -4.3056  -4.1920  -4.1039  -3.9963  -3.9951  -3.9812  -3.9662
    -3.8425  -3.8202  -3.7838  -3.7315  -3.4658  -3.4626  -3.4061  -3.3932
    -3.2337  -3.1556  -3.1423  -3.1221  -3.0836  -3.0281  -2.9549  -2.9503
    -2.8962  -2.8747  -2.7673  -2.7636  -2.6972  -2.6888  -2.6701  -2.6069
    -2.3351  -2.2831  -2.2450  -2.2048  -2.1869  -2.1652  -2.1133  -2.0957
    -2.0844  -2.0214  -1.9993  -1.9628  -1.9370  -1.9057  -1.8323  -1.7942
    -0.9181  -0.8774  -0.8601  -0.8406  -0.2035  -0.1524  -0.1260  -0.0631
     1.0793   1.1351   1.1531   1.1962   3.8711   3.9422   4.0213   4.0555
     5.2936   5.3396   5.4113   5.4527   5.4773   5.5822   5.7075   5.7734
     5.7900   5.9274   6.1311   6.3840   6.4736   6.6160   6.6321   6.6573
     6.7221   6.7660   6.9146   6.9400   7.0042   7.0305   7.1913   7.2819
     7.2824

          k = 0.3333 0.0000-0.2261 (128107 PWs)   bands (ev):

   -19.1081 -19.1078 -19.1073 -19.1069 -15.4647 -15.4518 -15.4418 -15.4286
   -14.7617 -14.7488 -14.7392 -14.7258 -13.3509 -13.3408 -13.3381 -13.3313
   -12.9995 -12.9985 -12.9851 -12.9797 -11.8029 -11.7995 -11.7780 -11.7755
   -11.4230 -11.4175 -11.3933 -11.3918 -11.1730 -11.1670 -11.1419 -11.1356
   -11.0891 -11.0864 -11.0647 -11.0641  -9.3295  -9.3018  -9.2840  -9.2522
    -8.8036  -8.8007  -8.7520  -8.7457  -8.1380  -8.1263  -8.1042  -8.0804
    -7.6774  -7.6506  -7.5848  -7.5619  -6.9533  -6.8911  -6.7864  -6.7285
    -6.2694  -6.2454  -6.2452  -6.2272  -6.1430  -6.0720  -6.0612  -5.9756
    -5.8631  -5.8472  -5.8091  -5.8069  -5.3499  -5.2958  -5.2561  -5.2015
    -4.9589  -4.8862  -4.8605  -4.8600  -4.7966  -4.7847  -4.7831  -4.7513
    -4.5695  -4.5288  -4.4899  -4.4585  -4.4336  -4.4032  -4.4005  -4.3730
    -4.3616  -4.3142  -4.1997  -4.1900  -3.9897  -3.9490  -3.9417  -3.9308
    -3.8313  -3.8232  -3.7961  -3.7655  -3.4705  -3.4696  -3.3857  -3.3843
    -3.2121  -3.1959  -3.1914  -3.1757  -3.0299  -3.0018  -2.9616  -2.9615
    -2.8382  -2.8352  -2.7455  -2.7289  -2.7197  -2.6913  -2.6179  -2.6019
    -2.3603  -2.3466  -2.2991  -2.2217  -2.1847  -2.1768  -2.1149  -2.1130
    -2.0442  -2.0370  -1.9886  -1.9743  -1.9369  -1.9271  -1.8496  -1.8495
    -0.9124  -0.9004  -0.8464  -0.8410  -0.1297  -0.1263  -0.1007  -0.0977
     1.1319   1.1339   1.1474   1.1476   3.9115   3.9644   3.9947   3.9966
     5.3536   5.3931   5.4337   5.4599   5.5176   5.5742   5.5942   5.6639
     5.8489   5.8566   6.0576   6.4728   6.5387   6.5467   6.6522   6.7042
     6.7397   6.8033   6.9603   7.0133   7.0930   7.1978   7.2323   7.2831
     7.2882

     highest occupied, lowest unoccupied level (ev):     1.1962    3.8711

!    total energy              =   -1152.61254854 Ry
     Harris-Foulkes estimate   =   -1152.61254855 Ry
     estimated scf accuracy    <          9.0E-09 Ry

     total all-electron energy =     -4481.540732 Ry

     The total energy is the sum of the following terms:

     one-electron contribution =    -697.99102691 Ry
     hartree contribution      =     448.73181791 Ry
     xc contribution           =    -285.87900668 Ry
     ewald contribution        =    -237.92218982 Ry
     Dispersion Correction     =      -0.53975890 Ry
     one-center paw contrib.   =    -379.01238414 Ry

     convergence has been achieved in  23 iterations

     Forces acting on atoms (cartesian axes, Ry/au):

     atom    1 type  1   force =    -0.00345954    0.00354416    0.00015403
     atom    2 type  1   force =     0.00345914    0.00354433   -0.00014993
     atom    3 type  1   force =     0.00345954   -0.00354416   -0.00015403
     atom    4 type  1   force =    -0.00345914   -0.00354433    0.00014993
     atom    5 type  2   force =     0.00522883   -0.00218052    0.00104995
     atom    6 type  2   force =    -0.00523004   -0.00218008   -0.00105055
     atom    7 type  2   force =    -0.00522883    0.00218052   -0.00104995
     atom    8 type  2   force =     0.00523004    0.00218008    0.00105055
     atom    9 type  1   force =     0.00045065   -0.00167047   -0.00789146
     atom   10 type  1   force =    -0.00044984   -0.00166993    0.00790838
     atom   11 type  1   force =    -0.00045065    0.00167047    0.00789146
     atom   12 type  1   force =     0.00044984    0.00166993   -0.00790838
     atom   13 type  1   force =    -0.00286924    0.00575292    0.00621145
     atom   14 type  1   force =     0.00286844    0.00575234   -0.00621547
     atom   15 type  1   force =     0.00286924   -0.00575292   -0.00621145
     atom   16 type  1   force =    -0.00286844   -0.00575234    0.00621547
     atom   17 type  1   force =     0.00152692   -0.00188144   -0.00045717
     atom   18 type  1   force =    -0.00152661   -0.00188108    0.00046727
     atom   19 type  1   force =    -0.00152692    0.00188144    0.00045717
     atom   20 type  1   force =     0.00152661    0.00188108   -0.00046727
     atom   21 type  1   force =    -0.00378721    0.00036793    0.00449418
     atom   22 type  1   force =     0.00378712    0.00036744   -0.00448070
     atom   23 type  1   force =     0.00378721   -0.00036793   -0.00449418
     atom   24 type  1   force =    -0.00378712   -0.00036744    0.00448070
     atom   25 type  1   force =     0.00126031   -0.00433217    0.00155965
     atom   26 type  1   force =    -0.00125877   -0.00433178   -0.00157400
     atom   27 type  1   force =    -0.00126031    0.00433217   -0.00155965
     atom   28 type  1   force =     0.00125877    0.00433178    0.00157400
     atom   29 type  1   force =    -0.00664183    0.00289199    0.00254299
     atom   30 type  1   force =     0.00664155    0.00289254   -0.00252645
     atom   31 type  1   force =     0.00664183   -0.00289199   -0.00254299
     atom   32 type  1   force =    -0.00664155   -0.00289254    0.00252645
     atom   33 type  1   force =     0.00514786   -0.00466544   -0.00455058
     atom   34 type  1   force =    -0.00514844   -0.00466640    0.00453708
     atom   35 type  1   force =    -0.00514786    0.00466544    0.00455058
     atom   36 type  1   force =     0.00514844    0.00466640   -0.00453708
     atom   37 type  1   force =     0.00065822   -0.00274346   -0.00060877
     atom   38 type  1   force =    -0.00065829   -0.00274407    0.00059370
     atom   39 type  1   force =    -0.00065822    0.00274346    0.00060877
     atom   40 type  1   force =     0.00065829    0.00274407   -0.00059370
     atom   41 type  1   force =     0.01490690   -0.00036473    0.00064345
     atom   42 type  1   force =    -0.01490737   -0.00036475   -0.00063535
     atom   43 type  1   force =    -0.01490690    0.00036473   -0.00064345
     atom   44 type  1   force =     0.01490737    0.00036475    0.00063535
     atom   45 type  1   force =    -0.00305206    0.00477584    0.00238791
     atom   46 type  1   force =     0.00305181    0.00477646   -0.00237123
     atom   47 type  1   force =     0.00305206   -0.00477584   -0.00238791
     atom   48 type  1   force =    -0.00305181   -0.00477646    0.00237123
     atom   49 type  1   force =    -0.00357953   -0.00292226   -0.00402121
     atom   50 type  1   force =     0.00358048   -0.00292288    0.00399999
     atom   51 type  1   force =     0.00357953    0.00292226    0.00402121
     atom   52 type  1   force =    -0.00358048    0.00292288   -0.00399999
     atom   53 type  1   force =    -0.02270982   -0.00084546    0.00098129
     atom   54 type  1   force =     0.02270768   -0.00084588   -0.00096233
     atom   55 type  1   force =     0.02270982    0.00084546   -0.00098129
     atom   56 type  1   force =    -0.02270768    0.00084588    0.00096233
     atom   57 type  3   force =     0.00205526    0.00216459   -0.00056297
     atom   58 type  3   force =    -0.00205532    0.00216453    0.00056303
     atom   59 type  3   force =    -0.00205526   -0.00216459    0.00056297
     atom   60 type  3   force =     0.00205532   -0.00216453   -0.00056303
     atom   61 type  3   force =    -0.00061043   -0.00194108    0.00023844
     atom   62 type  3   force =     0.00061044   -0.00194106   -0.00023825
     atom   63 type  3   force =     0.00061043    0.00194108   -0.00023844
     atom   64 type  3   force =    -0.00061044    0.00194106    0.00023825
     atom   65 type  3   force =    -0.00073180   -0.00115420    0.00123164
     atom   66 type  3   force =     0.00073180   -0.00115422   -0.00123117
     atom   67 type  3   force =     0.00073180    0.00115420   -0.00123164
     atom   68 type  3   force =    -0.00073180    0.00115422    0.00123117
     atom   69 type  3   force =     0.00135819   -0.00037007   -0.00109300
     atom   70 type  3   force =    -0.00135787   -0.00037014    0.00109299
     atom   71 type  3   force =    -0.00135819    0.00037007    0.00109300
     atom   72 type  3   force =     0.00135787    0.00037014   -0.00109299
     atom   73 type  3   force =     0.00049152    0.00055321   -0.00024056
     atom   74 type  3   force =    -0.00049125    0.00055364    0.00024041
     atom   75 type  3   force =    -0.00049152   -0.00055321    0.00024056
     atom   76 type  3   force =     0.00049125   -0.00055364   -0.00024041
     atom   77 type  3   force =     0.00232221    0.00131219   -0.00152868
     atom   78 type  3   force =    -0.00232210    0.00131226    0.00152865
     atom   79 type  3   force =    -0.00232221   -0.00131219    0.00152868
     atom   80 type  3   force =     0.00232210   -0.00131226   -0.00152865
     atom   81 type  3   force =    -0.00067079   -0.00054107    0.00038616
     atom   82 type  3   force =     0.00067076   -0.00054104   -0.00038599
     atom   83 type  3   force =     0.00067079    0.00054107   -0.00038616
     atom   84 type  3   force =    -0.00067076    0.00054104    0.00038599
     atom   85 type  3   force =     0.00089342   -0.00069078   -0.00076579
     atom   86 type  3   force =    -0.00089338   -0.00069073    0.00076605
     atom   87 type  3   force =    -0.00089342    0.00069078    0.00076579
     atom   88 type  3   force =     0.00089338    0.00069073   -0.00076605
     atom   89 type  3   force =     0.00319442    0.00247863    0.00078009
     atom   90 type  3   force =    -0.00319436    0.00247862   -0.00077974
     atom   91 type  3   force =    -0.00319442   -0.00247863   -0.00078009
     atom   92 type  3   force =     0.00319436   -0.00247862    0.00077974
     atom   93 type  3   force =    -0.00045537    0.00024476    0.00045967
     atom   94 type  3   force =     0.00045523    0.00024483   -0.00046001
     atom   95 type  3   force =     0.00045537   -0.00024476   -0.00045967
     atom   96 type  3   force =    -0.00045523   -0.00024483    0.00046001
     atom   97 type  3   force =     0.00028286   -0.00034768    0.00015582
     atom   98 type  3   force =    -0.00028249   -0.00034780   -0.00015528
     atom   99 type  3   force =    -0.00028286    0.00034768   -0.00015582
     atom  100 type  3   force =     0.00028249    0.00034780    0.00015528
     atom  101 type  3   force =     0.00037324    0.00010679    0.00032184
     atom  102 type  3   force =    -0.00037322    0.00010671   -0.00032209
     atom  103 type  3   force =    -0.00037324   -0.00010679   -0.00032184
     atom  104 type  3   force =     0.00037322   -0.00010671    0.00032209
     atom  105 type  3   force =     0.00035720    0.00065311   -0.00028425
     atom  106 type  3   force =    -0.00035710    0.00065278    0.00028425
     atom  107 type  3   force =    -0.00035720   -0.00065311    0.00028425
     atom  108 type  3   force =     0.00035710   -0.00065278   -0.00028425
     atom  109 type  3   force =     0.00225096   -0.00050423   -0.00130661
     atom  110 type  3   force =    -0.00225065   -0.00050427    0.00130646
     atom  111 type  3   force =    -0.00225096    0.00050423    0.00130661
     atom  112 type  3   force =     0.00225065    0.00050427   -0.00130646
     atom  113 type  3   force =     0.00192229   -0.00006174    0.00028586
     atom  114 type  3   force =    -0.00192269   -0.00006197   -0.00028555
     atom  115 type  3   force =    -0.00192229    0.00006174   -0.00028586
     atom  116 type  3   force =     0.00192269    0.00006197    0.00028555
     atom  117 type  3   force =     0.00139298    0.00057084   -0.00106471
     atom  118 type  3   force =    -0.00139341    0.00057116    0.00106504
     atom  119 type  3   force =    -0.00139298   -0.00057084    0.00106471
     atom  120 type  3   force =     0.00139341   -0.00057116   -0.00106504
     atom  121 type  3   force =     0.00196742   -0.00076004    0.00036441
     atom  122 type  3   force =    -0.00196777   -0.00076030   -0.00036408
     atom  123 type  3   force =    -0.00196742    0.00076004   -0.00036441
     atom  124 type  3   force =     0.00196777    0.00076030    0.00036408

     Total force =     0.071783     Total SCF correction =     0.000198


     Computing stress (Cartesian axis) and pressure

          total   stress  (Ry/bohr**3)                   (kbar)     P=   -6.90
  -0.00001382  -0.00000000  -0.00000253         -2.03     -0.00     -0.37
  -0.00000000  -0.00006817   0.00000000         -0.00    -10.03      0.00
  -0.00000253   0.00000000  -0.00005875         -0.37      0.00     -8.64


     Writing output data file scf.save
 
     init_run     :     40.99s CPU     42.13s WALL (       1 calls)
     electrons    :   1539.54s CPU   1593.50s WALL (       1 calls)
     forces       :     21.37s CPU     21.64s WALL (       1 calls)
     stress       :     76.02s CPU     76.34s WALL (       1 calls)

     Called by init_run:
     wfcinit      :     28.01s CPU     28.99s WALL (       1 calls)
     potinit      :      4.63s CPU      4.66s WALL (       1 calls)

     Called by electrons:
     c_bands      :   1373.14s CPU   1416.87s WALL (      23 calls)
     sum_band     :    140.43s CPU    147.94s WALL (      23 calls)
     v_of_rho     :      3.68s CPU      4.02s WALL (      24 calls)
     newd         :      9.35s CPU     11.60s WALL (      24 calls)
     PAW_pot      :     11.79s CPU     11.79s WALL (      24 calls)
     mix_rho      :      1.06s CPU      1.18s WALL (      23 calls)

     Called by c_bands:
     init_us_2    :      7.30s CPU      7.35s WALL (     196 calls)
     cegterg      :   1345.88s CPU   1389.59s WALL (      92 calls)

     Called by sum_band:
     sum_band:bec :      0.06s CPU      0.06s WALL (      92 calls)
     addusdens    :      9.64s CPU     11.91s WALL (      23 calls)

     Called by *egterg:
     h_psi        :    742.64s CPU    776.44s WALL (     453 calls)
     s_psi        :    170.42s CPU    170.45s WALL (     453 calls)
     g_psi        :      3.38s CPU      3.38s WALL (     357 calls)
     cdiaghg      :     61.17s CPU     61.18s WALL (     449 calls)

     Called by h_psi:
     h_psi:pot    :    737.80s CPU    771.53s WALL (     453 calls)
     h_psi:calbec :    165.16s CPU    165.41s WALL (     453 calls)
     vloc_psi     :    401.27s CPU    434.72s WALL (     453 calls)
     add_vuspsi   :    171.37s CPU    171.41s WALL (     453 calls)

     General routines
     calbec       :    230.19s CPU    230.52s WALL (     565 calls)
     fft          :      2.52s CPU      3.07s WALL (     336 calls)
     fftw         :    422.49s CPU    460.75s WALL (  114546 calls)
 
     Parallel routines
     fft_scatter  :     73.55s CPU    108.77s WALL (  114882 calls)
 
     PWSCF        : 28m 4.72s CPU    29m34.97s WALL

 
   This run was terminated on:  18:55:52  14Dec2017            

=------------------------------------------------------------------------------=
   JOB DONE.
=------------------------------------------------------------------------------=
