
     Program PWSCF v.6.1 (svn rev. 13369) starts on  4Nov2017 at  0:48:14 

     This program is part of the open-source Quantum ESPRESSO suite
     for quantum simulation of materials; please cite
         "P. Giannozzi et al., J. Phys.:Condens. Matter 21 395502 (2009);
          URL http://www.quantum-espresso.org", 
     in publications or presentations arising from this work. More details at
     http://www.quantum-espresso.org/quote

     Parallel version (MPI), running on     8 processors
     R & G space division:  proc/nbgrp/npool/nimage =       8
     Waiting for input...
     Reading input from standard input

     Current dimensions of program PWSCF are:
     Max number of different atomic species (ntypx) = 10
     Max number of k-points (npk) =  40000
     Max angular momentum in pseudopotentials (lmaxx) =  3
               file C.pbe-n-kjpaw_psl.0.1.UPF: wavefunction(s)  2P renormalized
               file N.pbe-n-kjpaw_psl.0.1.UPF: wavefunction(s)  2P renormalized
               file H.pbe-kjpaw_psl.0.1.UPF: wavefunction(s)  1S renormalized
               file O.pbe-n-kjpaw_psl.0.1.UPF: wavefunction(s)  2P renormalized

     -------------------------------------
     Parameters for Dispersion Correction:
     -------------------------------------
       atom      VdW radius       C_6     

        C          2.744         60.710
        N          2.640         42.670
        H          1.892          4.857
        O          2.536         24.284

     Subspace diagonalization in iterative solution of the eigenvalue problem:
     a serial algorithm will be used

 
     Parallelization info
     --------------------
     sticks:   dense  smooth     PW     G-vecs:    dense   smooth      PW
     Min         621     621    168                32654    32654    4611
     Max         622     622    169                32656    32656    4614
     Sum        4973    4973   1347               261241   261241   36899
 


     bravais-lattice index     =            0
     lattice parameter (alat)  =      12.7209  a.u.
     unit-cell volume          =    1933.8422 (a.u.)^3
     number of atoms/cell      =           30
     number of atomic types    =            4
     number of electrons       =       112.00
     number of Kohn-Sham states=           67
     kinetic-energy cutoff     =     100.0000  Ry
     charge density cutoff     =     400.0000  Ry
     convergence threshold     =      1.0E-08
     mixing beta               =       0.5000
     number of iterations used =            8  plain     mixing
     Exchange-correlation      =  SLA  PW   PBX  PBC ( 1  4  3  4 0 0)

     celldm(1)=  12.720880  celldm(2)=   0.000000  celldm(3)=   0.000000
     celldm(4)=   0.000000  celldm(5)=   0.000000  celldm(6)=   0.000000

     crystal axes: (cart. coord. in units of alat)
               a(1) = (   1.000000   0.000000   0.000000 )  
               a(2) = (  -0.338112   0.963664   0.000000 )  
               a(3) = (  -0.400224  -0.301109   0.974864 )  

     reciprocal axes: (cart. coord. in units 2 pi/alat)
               b(1) = (  1.000000  0.350861  0.518915 )  
               b(2) = (  0.000000  1.037706  0.320519 )  
               b(3) = (  0.000000  0.000000  1.025784 )  


     PseudoPot. # 1 for  C read from file:
     /scratch/ahofstet/pseudo/C.pbe-n-kjpaw_psl.0.1.UPF
     MD5 check sum: 430fe95172b1e11ef3f8ed03bac87931
     Pseudo is Projector augmented-wave + core cor, Zval =  4.0
     Generated using "atomic" code by A. Dal Corso  v.5.0.99 svn rev. 10869
     Shape of augmentation charge: BESSEL
     Using radial grid of 1073 points,  4 beta functions with: 
                l(1) =   0
                l(2) =   0
                l(3) =   1
                l(4) =   1
     Q(r) pseudized with 0 coefficients 


     PseudoPot. # 2 for  N read from file:
     /scratch/ahofstet/pseudo/N.pbe-n-kjpaw_psl.0.1.UPF
     MD5 check sum: f73187c8b701007e77325f868c9291d7
     Pseudo is Projector augmented-wave + core cor, Zval =  5.0
     Generated using "atomic" code by A. Dal Corso  v.5.0.99 svn rev. 10869
     Shape of augmentation charge: PSQ
     Using radial grid of 1085 points,  4 beta functions with: 
                l(1) =   0
                l(2) =   0
                l(3) =   1
                l(4) =   1
     Q(r) pseudized with 0 coefficients 


     PseudoPot. # 3 for  H read from file:
     /scratch/ahofstet/pseudo/H.pbe-kjpaw_psl.0.1.UPF
     MD5 check sum: 94e484f906d9e9773b2f6e52662335b2
     Pseudo is Projector augmented-wave, Zval =  1.0
     Generated using "atomic" code by A. Dal Corso  v.5.0.99 svn rev. 10869
     Shape of augmentation charge: PSQ
     Using radial grid of  929 points,  2 beta functions with: 
                l(1) =   0
                l(2) =   0
     Q(r) pseudized with 0 coefficients 


     PseudoPot. # 4 for  O read from file:
     /scratch/ahofstet/pseudo/O.pbe-n-kjpaw_psl.0.1.UPF
     MD5 check sum: 3f94a2996a3169367d6eb21d9b593f20
     Pseudo is Projector augmented-wave + core cor, Zval =  6.0
     Generated using "atomic" code by A. Dal Corso  v.5.0.99 svn rev. 10869
     Shape of augmentation charge: BESSEL
     Using radial grid of 1095 points,  4 beta functions with: 
                l(1) =   0
                l(2) =   0
                l(3) =   1
                l(4) =   1
     Q(r) pseudized with 0 coefficients 


     atomic species   valence    mass     pseudopotential
        C              4.00    12.01070      C( 1.00)
        N              5.00    14.00670      N( 1.00)
        H              1.00     1.00794      H( 1.00)
        O              6.00    15.99940      O( 1.00)

      2 Sym. Ops., with inversion, found



   Cartesian axes

     site n.     atom                  positions (alat units)
         1           N   tau(   1) = (  -0.1448584  -0.0706281   0.9582132  )
         2           N   tau(   2) = (   0.4065223   0.7331832   0.0166507  )
         3           N   tau(   3) = (   0.1983536   0.1553041   0.3140311  )
         4           N   tau(   4) = (   0.0633104   0.5072509   0.6608328  )
         5           O   tau(   5) = (  -0.0650455   0.1954099   0.0992981  )
         6           O   tau(   6) = (   0.3267094   0.4671452   0.8755658  )
         7           N   tau(   7) = (   0.5262017   0.1970887   0.2061550  )
         8           N   tau(   8) = (  -0.2645377   0.4654664   0.7687088  )
         9           C   tau(   9) = (   0.4584928   0.2386205   0.0181973  )
        10           C   tau(  10) = (  -0.1968288   0.4239346   0.9566666  )
        11           O   tau(  11) = (   0.4588266   0.1417867   0.5336583  )
        12           O   tau(  12) = (  -0.1971627   0.5207684   0.4412056  )
        13           C   tau(  13) = (   0.4006454   0.1636339   0.3621043  )
        14           C   tau(  14) = (  -0.1389815   0.4989212   0.6127596  )
        15           C   tau(  15) = (   0.1140943   0.1925177   0.1317560  )
        16           C   tau(  16) = (   0.1475697   0.4700374   0.8431079  )
        17           N   tau(  17) = (  -0.0012970   0.0237875   0.6779532  )
        18           N   tau(  18) = (   0.2629610   0.6387676   0.2969107  )
        19           C   tau(  19) = (   0.1457896  -0.0043282   0.8198446  )
        20           C   tau(  20) = (   0.1158743   0.6668833   0.1550193  )
        21           C   tau(  21) = (  -0.1727705  -0.0180142   0.7617318  )
        22           C   tau(  22) = (   0.4344345   0.6805692   0.2131321  )
        23           H   tau(  23) = (  -0.3181073  -0.0081908   0.6935507  )
        24           H   tau(  24) = (   0.5797713   0.6707458   0.2813132  )
        25           H   tau(  25) = (   0.6756728   0.2081491   0.2326125  )
        26           H   tau(  26) = (  -0.4140088   0.4544060   0.7422514  )
        27           H   tau(  27) = (   0.3007910   0.0228714   0.7888383  )
        28           H   tau(  28) = (  -0.0391270   0.6396837   0.1860256  )
        29           H   tau(  29) = (   0.1041832   0.1178788   0.4311018  )
        30           H   tau(  30) = (   0.1574807   0.5446763   0.5437621  )

     number of k points=    14
                       cart. coord. in units 2pi/alat
        k(    1) = (   0.0000000   0.0000000   0.0000000), wk =   0.0740741
        k(    2) = (   0.0000000   0.0000000   0.3419281), wk =   0.1481481
        k(    3) = (   0.0000000   0.3459021   0.1068397), wk =   0.1481481
        k(    4) = (   0.0000000   0.3459021   0.4487677), wk =   0.1481481
        k(    5) = (   0.0000000   0.3459021  -0.2350884), wk =   0.1481481
        k(    6) = (   0.3333333   0.1169538   0.1729715), wk =   0.1481481
        k(    7) = (   0.3333333   0.1169538   0.5148996), wk =   0.1481481
        k(    8) = (   0.3333333   0.1169538  -0.1689565), wk =   0.1481481
        k(    9) = (   0.3333333   0.4628559   0.2798112), wk =   0.1481481
        k(   10) = (   0.3333333   0.4628559   0.6217393), wk =   0.1481481
        k(   11) = (   0.3333333   0.4628559  -0.0621169), wk =   0.1481481
        k(   12) = (   0.3333333  -0.2289483   0.0661319), wk =   0.1481481
        k(   13) = (   0.3333333  -0.2289483   0.4080599), wk =   0.1481481
        k(   14) = (   0.3333333  -0.2289483  -0.2757962), wk =   0.1481481

     Dense  grid:   261241 G-vectors     FFT dimensions: (  81,  90,  90)

     Estimated max dynamical RAM per process >     130.91MB

     Estimated total allocated dynamical RAM >    1047.30MB

     Check: negative/imaginary core charge=   -0.000002    0.000000

     Initial potential from superposition of free atoms

     starting charge  111.99944, renormalised to  112.00000
     Starting wfc are   96 randomized atomic wfcs
     Checking if some PAW data can be deallocated... 

     total cpu time spent up to now is        8.2 secs

     per-process dynamical memory:   163.7 Mb

     Self-consistent Calculation

     iteration #  1     ecut=   100.00 Ry     beta=0.50
     Davidson diagonalization with overlap
     ethr =  1.00E-02,  avg # of iterations =  3.1

     total cpu time spent up to now is       23.2 secs

     total energy              =    -585.76042504 Ry
     Harris-Foulkes estimate   =    -587.52666654 Ry
     estimated scf accuracy    <       3.24219262 Ry

     iteration #  2     ecut=   100.00 Ry     beta=0.50
     Davidson diagonalization with overlap
     ethr =  2.89E-03,  avg # of iterations =  3.0

     total cpu time spent up to now is       33.2 secs

     total energy              =    -586.23152127 Ry
     Harris-Foulkes estimate   =    -586.55167479 Ry
     estimated scf accuracy    <       0.65745039 Ry

     iteration #  3     ecut=   100.00 Ry     beta=0.50
     Davidson diagonalization with overlap
     ethr =  5.87E-04,  avg # of iterations =  6.0

     total cpu time spent up to now is       47.0 secs

     total energy              =    -586.43025390 Ry
     Harris-Foulkes estimate   =    -586.51795133 Ry
     estimated scf accuracy    <       0.21163555 Ry

     iteration #  4     ecut=   100.00 Ry     beta=0.50
     Davidson diagonalization with overlap
     ethr =  1.89E-04,  avg # of iterations =  2.0

     total cpu time spent up to now is       55.9 secs

     total energy              =    -586.46027125 Ry
     Harris-Foulkes estimate   =    -586.46542948 Ry
     estimated scf accuracy    <       0.01929126 Ry

     iteration #  5     ecut=   100.00 Ry     beta=0.50
     Davidson diagonalization with overlap
     ethr =  1.72E-05,  avg # of iterations =  6.1

     total cpu time spent up to now is       72.9 secs

     total energy              =    -586.46872981 Ry
     Harris-Foulkes estimate   =    -586.47276986 Ry
     estimated scf accuracy    <       0.01150976 Ry

     iteration #  6     ecut=   100.00 Ry     beta=0.50
     Davidson diagonalization with overlap
     ethr =  1.03E-05,  avg # of iterations =  1.7

     total cpu time spent up to now is       81.2 secs

     total energy              =    -586.46852165 Ry
     Harris-Foulkes estimate   =    -586.46969487 Ry
     estimated scf accuracy    <       0.00243899 Ry

     iteration #  7     ecut=   100.00 Ry     beta=0.50
     Davidson diagonalization with overlap
     ethr =  2.18E-06,  avg # of iterations =  5.5

     total cpu time spent up to now is       97.3 secs

     total energy              =    -586.46988782 Ry
     Harris-Foulkes estimate   =    -586.47026758 Ry
     estimated scf accuracy    <       0.00117956 Ry

     iteration #  8     ecut=   100.00 Ry     beta=0.50
     Davidson diagonalization with overlap
     ethr =  1.05E-06,  avg # of iterations =  1.0

     total cpu time spent up to now is      105.5 secs

     total energy              =    -586.46981812 Ry
     Harris-Foulkes estimate   =    -586.46995386 Ry
     estimated scf accuracy    <       0.00032936 Ry

     iteration #  9     ecut=   100.00 Ry     beta=0.50
     Davidson diagonalization with overlap
     ethr =  2.94E-07,  avg # of iterations =  3.7

     total cpu time spent up to now is      117.9 secs

     total energy              =    -586.46996191 Ry
     Harris-Foulkes estimate   =    -586.46997087 Ry
     estimated scf accuracy    <       0.00003176 Ry

     iteration # 10     ecut=   100.00 Ry     beta=0.50
     Davidson diagonalization with overlap
     ethr =  2.84E-08,  avg # of iterations =  2.0

     total cpu time spent up to now is      126.3 secs

     total energy              =    -586.46995814 Ry
     Harris-Foulkes estimate   =    -586.46996438 Ry
     estimated scf accuracy    <       0.00001395 Ry

     iteration # 11     ecut=   100.00 Ry     beta=0.50
     Davidson diagonalization with overlap
     ethr =  1.25E-08,  avg # of iterations =  3.9

     total cpu time spent up to now is      138.7 secs

     total energy              =    -586.46996307 Ry
     Harris-Foulkes estimate   =    -586.46996440 Ry
     estimated scf accuracy    <       0.00000323 Ry

     iteration # 12     ecut=   100.00 Ry     beta=0.50
     Davidson diagonalization with overlap
     ethr =  2.88E-09,  avg # of iterations =  1.5

     total cpu time spent up to now is      146.9 secs

     total energy              =    -586.46996298 Ry
     Harris-Foulkes estimate   =    -586.46996333 Ry
     estimated scf accuracy    <       0.00000066 Ry

     iteration # 13     ecut=   100.00 Ry     beta=0.50
     Davidson diagonalization with overlap
     ethr =  5.93E-10,  avg # of iterations =  4.0

     total cpu time spent up to now is      161.3 secs

     total energy              =    -586.46996348 Ry
     Harris-Foulkes estimate   =    -586.46996360 Ry
     estimated scf accuracy    <       0.00000033 Ry

     iteration # 14     ecut=   100.00 Ry     beta=0.50
     Davidson diagonalization with overlap
     ethr =  2.96E-10,  avg # of iterations =  1.0

     total cpu time spent up to now is      169.3 secs

     total energy              =    -586.46996345 Ry
     Harris-Foulkes estimate   =    -586.46996350 Ry
     estimated scf accuracy    <       0.00000009 Ry

     iteration # 15     ecut=   100.00 Ry     beta=0.50
     Davidson diagonalization with overlap
     ethr =  8.32E-11,  avg # of iterations =  3.2

     total cpu time spent up to now is      182.4 secs

     total energy              =    -586.46996351 Ry
     Harris-Foulkes estimate   =    -586.46996351 Ry
     estimated scf accuracy    <       0.00000002 Ry

     iteration # 16     ecut=   100.00 Ry     beta=0.50
     Davidson diagonalization with overlap
     ethr =  1.39E-11,  avg # of iterations =  1.0

     total cpu time spent up to now is      190.5 secs

     End of self-consistent calculation

          k = 0.0000 0.0000 0.0000 ( 32679 PWs)   bands (ev):

   -19.8654 -19.7196 -18.8646 -18.8241 -18.1815 -18.1046 -16.4391 -16.3645
   -15.5993 -15.5685 -14.5669 -14.5440 -11.0721 -11.0338  -9.4857  -9.4694
    -8.7464  -8.6522  -7.7439  -7.7236  -7.4522  -7.4429  -6.3159  -6.2847
    -5.3902  -5.2879  -5.1956  -4.5772  -4.5318  -4.3203  -4.3064  -4.1211
    -3.0749  -3.0018  -2.8869  -2.8296  -2.8187  -2.5366  -2.4782  -2.3882
    -2.2539  -2.1890  -0.5384  -0.4522   0.1902   0.3073   0.3370   0.4267
     0.6650   0.6764   0.7528   0.9228   1.2048   1.2305   2.3534   2.5446
     5.8886   5.9708   6.6547   7.1018   7.8254   7.9910   8.2761   9.0863
     9.1869   9.7216  10.0692

          k = 0.0000 0.0000 0.3419 ( 32672 PWs)   bands (ev):

   -19.8406 -19.7268 -18.8612 -18.8388 -18.1973 -18.1314 -16.4259 -16.3727
   -15.6094 -15.5725 -14.4939 -14.4698 -11.0888 -11.0359  -9.6571  -9.6345
    -8.7548  -8.7206  -7.8244  -7.7844  -7.4171  -7.4087  -6.0850  -6.0502
    -5.3077  -5.1034  -5.0616  -4.4975  -4.4638  -4.3284  -4.3173  -4.2857
    -3.2606  -3.1709  -3.1317  -2.9193  -2.6846  -2.4604  -2.4024  -2.3071
    -2.1606  -2.1426  -0.4885  -0.3728   0.1499   0.2619   0.3506   0.3649
     0.5165   0.5697   0.6421   0.8234   1.1955   1.2442   2.3586   2.5863
     5.7789   5.8932   6.7046   6.9242   7.8382   8.0330   8.4851   9.0074
     9.1519   9.2783  10.1068

          k = 0.0000 0.3459 0.1068 ( 32627 PWs)   bands (ev):

   -19.8313 -19.7560 -18.8576 -18.8306 -18.1716 -18.1135 -16.4324 -16.3722
   -15.5965 -15.5708 -14.5645 -14.5480 -11.0797 -11.0236  -9.5100  -9.4444
    -8.7235  -8.6764  -7.7565  -7.7177  -7.4520  -7.4451  -6.3156  -6.2822
    -5.2926  -5.2071  -5.1332  -4.6915  -4.5316  -4.3645  -4.2573  -4.2141
    -3.1812  -3.0689  -2.9256  -2.8368  -2.6598  -2.5162  -2.4899  -2.3779
    -2.2996  -2.1358  -0.7800  -0.2927   0.2102   0.3070   0.3562   0.4242
     0.6177   0.6873   0.7648   0.8850   1.1818   1.2379   2.4482   2.5490
     5.7303   6.1682   6.6631   6.9532   7.7591   8.0753   8.7874   9.0040
     9.3510   9.6807   9.9060

          k = 0.0000 0.3459 0.4488 ( 32655 PWs)   bands (ev):

   -19.8110 -19.7570 -18.8607 -18.8396 -18.1873 -18.1414 -16.4199 -16.3796
   -15.6080 -15.5739 -14.4930 -14.4717 -11.0874 -11.0347  -9.6699  -9.6210
    -8.7539  -8.7232  -7.8310  -7.7814  -7.4313  -7.3979  -6.0817  -6.0528
    -5.1502  -5.0689  -4.9928  -4.6247  -4.4678  -4.4414  -4.3173  -4.2454
    -3.2883  -3.1821  -3.1588  -2.9634  -2.6653  -2.4241  -2.4168  -2.3062
    -2.2077  -2.0969  -0.6518  -0.2681   0.1752   0.2648   0.3425   0.4071
     0.4327   0.5593   0.6352   0.8155   1.1883   1.2441   2.4565   2.5984
     5.6436   6.0267   6.6663   6.8605   7.7387   8.1164   8.9441   9.0852
     9.2245   9.3772   9.9984

          k = 0.0000 0.3459-0.2351 ( 32667 PWs)   bands (ev):

   -19.8289 -19.7374 -18.8703 -18.8306 -18.1887 -18.1410 -16.4202 -16.3794
   -15.6098 -15.5728 -14.4895 -14.4744 -11.0806 -11.0412  -9.6612  -9.6299
    -8.7709  -8.7066  -7.8357  -7.7754  -7.4353  -7.3943  -6.0792  -6.0529
    -5.1566  -5.0889  -5.0394  -4.5574  -4.4590  -4.4567  -4.3144  -4.2261
    -3.3239  -3.1830  -2.9947  -2.9628  -2.7876  -2.4396  -2.4264  -2.2919
    -2.2237  -2.0928  -0.6417  -0.2658   0.1781   0.2627   0.3104   0.3944
     0.4375   0.5211   0.6511   0.8548   1.1952   1.2414   2.4333   2.6320
     5.6767   5.9759   6.6230   6.9291   7.7584   8.0239   8.7793   9.1402
     9.3092   9.5357  10.0840

          k = 0.3333 0.1170 0.1730 ( 32653 PWs)   bands (ev):

   -19.8046 -19.7361 -18.8964 -18.8509 -18.2086 -18.1249 -16.4368 -16.3833
   -15.5299 -15.4960 -14.5516 -14.5423 -11.0981 -11.0665  -9.5800  -9.5518
    -8.7012  -8.6654  -7.8492  -7.8002  -7.4439  -7.4307  -6.2437  -6.2099
    -5.2759  -5.2148  -5.0861  -4.5244  -4.4012  -4.3453  -3.9813  -3.9040
    -3.2857  -3.2205  -3.1663  -2.9726  -2.8717  -2.8436  -2.5523  -2.3911
    -2.1378  -2.0779  -0.4962  -0.3956   0.2762   0.3466   0.4397   0.4897
     0.6044   0.6183   0.7529   0.8340   1.1845   1.2964   2.3311   2.5390
     5.7667   5.9277   6.7626   7.0515   7.6915   8.0744   8.6314   9.1731
     9.2383   9.6680   9.7214

          k = 0.3333 0.1170 0.5149 ( 32649 PWs)   bands (ev):

   -19.7880 -19.7380 -18.9093 -18.8416 -18.2194 -18.1493 -16.4498 -16.3922
   -15.5313 -15.5024 -14.4856 -14.4626 -11.0947 -11.0486  -9.6959  -9.6721
    -8.8216  -8.7898  -7.9134  -7.8591  -7.4052  -7.3850  -6.0348  -5.9926
    -5.1759  -4.9394  -4.9086  -4.5474  -4.4500  -4.4075  -3.9703  -3.9186
    -3.4240  -3.3244  -3.2069  -2.9983  -2.9364  -2.8001  -2.5501  -2.3426
    -2.0820  -2.0455  -0.5002  -0.3056   0.2283   0.2749   0.3475   0.3945
     0.4786   0.5900   0.6822   0.7819   1.1888   1.3223   2.3460   2.5967
     5.7302   5.8547   6.6959   6.8619   7.7390   8.0788   8.9790   9.0043
     9.2217   9.4061   9.7911

          k = 0.3333 0.1170-0.1690 ( 32669 PWs)   bands (ev):

   -19.8050 -19.7269 -18.8828 -18.8603 -18.2132 -18.1433 -16.4757 -16.3963
   -15.5263 -15.5054 -14.4757 -14.4649 -11.0687 -11.0363  -9.6866  -9.6620
    -8.8709  -8.8178  -7.8924  -7.8790  -7.3988  -7.3449  -6.0544  -6.0322
    -5.2217  -5.0352  -4.9306  -4.5018  -4.3097  -4.2533  -4.0624  -3.9628
    -3.4173  -3.2870  -3.0974  -3.0360  -2.9158  -2.8406  -2.5777  -2.3809
    -2.1090  -2.0747  -0.5206  -0.3319   0.2445   0.3002   0.3421   0.4816
     0.4967   0.5711   0.6441   0.8108   1.1720   1.2693   2.3742   2.6083
     5.7496   5.8608   6.5963   6.8777   7.7822   8.0348   8.7267   9.3064
     9.4561   9.5802   9.9927

          k = 0.3333 0.4629 0.2798 ( 32647 PWs)   bands (ev):

   -19.7905 -19.7486 -18.9090 -18.8395 -18.1981 -18.1366 -16.4252 -16.3957
   -15.5241 -15.5024 -14.5564 -14.5385 -11.1069 -11.0554  -9.5818  -9.5497
    -8.6868  -8.6812  -7.8502  -7.8006  -7.4449  -7.4318  -6.2522  -6.1996
    -5.2021  -5.1413  -4.9856  -4.6660  -4.4361  -4.4082  -3.9580  -3.8861
    -3.2489  -3.2177  -3.1858  -2.9830  -2.9087  -2.8676  -2.6305  -2.3199
    -2.1051  -2.0853  -0.7031  -0.2908   0.2665   0.3664   0.4318   0.4642
     0.5887   0.6391   0.7366   0.8305   1.1825   1.2895   2.4282   2.5226
     5.7351   5.9725   6.7705   6.9481   7.7469   8.0870   9.0504   9.1660
     9.2004   9.7474   9.8796

          k = 0.3333 0.4629 0.6217 ( 32681 PWs)   bands (ev):

   -19.7873 -19.7376 -18.8882 -18.8625 -18.2086 -18.1624 -16.4462 -16.3965
   -15.5286 -15.5055 -14.4814 -14.4677 -11.0914 -11.0494  -9.7003  -9.6683
    -8.8243  -8.7879  -7.9080  -7.8650  -7.4196  -7.3727  -6.0266  -6.0002
    -4.9917  -4.9041  -4.8691  -4.7230  -4.4739  -4.4232  -3.9769  -3.8864
    -3.4222  -3.3100  -3.1409  -3.0005  -2.9577  -2.8645  -2.6493  -2.3447
    -2.0655  -2.0428  -0.5938  -0.2655   0.2200   0.2770   0.3307   0.4579
     0.4932   0.5417   0.5753   0.8178   1.1976   1.3086   2.4084   2.6311
     5.6723   5.8801   6.6607   6.8502   7.7896   8.0467   9.0393   9.2561
     9.3761   9.6914   9.9248

          k = 0.3333 0.4629-0.0621 ( 32614 PWs)   bands (ev):

   -19.7783 -19.7531 -18.8931 -18.8484 -18.2052 -18.1548 -16.4690 -16.4037
   -15.5358 -15.4955 -14.4859 -14.4553 -11.0857 -11.0166  -9.6987  -9.6514
    -8.8568  -8.8337  -7.8920  -7.8804  -7.3916  -7.3539  -6.0651  -6.0241
    -5.0661  -4.9551  -4.9198  -4.6741  -4.2995  -4.2813  -4.0449  -3.9148
    -3.3677  -3.2874  -3.1550  -3.0688  -2.9708  -2.8133  -2.6992  -2.3767
    -2.0885  -2.0814  -0.7269  -0.1675   0.2463   0.2949   0.4099   0.4573
     0.5241   0.5863   0.6099   0.7613   1.1610   1.2822   2.4790   2.5832
     5.6422   5.9382   6.6113   6.7354   7.7818   8.0843   9.3238   9.4492
     9.5744   9.6860   9.8481

          k = 0.3333-0.2289 0.0661 ( 32675 PWs)   bands (ev):

   -19.8238 -19.7136 -18.8874 -18.8610 -18.1954 -18.1413 -16.4300 -16.3907
   -15.5214 -15.5056 -14.5601 -14.5346 -11.1071 -11.0554  -9.5682  -9.5642
    -8.7044  -8.6632  -7.8427  -7.8060  -7.4475  -7.4271  -6.2370  -6.2169
    -5.1990  -5.1416  -5.1183  -4.5000  -4.4778  -4.3727  -3.9517  -3.9150
    -3.2601  -3.2190  -3.0361  -2.9801  -2.9719  -2.8423  -2.6294  -2.4418
    -2.1204  -2.0598  -0.6616  -0.3328   0.2654   0.3572   0.3807   0.4561
     0.6169   0.6536   0.7462   0.8393   1.1884   1.2828   2.3789   2.5576
     5.7653   5.9248   6.7578   7.0075   7.8920   7.9565   8.7638   9.1686
     9.2234   9.9054  10.2761

          k = 0.3333-0.2289 0.4081 ( 32668 PWs)   bands (ev):

   -19.8054 -19.7184 -18.8966 -18.8525 -18.2079 -18.1664 -16.4403 -16.4021
   -15.5384 -15.4955 -14.4913 -14.4575 -11.1062 -11.0346  -9.6924  -9.6789
    -8.8117  -8.7996  -7.9048  -7.8667  -7.4094  -7.3809  -6.0268  -6.0043
    -5.0944  -4.9289  -4.8968  -4.5452  -4.4580  -4.3819  -3.9473  -3.9441
    -3.3740  -3.3271  -3.2077  -2.9811  -2.9420  -2.8422  -2.6180  -2.4936
    -2.0740  -2.0267  -0.6581  -0.1939   0.2065   0.2924   0.3463   0.4151
     0.5343   0.5769   0.6253   0.7673   1.1978   1.3181   2.4552   2.5581
     5.7183   5.8067   6.6799   6.8103   7.8519   8.0476   8.8279   9.2797
     9.4461   9.7290  10.0804

          k = 0.3333-0.2289-0.2758 ( 32642 PWs)   bands (ev):

   -19.8111 -19.7179 -18.9051 -18.8377 -18.1992 -18.1619 -16.4699 -16.4023
   -15.5330 -15.4989 -14.4883 -14.4532 -11.0911 -11.0115  -9.6910  -9.6594
    -8.8661  -8.8239  -7.8979  -7.8734  -7.3854  -7.3584  -6.0693  -6.0176
    -5.1081  -5.0055  -4.9248  -4.5299  -4.3100  -4.2663  -4.0232  -4.0047
    -3.3586  -3.2767  -3.1886  -3.0459  -2.9887  -2.7809  -2.6292  -2.4645
    -2.0857  -2.0639  -0.6961  -0.2122   0.2336   0.3056   0.3489   0.4956
     0.5547   0.5607   0.6299   0.7592   1.1710   1.2741   2.4608   2.5729
     5.6988   5.8860   6.5967   6.7634   7.8676   8.0606   9.1705   9.3491
     9.5002   9.6483  10.0499

     highest occupied, lowest unoccupied level (ev):     2.6320    5.6422

!    total energy              =    -586.46996350 Ry
     Harris-Foulkes estimate   =    -586.46996351 Ry
     estimated scf accuracy    <          7.4E-09 Ry

     total all-electron energy =     -2249.888922 Ry

     The total energy is the sum of the following terms:

     one-electron contribution =    -278.10870973 Ry
     hartree contribution      =     186.71371218 Ry
     xc contribution           =    -120.52342996 Ry
     ewald contribution        =    -203.61692262 Ry
     Dispersion Correction     =      -0.15951298 Ry
     one-center paw contrib.   =    -170.77510038 Ry

     convergence has been achieved in  16 iterations

     Forces acting on atoms (cartesian axes, Ry/au):

     atom    1 type  2   force =     0.00117057   -0.00060659   -0.00348985
     atom    2 type  2   force =    -0.00117057    0.00060659    0.00348985
     atom    3 type  2   force =    -0.00020788    0.00111063   -0.01223904
     atom    4 type  2   force =     0.00020788   -0.00111063    0.01223904
     atom    5 type  4   force =     0.00754248   -0.00197634   -0.00019959
     atom    6 type  4   force =    -0.00754248    0.00197634    0.00019959
     atom    7 type  2   force =    -0.00416049    0.00248711   -0.00081757
     atom    8 type  2   force =     0.00416049   -0.00248711    0.00081757
     atom    9 type  1   force =     0.00063445   -0.00108896    0.01285324
     atom   10 type  1   force =    -0.00063445    0.00108896   -0.01285324
     atom   11 type  4   force =    -0.00001713    0.00060658    0.00019787
     atom   12 type  4   force =     0.00001713   -0.00060658   -0.00019787
     atom   13 type  1   force =     0.00757681   -0.00054723    0.00057236
     atom   14 type  1   force =    -0.00757681    0.00054723   -0.00057236
     atom   15 type  1   force =    -0.00722979   -0.00093687    0.00702229
     atom   16 type  1   force =     0.00722979    0.00093687   -0.00702229
     atom   17 type  2   force =     0.00098530   -0.00331673   -0.00431791
     atom   18 type  2   force =    -0.00098530    0.00331673    0.00431791
     atom   19 type  1   force =     0.00229627    0.00032624   -0.00414921
     atom   20 type  1   force =    -0.00229627   -0.00032624    0.00414921
     atom   21 type  1   force =    -0.00285253    0.00243779   -0.00351216
     atom   22 type  1   force =     0.00285253   -0.00243779    0.00351216
     atom   23 type  3   force =    -0.00229144    0.00102990   -0.00044296
     atom   24 type  3   force =     0.00229144   -0.00102990    0.00044296
     atom   25 type  3   force =     0.00220062    0.00119525    0.00051397
     atom   26 type  3   force =    -0.00220062   -0.00119525   -0.00051397
     atom   27 type  3   force =     0.00081862   -0.00042489   -0.00046512
     atom   28 type  3   force =    -0.00081862    0.00042489    0.00046512
     atom   29 type  3   force =    -0.00440786   -0.00292393    0.00881020
     atom   30 type  3   force =     0.00440786    0.00292393   -0.00881020

     Total force =     0.039421     Total SCF correction =     0.000211


     Computing stress (Cartesian axis) and pressure

          total   stress  (Ry/bohr**3)                   (kbar)     P=    1.70
   0.00002103   0.00000080   0.00001609          3.09      0.12      2.37
   0.00000080  -0.00001263  -0.00000873          0.12     -1.86     -1.28
   0.00001609  -0.00000873   0.00002623          2.37     -1.28      3.86


     Writing output data file scf.save
 
     init_run     :      7.48s CPU      7.67s WALL (       1 calls)
     electrons    :    177.96s CPU    182.49s WALL (       1 calls)
     forces       :      3.51s CPU      3.53s WALL (       1 calls)
     stress       :      7.95s CPU      7.95s WALL (       1 calls)

     Called by init_run:
     wfcinit      :      4.31s CPU      4.44s WALL (       1 calls)
     potinit      :      1.10s CPU      1.14s WALL (       1 calls)

     Called by electrons:
     c_bands      :    152.60s CPU    156.53s WALL (      16 calls)
     sum_band     :     21.69s CPU     22.06s WALL (      16 calls)
     v_of_rho     :      0.63s CPU      0.68s WALL (      17 calls)
     newd         :      0.99s CPU      1.01s WALL (      17 calls)
     PAW_pot      :      1.84s CPU      1.84s WALL (      17 calls)
     mix_rho      :      0.13s CPU      0.14s WALL (      16 calls)

     Called by c_bands:
     init_us_2    :      1.81s CPU      1.81s WALL (     490 calls)
     cegterg      :    146.85s CPU    150.76s WALL (     224 calls)

     Called by sum_band:
     sum_band:bec :      0.02s CPU      0.02s WALL (     224 calls)
     addusdens    :      1.07s CPU      1.08s WALL (      16 calls)

     Called by *egterg:
     h_psi        :    107.45s CPU    111.32s WALL (     919 calls)
     s_psi        :      8.04s CPU      8.05s WALL (     919 calls)
     g_psi        :      0.78s CPU      0.78s WALL (     681 calls)
     cdiaghg      :      8.39s CPU      8.38s WALL (     905 calls)

     Called by h_psi:
     h_psi:pot    :    106.59s CPU    110.45s WALL (     919 calls)
     h_psi:calbec :      7.57s CPU      7.62s WALL (     919 calls)
     vloc_psi     :     91.29s CPU     95.10s WALL (     919 calls)
     add_vuspsi   :      7.73s CPU      7.73s WALL (     919 calls)

     General routines
     calbec       :     10.91s CPU     10.97s WALL (    1213 calls)
     fft          :      0.41s CPU      0.51s WALL (     245 calls)
     fftw         :     98.40s CPU    102.41s WALL (  101288 calls)
 
     Parallel routines
     fft_scatter  :     21.38s CPU     22.86s WALL (  101533 calls)
 
     PWSCF        :  3m19.34s CPU     3m25.22s WALL

 
   This run was terminated on:   0:51:39   4Nov2017            

=------------------------------------------------------------------------------=
   JOB DONE.
=------------------------------------------------------------------------------=
