
     Program PWSCF v.6.1 (svn rev. 13369) starts on 21Dec2017 at 21:52:57 

     This program is part of the open-source Quantum ESPRESSO suite
     for quantum simulation of materials; please cite
         "P. Giannozzi et al., J. Phys.:Condens. Matter 21 395502 (2009);
          URL http://www.quantum-espresso.org", 
     in publications or presentations arising from this work. More details at
     http://www.quantum-espresso.org/quote

     Parallel version (MPI), running on     8 processors
     R & G space division:  proc/nbgrp/npool/nimage =       8
     Waiting for input...
     Reading input from standard input

     Current dimensions of program PWSCF are:
     Max number of different atomic species (ntypx) = 10
     Max number of k-points (npk) =  40000
     Max angular momentum in pseudopotentials (lmaxx) =  3
               file C.pbe-n-kjpaw_psl.0.1.UPF: wavefunction(s)  2P renormalized
               file N.pbe-n-kjpaw_psl.0.1.UPF: wavefunction(s)  2P renormalized
               file H.pbe-kjpaw_psl.0.1.UPF: wavefunction(s)  1S renormalized
               file O.pbe-n-kjpaw_psl.0.1.UPF: wavefunction(s)  2P renormalized

     -------------------------------------
     Parameters for Dispersion Correction:
     -------------------------------------
       atom      VdW radius       C_6     

        C          2.744         60.710
        N          2.640         42.670
        H          1.892          4.857
        O          2.536         24.284

     Subspace diagonalization in iterative solution of the eigenvalue problem:
     a serial algorithm will be used

 
     Parallelization info
     --------------------
     sticks:   dense  smooth     PW     G-vecs:    dense   smooth      PW
     Min         485     485    130                53891    53891    7473
     Max         486     486    131                53895    53895    7477
     Sum        3885    3885   1047               431145   431145   59805
 


     bravais-lattice index     =            0
     lattice parameter (alat)  =       9.9834  a.u.
     unit-cell volume          =    3192.0771 (a.u.)^3
     number of atoms/cell      =           50
     number of atomic types    =            4
     number of electrons       =       188.00
     number of Kohn-Sham states=          112
     kinetic-energy cutoff     =     100.0000  Ry
     charge density cutoff     =     400.0000  Ry
     convergence threshold     =      1.0E-08
     mixing beta               =       0.5000
     number of iterations used =            8  plain     mixing
     Exchange-correlation      =  SLA  PW   PBX  PBC ( 1  4  3  4 0 0)

     celldm(1)=   9.983423  celldm(2)=   0.000000  celldm(3)=   0.000000
     celldm(4)=   0.000000  celldm(5)=   0.000000  celldm(6)=   0.000000

     crystal axes: (cart. coord. in units of alat)
               a(1) = (   1.000000   0.000000   0.000000 )  
               a(2) = (  -0.283338   1.226393   0.000000 )  
               a(3) = (  -0.023459  -0.149160   2.615805 )  

     reciprocal axes: (cart. coord. in units 2 pi/alat)
               b(1) = (  1.000000  0.231034  0.022142 )  
               b(2) = (  0.000000  0.815399  0.046496 )  
               b(3) = (  0.000000  0.000000  0.382292 )  


     PseudoPot. # 1 for  C read from file:
     /scratch/ahofstet/pseudo/C.pbe-n-kjpaw_psl.0.1.UPF
     MD5 check sum: 430fe95172b1e11ef3f8ed03bac87931
     Pseudo is Projector augmented-wave + core cor, Zval =  4.0
     Generated using "atomic" code by A. Dal Corso  v.5.0.99 svn rev. 10869
     Shape of augmentation charge: BESSEL
     Using radial grid of 1073 points,  4 beta functions with: 
                l(1) =   0
                l(2) =   0
                l(3) =   1
                l(4) =   1
     Q(r) pseudized with 0 coefficients 


     PseudoPot. # 2 for  N read from file:
     /scratch/ahofstet/pseudo/N.pbe-n-kjpaw_psl.0.1.UPF
     MD5 check sum: f73187c8b701007e77325f868c9291d7
     Pseudo is Projector augmented-wave + core cor, Zval =  5.0
     Generated using "atomic" code by A. Dal Corso  v.5.0.99 svn rev. 10869
     Shape of augmentation charge: PSQ
     Using radial grid of 1085 points,  4 beta functions with: 
                l(1) =   0
                l(2) =   0
                l(3) =   1
                l(4) =   1
     Q(r) pseudized with 0 coefficients 


     PseudoPot. # 3 for  H read from file:
     /scratch/ahofstet/pseudo/H.pbe-kjpaw_psl.0.1.UPF
     MD5 check sum: 94e484f906d9e9773b2f6e52662335b2
     Pseudo is Projector augmented-wave, Zval =  1.0
     Generated using "atomic" code by A. Dal Corso  v.5.0.99 svn rev. 10869
     Shape of augmentation charge: PSQ
     Using radial grid of  929 points,  2 beta functions with: 
                l(1) =   0
                l(2) =   0
     Q(r) pseudized with 0 coefficients 


     PseudoPot. # 4 for  O read from file:
     /scratch/ahofstet/pseudo/O.pbe-n-kjpaw_psl.0.1.UPF
     MD5 check sum: 3f94a2996a3169367d6eb21d9b593f20
     Pseudo is Projector augmented-wave + core cor, Zval =  6.0
     Generated using "atomic" code by A. Dal Corso  v.5.0.99 svn rev. 10869
     Shape of augmentation charge: BESSEL
     Using radial grid of 1095 points,  4 beta functions with: 
                l(1) =   0
                l(2) =   0
                l(3) =   1
                l(4) =   1
     Q(r) pseudized with 0 coefficients 


     atomic species   valence    mass     pseudopotential
        C              4.00    12.01070      C( 1.00)
        N              5.00    14.00670      N( 1.00)
        H              1.00     1.00794      H( 1.00)
        O              6.00    15.99940      O( 1.00)

      2 Sym. Ops., with inversion, found



   Cartesian axes

     site n.     atom                  positions (alat units)
         1           O   tau(   1) = (   0.0922549   1.0957632   0.4290709  )
         2           O   tau(   2) = (   0.6009477  -0.0185306   2.1867338  )
         3           O   tau(   3) = (   0.4075567   0.3724977   2.0117886  )
         4           O   tau(   4) = (   0.2856459   0.7047350   0.6040161  )
         5           O   tau(   5) = (   0.1065995   0.3799166   2.3187520  )
         6           O   tau(   6) = (   0.5866031   0.6973161   0.2970527  )
         7           O   tau(   7) = (   0.1384508   0.1522475   1.4173582  )
         8           O   tau(   8) = (   0.5547518   0.9249851   1.1984465  )
         9           O   tau(   9) = (   0.6393131   0.5476947   1.5485433  )
        10           O   tau(  10) = (   0.0538895   0.5295380   1.0672614  )
        11           O   tau(  11) = (   0.8041673   0.1218236   1.6855312  )
        12           O   tau(  12) = (  -0.1109647   0.9554091   0.9302735  )
        13           C   tau(  13) = (   0.0772632   0.9449356   1.6431631  )
        14           C   tau(  14) = (   0.6159394   0.1322971   0.9726416  )
        15           N   tau(  15) = (  -0.2279296   1.0080123   1.9718157  )
        16           N   tau(  16) = (   0.9211322   0.0692203   0.6439890  )
        17           N   tau(  17) = (   0.1865120   0.7526352   1.7663175  )
        18           N   tau(  18) = (   0.5066906   0.3245975   0.8494871  )
        19           C   tau(  19) = (   0.0927169   0.6884273   1.9927849  )
        20           C   tau(  20) = (   0.6004856   0.3888054   0.6230198  )
        21           C   tau(  21) = (  -0.1098538   0.8245482   2.1012754  )
        22           C   tau(  22) = (   0.8030564   0.2526844   0.5145293  )
        23           O   tau(  23) = (   0.6144156   0.6763080   2.4290979  )
        24           O   tau(  24) = (   0.0787870   0.4009247   0.1867068  )
        25           O   tau(  25) = (  -0.0403675   0.9121844   2.5322109  )
        26           O   tau(  26) = (   0.7335701   0.1650482   0.0835938  )
        27           C   tau(  27) = (  -0.1360882   1.0671171   1.7423775  )
        28           C   tau(  28) = (   0.8292908   0.0101155   0.8734272  )
        29           C   tau(  29) = (   0.0261614   0.0541412   1.5976220  )
        30           C   tau(  30) = (   0.6670412   1.0230914   1.0181827  )
        31           C   tau(  31) = (   0.2087765   0.4628435   2.1253013  )
        32           C   tau(  32) = (   0.4844261   0.6143892   0.4905034  )
        33           C   tau(  33) = (  -0.1763980   0.8026855   2.3800703  )
        34           C   tau(  34) = (   0.8696006   0.2745471   0.2357344  )
        35           H   tau(  35) = (   0.1576860   0.9991227   1.4608968  )
        36           H   tau(  36) = (   0.5355166   0.0781100   1.1549078  )
        37           H   tau(  37) = (  -0.0706035   1.1385047   0.5134121  )
        38           H   tau(  38) = (   0.7638061  -0.0612721   2.1023926  )
        39           H   tau(  39) = (   0.4789994   0.5893149   1.6381053  )
        40           H   tau(  40) = (   0.2142032   0.4879178   0.9776993  )
        41           H   tau(  41) = (   0.6349376   0.6491008   1.3921485  )
        42           H   tau(  42) = (   0.0582650   0.4281319   1.2236562  )
        43           H   tau(  43) = (   0.5843531   0.6602968   2.6163610  )
        44           H   tau(  44) = (   0.1088495   0.4169359  -0.0005564  )
        45           H   tau(  45) = (   0.0574912   1.0903470   0.2455329  )
        46           H   tau(  46) = (   0.6357114  -0.0131143   2.3702717  )
        47           H   tau(  47) = (   0.4904642   0.2058392   2.1001337  )
        48           H   tau(  48) = (   0.2027384   0.8713935   0.5156710  )
        49           H   tau(  49) = (   0.7369444   0.2922774   1.6056949  )
        50           H   tau(  50) = (  -0.0437418   0.7849553   1.0101098  )

     number of k points=    14
                       cart. coord. in units 2pi/alat
        k(    1) = (   0.0000000   0.0000000   0.0000000), wk =   0.0833333
        k(    2) = (   0.0000000   0.0000000  -0.1911458), wk =   0.0833333
        k(    3) = (   0.0000000   0.2717998   0.0154988), wk =   0.1666667
        k(    4) = (   0.0000000   0.2717998  -0.1756470), wk =   0.1666667
        k(    5) = (   0.2500000   0.0577584   0.0055356), wk =   0.1666667
        k(    6) = (   0.2500000   0.0577584  -0.1856101), wk =   0.1666667
        k(    7) = (   0.2500000   0.3295582   0.0210344), wk =   0.1666667
        k(    8) = (   0.2500000   0.3295582  -0.1701114), wk =   0.1666667
        k(    9) = (   0.2500000  -0.2140414  -0.0099631), wk =   0.1666667
        k(   10) = (   0.2500000  -0.2140414  -0.2011089), wk =   0.1666667
        k(   11) = (  -0.5000000  -0.1155168  -0.0110712), wk =   0.0833333
        k(   12) = (  -0.5000000  -0.1155168  -0.2022170), wk =   0.0833333
        k(   13) = (  -0.5000000   0.1562830   0.0044275), wk =   0.1666667
        k(   14) = (  -0.5000000   0.1562830  -0.1867183), wk =   0.1666667

     Dense  grid:   431145 G-vectors     FFT dimensions: (  64,  80, 180)

     Estimated max dynamical RAM per process >     334.89MB

     Estimated total allocated dynamical RAM >    2679.11MB

     Check: negative/imaginary core charge=   -0.000003    0.000000

     Initial potential from superposition of free atoms

     starting charge  187.99921, renormalised to  188.00000
     Starting wfc are  152 randomized atomic wfcs
     Checking if some PAW data can be deallocated... 

     total cpu time spent up to now is       19.5 secs

     per-process dynamical memory:   322.6 Mb

     Self-consistent Calculation

     iteration #  1     ecut=   100.00 Ry     beta=0.50
     Davidson diagonalization with overlap
     ethr =  1.00E-02,  avg # of iterations =  3.1

     total cpu time spent up to now is       64.2 secs

     total energy              =   -1055.68386462 Ry
     Harris-Foulkes estimate   =   -1058.50663651 Ry
     estimated scf accuracy    <       5.00848254 Ry

     iteration #  2     ecut=   100.00 Ry     beta=0.50
     Davidson diagonalization with overlap
     ethr =  2.66E-03,  avg # of iterations =  3.0

     total cpu time spent up to now is       95.7 secs

     total energy              =   -1056.66007680 Ry
     Harris-Foulkes estimate   =   -1057.11584810 Ry
     estimated scf accuracy    <       0.96736126 Ry

     iteration #  3     ecut=   100.00 Ry     beta=0.50
     Davidson diagonalization with overlap
     ethr =  5.15E-04,  avg # of iterations =  4.6

     total cpu time spent up to now is      129.1 secs

     total energy              =   -1056.87251263 Ry
     Harris-Foulkes estimate   =   -1056.93551453 Ry
     estimated scf accuracy    <       0.16113956 Ry

     iteration #  4     ecut=   100.00 Ry     beta=0.50
     Davidson diagonalization with overlap
     ethr =  8.57E-05,  avg # of iterations =  7.2

     total cpu time spent up to now is      163.8 secs

     total energy              =   -1056.89802792 Ry
     Harris-Foulkes estimate   =   -1056.91124492 Ry
     estimated scf accuracy    <       0.03855125 Ry

     iteration #  5     ecut=   100.00 Ry     beta=0.50
     Davidson diagonalization with overlap
     ethr =  2.05E-05,  avg # of iterations =  5.5

     total cpu time spent up to now is      195.9 secs

     total energy              =   -1056.90541388 Ry
     Harris-Foulkes estimate   =   -1056.90590649 Ry
     estimated scf accuracy    <       0.00269775 Ry

     iteration #  6     ecut=   100.00 Ry     beta=0.50
     Davidson diagonalization with overlap
     ethr =  1.43E-06,  avg # of iterations =  7.1

     total cpu time spent up to now is      248.1 secs

     total energy              =   -1056.90652235 Ry
     Harris-Foulkes estimate   =   -1056.90663411 Ry
     estimated scf accuracy    <       0.00035123 Ry

     iteration #  7     ecut=   100.00 Ry     beta=0.50
     Davidson diagonalization with overlap
     ethr =  1.87E-07,  avg # of iterations =  3.9

     total cpu time spent up to now is      280.2 secs

     total energy              =   -1056.90658176 Ry
     Harris-Foulkes estimate   =   -1056.90661068 Ry
     estimated scf accuracy    <       0.00009358 Ry

     iteration #  8     ecut=   100.00 Ry     beta=0.50
     Davidson diagonalization with overlap
     ethr =  4.98E-08,  avg # of iterations =  3.0

     total cpu time spent up to now is      307.5 secs

     total energy              =   -1056.90659466 Ry
     Harris-Foulkes estimate   =   -1056.90659986 Ry
     estimated scf accuracy    <       0.00001568 Ry

     iteration #  9     ecut=   100.00 Ry     beta=0.50
     Davidson diagonalization with overlap
     ethr =  8.34E-09,  avg # of iterations =  3.6

     total cpu time spent up to now is      348.6 secs

     total energy              =   -1056.90660212 Ry
     Harris-Foulkes estimate   =   -1056.90660499 Ry
     estimated scf accuracy    <       0.00000937 Ry

     iteration # 10     ecut=   100.00 Ry     beta=0.50
     Davidson diagonalization with overlap
     ethr =  4.99E-09,  avg # of iterations =  2.0

     total cpu time spent up to now is      373.4 secs

     total energy              =   -1056.90660245 Ry
     Harris-Foulkes estimate   =   -1056.90660322 Ry
     estimated scf accuracy    <       0.00000184 Ry

     iteration # 11     ecut=   100.00 Ry     beta=0.50
     Davidson diagonalization with overlap
     ethr =  9.77E-10,  avg # of iterations =  3.0

     total cpu time spent up to now is      411.8 secs

     total energy              =   -1056.90660314 Ry
     Harris-Foulkes estimate   =   -1056.90660319 Ry
     estimated scf accuracy    <       0.00000020 Ry

     iteration # 12     ecut=   100.00 Ry     beta=0.50
     Davidson diagonalization with overlap
     ethr =  1.08E-10,  avg # of iterations =  2.0

     total cpu time spent up to now is      437.5 secs

     total energy              =   -1056.90660316 Ry
     Harris-Foulkes estimate   =   -1056.90660317 Ry
     estimated scf accuracy    <       0.00000004 Ry

     iteration # 13     ecut=   100.00 Ry     beta=0.50
     Davidson diagonalization with overlap
     ethr =  2.02E-11,  avg # of iterations =  3.9

     total cpu time spent up to now is      478.7 secs

     total energy              =   -1056.90660317 Ry
     Harris-Foulkes estimate   =   -1056.90660318 Ry
     estimated scf accuracy    <       0.00000001 Ry

     iteration # 14     ecut=   100.00 Ry     beta=0.50
     Davidson diagonalization with overlap
     ethr =  5.79E-12,  avg # of iterations =  1.9

     total cpu time spent up to now is      503.4 secs

     End of self-consistent calculation

          k = 0.0000 0.0000 0.0000 ( 53861 PWs)   bands (ev):

   -20.7334 -20.6290 -20.5587 -20.4823 -20.2968 -20.2497 -18.4915 -18.4808
   -18.3551 -18.2902 -18.1771 -18.1735 -18.0197 -18.0110 -17.8438 -17.8006
   -17.7377 -17.6402 -16.1656 -16.1641 -13.1841 -13.1782 -10.8743 -10.8205
   -10.4037 -10.3699  -9.0340  -8.9310  -8.5247  -8.3434  -8.0455  -7.8458
    -6.8661  -6.7305  -6.5918  -6.4413  -6.1048  -6.0913  -5.8538  -5.6465
    -5.6159  -5.5342  -5.2895  -5.0685  -5.0593  -4.9552  -4.9208  -4.6181
    -4.6178  -4.5767  -4.4377  -4.2107  -4.1482  -4.0801  -3.7763  -3.7678
    -3.7048  -3.5877  -3.4945  -3.3986  -3.1811  -2.9395  -2.8923  -2.7291
    -2.3636  -2.1686  -1.9675  -1.6936  -1.6855  -1.5610  -1.4820  -1.3975
    -1.0132  -0.9034  -0.7719  -0.7390  -0.5944  -0.5494  -0.4818  -0.3550
    -0.2645  -0.2617  -0.1844  -0.1184  -0.0069   0.0660   0.0995   0.1393
     0.3539   0.4513   0.5251   0.5655   0.8959   0.9147   3.5147   3.7226
     4.5420   4.5465   5.7320   5.8353   5.9748   6.1535   7.1197   7.4851
     7.5080   8.0609   8.2162   9.1479   9.3237   9.6271  10.0622  10.0703

          k = 0.0000 0.0000-0.1911 ( 53878 PWs)   bands (ev):

   -20.7324 -20.6311 -20.5598 -20.4791 -20.2987 -20.2488 -18.4933 -18.4806
   -18.3499 -18.2925 -18.1799 -18.1735 -18.0148 -18.0126 -17.8593 -17.7838
   -17.7372 -17.6439 -16.1667 -16.1630 -13.2040 -13.1578 -10.8663 -10.8360
   -10.4239 -10.3381  -9.0421  -8.9314  -8.5312  -8.3543  -7.9656  -7.9075
    -6.7846  -6.7663  -6.5866  -6.5397  -6.1336  -5.9433  -5.8088  -5.8052
    -5.5933  -5.5463  -5.2168  -5.1228  -5.0673  -4.9426  -4.8774  -4.7474
    -4.5732  -4.5385  -4.4178  -4.1815  -4.1804  -4.0853  -3.7876  -3.7348
    -3.6807  -3.5878  -3.5215  -3.4370  -3.1375  -2.9137  -2.9102  -2.7644
    -2.3426  -2.2745  -1.7775  -1.6968  -1.6839  -1.6210  -1.5511  -1.3721
    -1.0164  -0.8819  -0.7788  -0.7510  -0.5788  -0.5654  -0.4453  -0.3846
    -0.3142  -0.2078  -0.1878  -0.1064  -0.0025   0.0629   0.1036   0.1174
     0.3626   0.4375   0.5186   0.5788   0.8865   0.9274   3.5119   3.7226
     4.5320   4.5542   5.6853   5.9083   6.0359   6.0744   7.3153   7.4389
     7.5244   7.5398   8.9327   8.9766   9.3301   9.3432   9.7446  10.5337

          k = 0.0000 0.2718 0.0155 ( 53895 PWs)   bands (ev):

   -20.7104 -20.6471 -20.5476 -20.4889 -20.2999 -20.2492 -18.5174 -18.4552
   -18.3815 -18.2672 -18.1988 -18.1560 -18.1036 -18.0609 -17.7882 -17.7336
   -17.7163 -17.6412 -16.1741 -16.1712 -13.1883 -13.1550 -10.8653 -10.8267
   -10.4145 -10.3460  -9.0773  -8.9237  -8.5959  -8.3941  -7.8871  -7.7523
    -6.8027  -6.7475  -6.5346  -6.4161  -6.1333  -6.0529  -5.9694  -5.8211
    -5.6654  -5.6211  -5.2080  -5.1812  -5.1466  -5.0272  -4.8506  -4.7296
    -4.6190  -4.5648  -4.4620  -4.3275  -4.0145  -3.8267  -3.7896  -3.6907
    -3.6587  -3.5384  -3.4852  -3.3226  -3.2512  -2.9296  -2.9086  -2.7971
    -2.3227  -2.1442  -1.8081  -1.7650  -1.6886  -1.4247  -1.3679  -1.2547
    -0.9629  -0.8814  -0.8226  -0.7870  -0.7435  -0.6900  -0.5270  -0.4350
    -0.3760  -0.3340  -0.1786  -0.0772   0.0008   0.0519   0.1523   0.2215
     0.3282   0.4211   0.5495   0.5615   0.7676   0.8556   3.5521   3.7450
     4.5587   4.5718   5.6451   5.8947   6.0145   6.1254   7.4494   7.5349
     7.6576   8.3056   8.6545   8.9827   9.2145   9.2789   9.4321   9.9300

          k = 0.0000 0.2718-0.1756 ( 53888 PWs)   bands (ev):

   -20.7100 -20.6472 -20.5492 -20.4875 -20.2993 -20.2499 -18.5174 -18.4572
   -18.3791 -18.2596 -18.2091 -18.1496 -18.1050 -18.0673 -17.7763 -17.7433
   -17.7122 -17.6437 -16.1734 -16.1719 -13.1812 -13.1625 -10.8692 -10.8189
   -10.4050 -10.3614  -9.0733  -8.9236  -8.5849  -8.4032  -7.9185  -7.7225
    -6.8387  -6.7346  -6.5067  -6.4169  -6.1319  -6.0301  -5.9713  -5.8392
    -5.7207  -5.5866  -5.2759  -5.1410  -5.0157  -5.0003  -4.9740  -4.7015
    -4.6120  -4.5731  -4.4835  -4.3584  -3.9978  -3.8223  -3.7816  -3.6776
    -3.6514  -3.5425  -3.5092  -3.3461  -3.2324  -2.9421  -2.8954  -2.7779
    -2.3227  -2.1441  -1.8015  -1.7811  -1.6758  -1.4249  -1.3860  -1.2498
    -0.9560  -0.8944  -0.8189  -0.7789  -0.7432  -0.7037  -0.4914  -0.4549
    -0.3969  -0.3285  -0.1446  -0.0918  -0.0164   0.0607   0.1764   0.2029
     0.3183   0.4340   0.5088   0.5869   0.7835   0.8445   3.5572   3.7408
     4.5383   4.5921   5.6729   5.8357   6.0445   6.1283   7.4560   7.5318
     7.7438   8.0540   8.8071   9.0539   9.2198   9.2787   9.5260   9.7617

          k = 0.2500 0.0578 0.0055 ( 53868 PWs)   bands (ev):

   -20.7092 -20.6259 -20.5520 -20.4749 -20.3023 -20.2669 -18.4912 -18.4628
   -18.3711 -18.3039 -18.1996 -18.1905 -18.0234 -18.0065 -17.8351 -17.7656
   -17.7331 -17.6462 -16.1870 -16.1857 -13.1843 -13.1774 -10.8880 -10.8174
   -10.3956 -10.3740  -9.0523  -8.8915  -8.5457  -8.3600  -7.9736  -7.7445
    -6.8346  -6.7387  -6.5321  -6.4303  -6.1667  -6.0510  -5.9353  -5.7871
    -5.6722  -5.4916  -5.2753  -5.1394  -5.0267  -5.0001  -4.9005  -4.7171
    -4.5739  -4.5119  -4.4626  -4.3331  -4.1784  -4.0624  -3.8439  -3.7861
    -3.6779  -3.6068  -3.5131  -3.3543  -3.1678  -3.1005  -2.9987  -2.7530
    -2.1455  -2.0555  -1.7916  -1.6487  -1.6073  -1.4580  -1.4231  -1.2498
    -0.9525  -0.8082  -0.8002  -0.7607  -0.6339  -0.6198  -0.4573  -0.3951
    -0.3122  -0.2633  -0.1650  -0.0974  -0.0409   0.0164   0.1274   0.1763
     0.3321   0.4127   0.5312   0.5550   0.8901   0.9438   3.5302   3.7259
     4.4667   4.4890   5.6487   5.7441   5.9553   6.0027   7.4885   7.6170
     7.6381   8.3348   8.6637   9.2408   9.3513   9.4945  10.0795  10.1751

          k = 0.2500 0.0578-0.1856 ( 53864 PWs)   bands (ev):

   -20.7085 -20.6271 -20.5525 -20.4733 -20.3033 -20.2664 -18.4908 -18.4633
   -18.3700 -18.3057 -18.1991 -18.1897 -18.0210 -18.0103 -17.8316 -17.7750
   -17.7238 -17.6488 -16.1878 -16.1848 -13.2039 -13.1572 -10.8684 -10.8450
   -10.4178 -10.3417  -9.0344  -8.9112  -8.5742  -8.3431  -7.9114  -7.8011
    -6.7914  -6.7513  -6.5490  -6.4708  -6.1768  -6.0274  -5.8913  -5.7663
    -5.6485  -5.5528  -5.2977  -5.1470  -5.0672  -4.9595  -4.8562  -4.7360
    -4.6208  -4.5425  -4.4347  -4.2503  -4.1960  -4.0961  -3.8228  -3.7863
    -3.6810  -3.5776  -3.5343  -3.3267  -3.1952  -3.1148  -2.9713  -2.7821
    -2.1432  -2.0831  -1.7779  -1.6512  -1.5751  -1.4961  -1.3759  -1.2729
    -0.9359  -0.8487  -0.7821  -0.7162  -0.6978  -0.5930  -0.4367  -0.4132
    -0.3457  -0.2516  -0.1516  -0.1002  -0.0131   0.0155   0.1274   0.1609
     0.3185   0.4223   0.5113   0.5697   0.9037   0.9360   3.5346   3.7178
     4.4598   4.4956   5.6156   5.8488   5.9077   5.9816   7.4598   7.6472
     7.7809   7.9825   8.9840   9.2168   9.3920   9.5490   9.7264  10.1662

          k = 0.2500 0.3296 0.0210 ( 53913 PWs)   bands (ev):

   -20.6854 -20.6473 -20.5410 -20.4834 -20.3009 -20.2659 -18.5056 -18.4498
   -18.3926 -18.2772 -18.2130 -18.1764 -18.0605 -18.0250 -17.8016 -17.7625
   -17.7437 -17.6539 -16.1741 -16.1715 -13.1889 -13.1529 -10.8836 -10.8391
   -10.4065 -10.3437  -9.0430  -8.8962  -8.5368  -8.3545  -7.9830  -7.8416
    -6.8368  -6.7341  -6.6010  -6.4956  -6.2519  -5.9440  -5.8099  -5.7147
    -5.6118  -5.5567  -5.2608  -5.1198  -5.0544  -4.9562  -4.8980  -4.8190
    -4.5885  -4.5206  -4.5028  -4.4035  -4.0484  -3.8557  -3.8070  -3.7419
    -3.7022  -3.5895  -3.5508  -3.2737  -3.2645  -3.0561  -2.9967  -2.7201
    -2.1996  -2.1456  -1.8357  -1.7058  -1.6660  -1.5190  -1.4981  -1.2570
    -0.8686  -0.8250  -0.7979  -0.7250  -0.6796  -0.6524  -0.4865  -0.3920
    -0.3297  -0.2862  -0.1603  -0.1072   0.0003   0.0154   0.1685   0.2052
     0.3855   0.4160   0.5333   0.5579   0.8523   0.9294   3.5609   3.7342
     4.4815   4.5019   5.6564   5.7975   5.9957   5.9968   7.4494   7.5926
     8.1243   8.6158   8.8941   9.0357   9.2877   9.3146   9.5339   9.8171

          k = 0.2500 0.3296-0.1701 ( 53921 PWs)   bands (ev):

   -20.6853 -20.6471 -20.5424 -20.4818 -20.3021 -20.2651 -18.5064 -18.4487
   -18.3911 -18.2812 -18.2061 -18.1821 -18.0510 -18.0337 -17.8091 -17.7572
   -17.7377 -17.6572 -16.1748 -16.1708 -13.1796 -13.1625 -10.8840 -10.8341
   -10.3976 -10.3605  -9.0273  -8.9021  -8.5410  -8.3469  -8.0202  -7.8135
    -6.8711  -6.7258  -6.5966  -6.4530  -6.2366  -6.0150  -5.7983  -5.6845
    -5.6056  -5.5475  -5.2990  -5.1843  -4.9939  -4.9292  -4.8471  -4.7879
    -4.6660  -4.5999  -4.4652  -4.3830  -4.0056  -3.9099  -3.8277  -3.7590
    -3.6493  -3.5837  -3.5692  -3.2996  -3.2008  -3.0701  -2.9945  -2.7243
    -2.2113  -2.0903  -1.9007  -1.7345  -1.6640  -1.5540  -1.3475  -1.3284
    -0.8811  -0.7955  -0.7812  -0.7484  -0.6836  -0.6691  -0.4620  -0.4188
    -0.3459  -0.2788  -0.1276  -0.0830  -0.0333   0.0180   0.1681   0.2102
     0.3506   0.4567   0.4935   0.5818   0.8567   0.9262   3.5537   3.7432
     4.4605   4.5245   5.6273   5.8277   5.9555   6.0340   7.4214   7.6210
     8.1568   8.5118   8.8307   9.2056   9.2427   9.3328   9.6503   9.7633

          k = 0.2500-0.2140-0.0100 ( 53949 PWs)   bands (ev):

   -20.6968 -20.6348 -20.5411 -20.4810 -20.3030 -20.2672 -18.4981 -18.4619
   -18.3994 -18.2741 -18.2167 -18.1750 -18.0905 -18.0404 -17.7877 -17.7257
   -17.7169 -17.6501 -16.1897 -16.1868 -13.1898 -13.1538 -10.8676 -10.8408
   -10.4139 -10.3437  -9.0469  -8.9171  -8.6011  -8.3805  -7.8681  -7.7108
    -6.8218  -6.7293  -6.4879  -6.3975  -6.2520  -6.0426  -5.9443  -5.8122
    -5.6802  -5.5874  -5.2927  -5.2125  -5.0689  -5.0116  -4.9288  -4.7771
    -4.6350  -4.5881  -4.5041  -4.4456  -4.0055  -3.8705  -3.7728  -3.7032
    -3.6855  -3.5393  -3.4812  -3.2289  -3.2013  -3.1004  -2.9937  -2.7910
    -2.1534  -2.0586  -1.7173  -1.6417  -1.5980  -1.3483  -1.2788  -1.2336
    -0.9552  -0.9240  -0.8474  -0.7396  -0.7209  -0.6170  -0.5037  -0.4520
    -0.3343  -0.3149  -0.1362  -0.1105   0.0303   0.0395   0.0971   0.1229
     0.2804   0.4180   0.5336   0.5533   0.8209   0.8630   3.5535   3.7349
     4.4642   4.5054   5.6310   5.8332   5.9410   6.0204   7.4721   7.6520
     7.8974   8.5248   8.7614   9.1549   9.3322   9.3672   9.7431   9.9320

          k = 0.2500-0.2140-0.2011 ( 53910 PWs)   bands (ev):

   -20.6966 -20.6349 -20.5417 -20.4806 -20.3026 -20.2675 -18.4999 -18.4615
   -18.3946 -18.2852 -18.2053 -18.1780 -18.0789 -18.0552 -17.7782 -17.7391
   -17.7099 -17.6509 -16.1892 -16.1873 -13.1831 -13.1607 -10.8862 -10.8190
   -10.4010 -10.3591  -9.0776  -8.8885  -8.5868  -8.3905  -7.8867  -7.6906
    -6.8195  -6.7421  -6.4853  -6.3884  -6.2261  -6.0227  -5.9985  -5.8284
    -5.7000  -5.6016  -5.2391  -5.1227  -5.1009  -5.0735  -4.8510  -4.7612
    -4.7303  -4.6966  -4.4484  -4.3765  -3.9868  -3.8841  -3.7725  -3.7136
    -3.6354  -3.5603  -3.5307  -3.2396  -3.2000  -3.1030  -2.9743  -2.7837
    -2.1397  -2.0670  -1.6810  -1.6521  -1.6335  -1.3530  -1.2704  -1.2330
    -0.9565  -0.9258  -0.8384  -0.7878  -0.6571  -0.6356  -0.4895  -0.4608
    -0.3660  -0.2839  -0.1597  -0.1236   0.0237   0.0592   0.1092   0.1231
     0.3041   0.4017   0.5034   0.5800   0.8093   0.8739   3.5626   3.7274
     4.4613   4.5029   5.6587   5.7988   5.9225   6.0483   7.5181   7.6021
     7.9894   8.2464   9.0693   9.1871   9.2264   9.4778   9.5873   9.8443

          k =-0.5000-0.1155-0.0111 ( 53846 PWs)   bands (ev):

   -20.6815 -20.6243 -20.5446 -20.4670 -20.3073 -20.2877 -18.4817 -18.4466
   -18.3914 -18.3195 -18.2293 -18.2045 -18.0136 -18.0068 -17.8202 -17.7371
   -17.7337 -17.6524 -16.2088 -16.2070 -13.1845 -13.1763 -10.8996 -10.8177
   -10.3856 -10.3795  -9.0616  -8.8540  -8.5710  -8.3681  -7.8933  -7.6614
    -6.8006  -6.7470  -6.4498  -6.3984  -6.2089  -6.0960  -6.0203  -5.8307
    -5.7162  -5.5773  -5.1697  -5.1679  -5.0496  -5.0268  -4.8922  -4.8148
    -4.5644  -4.5482  -4.4884  -4.3140  -4.1900  -4.1327  -3.8043  -3.7507
    -3.7143  -3.6847  -3.5052  -3.3542  -3.3029  -3.0974  -3.0275  -2.7697
    -2.0366  -1.9382  -1.6597  -1.5878  -1.4594  -1.3494  -1.2909  -1.1743
    -0.9421  -0.9319  -0.7678  -0.6775  -0.5801  -0.5514  -0.4779  -0.4176
    -0.3422  -0.3398  -0.1553  -0.1011  -0.0751  -0.0102   0.1158   0.1416
     0.3219   0.3759   0.5408   0.5632   0.8967   0.9689   3.5462   3.7275
     4.3956   4.4187   5.5796   5.6748   5.8430   5.9336   7.5435   7.6884
     8.6858   8.7548   8.9723   9.1537   9.3594   9.3872   9.7754   9.8989

          k =-0.5000-0.1155-0.2022 ( 53874 PWs)   bands (ev):

   -20.6811 -20.6249 -20.5445 -20.4667 -20.3074 -20.2877 -18.4816 -18.4466
   -18.3895 -18.3241 -18.2222 -18.2082 -18.0196 -18.0024 -17.8123 -17.7649
   -17.7090 -17.6563 -16.2084 -16.2074 -13.2034 -13.1568 -10.8714 -10.8543
   -10.4101 -10.3465  -9.0164  -8.9024  -8.5917  -8.3510  -7.8510  -7.7041
    -6.7777  -6.7526  -6.4701  -6.4102  -6.1892  -6.0907  -6.0682  -5.7354
    -5.6741  -5.5562  -5.3210  -5.3162  -5.0049  -4.9583  -4.8162  -4.7504
    -4.6047  -4.5980  -4.4442  -4.2854  -4.2449  -4.1496  -3.8110  -3.7774
    -3.7194  -3.5715  -3.5556  -3.3363  -3.2680  -3.1051  -3.0647  -2.7871
    -2.0446  -1.9316  -1.6703  -1.5725  -1.4661  -1.3295  -1.2946  -1.1812
    -0.9496  -0.9278  -0.7746  -0.6550  -0.6146  -0.5396  -0.4468  -0.4383
    -0.3974  -0.3110  -0.1446  -0.0720  -0.0543  -0.0043   0.1258   0.1272
     0.2629   0.4015   0.5293   0.5671   0.9310   0.9405   3.5583   3.7108
     4.3796   4.4375   5.5738   5.7441   5.7784   5.9340   7.4964   7.7372
     8.6724   8.7498   9.0056   9.1443   9.3210   9.4324   9.8024   9.9016

          k =-0.5000 0.1563 0.0044 ( 53938 PWs)   bands (ev):

   -20.6682 -20.6374 -20.5344 -20.4748 -20.3042 -20.2856 -18.4847 -18.4555
   -18.4083 -18.2956 -18.2234 -18.2019 -18.0200 -18.0058 -17.8326 -17.7658
   -17.7271 -17.6581 -16.1893 -16.1871 -13.1901 -13.1520 -10.8860 -10.8524
   -10.4058 -10.3417  -9.0160  -8.8846  -8.5554  -8.3331  -7.9618  -7.7994
    -6.8507  -6.7208  -6.5730  -6.4868  -6.3127  -5.9092  -5.7986  -5.7300
    -5.6399  -5.5421  -5.2972  -5.1386  -5.0347  -4.9843  -4.9333  -4.8154
    -4.7185  -4.5894  -4.4723  -4.4212  -4.0338  -3.9405  -3.7994  -3.7593
    -3.6809  -3.5860  -3.5253  -3.2654  -3.2260  -3.1783  -3.0614  -2.7371
    -2.0798  -1.9936  -1.8028  -1.5966  -1.5941  -1.5109  -1.3725  -1.2904
    -0.8914  -0.7859  -0.6897  -0.6558  -0.5862  -0.5376  -0.4864  -0.4221
    -0.3501  -0.3236  -0.1592  -0.0947  -0.0229   0.0147   0.1100   0.1196
     0.3189   0.4439   0.5110   0.5566   0.9014   0.9383   3.5589   3.7216
     4.3804   4.4349   5.6485   5.7651   5.8724   5.9105   7.4773   7.6905
     8.7075   8.8074   9.0173   9.1938   9.3537   9.4455   9.5599   9.7258

          k =-0.5000 0.1563-0.1867 ( 53932 PWs)   bands (ev):

   -20.6682 -20.6374 -20.5344 -20.4749 -20.3040 -20.2857 -18.4848 -18.4539
   -18.4098 -18.2991 -18.2151 -18.2068 -18.0134 -18.0114 -17.8326 -17.7703
   -17.7242 -17.6576 -16.1904 -16.1861 -13.1816 -13.1607 -10.9011 -10.8334
   -10.3935 -10.3585  -9.0362  -8.8659  -8.5344  -8.3443  -7.9954  -7.7704
    -6.8552  -6.7330  -6.5879  -6.4043  -6.3119  -6.0384  -5.8095  -5.6959
    -5.6190  -5.4996  -5.2789  -5.1677  -5.0052  -4.9926  -4.8958  -4.8540
    -4.7824  -4.6785  -4.3666  -4.3190  -4.0635  -3.9915  -3.7982  -3.7444
    -3.6521  -3.5861  -3.5839  -3.2795  -3.1912  -3.1478  -3.1015  -2.7288
    -2.0484  -2.0353  -1.7893  -1.5981  -1.5790  -1.4852  -1.4477  -1.2623
    -0.8812  -0.7915  -0.6830  -0.6628  -0.5920  -0.5370  -0.4767  -0.4361
    -0.3672  -0.3088  -0.1662  -0.1096  -0.0139   0.0332   0.0964   0.1446
     0.3515   0.4055   0.4920   0.5795   0.8936   0.9430   3.5576   3.7252
     4.3876   4.4243   5.6316   5.7677   5.8708   5.9263   7.4872   7.6732
     8.7171   8.7720   9.0754   9.3173   9.3247   9.3611   9.5104   9.6080

     highest occupied, lowest unoccupied level (ev):     0.9689    3.5119

!    total energy              =   -1056.90660317 Ry
     Harris-Foulkes estimate   =   -1056.90660317 Ry
     estimated scf accuracy    <          2.1E-09 Ry

     total all-electron energy =     -3932.349437 Ry

     The total energy is the sum of the following terms:

     one-electron contribution =    -457.69998942 Ry
     hartree contribution      =     309.87193486 Ry
     xc contribution           =    -209.54816524 Ry
     ewald contribution        =    -420.87100505 Ry
     Dispersion Correction     =      -0.23035226 Ry
     one-center paw contrib.   =    -278.42902607 Ry

     convergence has been achieved in  14 iterations

     Forces acting on atoms (cartesian axes, Ry/au):

     atom    1 type  4   force =    -0.00226236   -0.00407657   -0.00025120
     atom    2 type  4   force =     0.00226236    0.00407657    0.00025120
     atom    3 type  4   force =    -0.00411193   -0.00432135    0.00032590
     atom    4 type  4   force =     0.00411193    0.00432135   -0.00032590
     atom    5 type  4   force =     0.00169324   -0.00075575    0.00055770
     atom    6 type  4   force =    -0.00169324    0.00075575   -0.00055770
     atom    7 type  4   force =    -0.00235852    0.00100744    0.00460664
     atom    8 type  4   force =     0.00235852   -0.00100744   -0.00460664
     atom    9 type  4   force =    -0.00224312   -0.00153294   -0.00080011
     atom   10 type  4   force =     0.00224312    0.00153294    0.00080011
     atom   11 type  4   force =     0.00151416    0.00475014   -0.00246609
     atom   12 type  4   force =    -0.00151416   -0.00475014    0.00246609
     atom   13 type  1   force =     0.00089573   -0.00584693    0.00194426
     atom   14 type  1   force =    -0.00089573    0.00584693   -0.00194426
     atom   15 type  2   force =     0.00590497   -0.00443627    0.00191777
     atom   16 type  2   force =    -0.00590497    0.00443627   -0.00191777
     atom   17 type  2   force =    -0.00688769    0.00434031   -0.00187512
     atom   18 type  2   force =     0.00688769   -0.00434031    0.00187512
     atom   19 type  1   force =     0.00338699   -0.00190892   -0.00222544
     atom   20 type  1   force =    -0.00338699    0.00190892    0.00222544
     atom   21 type  1   force =    -0.00006827    0.00457550    0.00057685
     atom   22 type  1   force =     0.00006827   -0.00457550   -0.00057685
     atom   23 type  4   force =    -0.00193839    0.00208075    0.00090961
     atom   24 type  4   force =     0.00193839   -0.00208075   -0.00090961
     atom   25 type  4   force =    -0.00161287   -0.00235646    0.00160595
     atom   26 type  4   force =     0.00161287    0.00235646   -0.00160595
     atom   27 type  1   force =     0.00136246    0.00048533    0.00172243
     atom   28 type  1   force =    -0.00136246   -0.00048533   -0.00172243
     atom   29 type  1   force =     0.00279779    0.00334480   -0.00158360
     atom   30 type  1   force =    -0.00279779   -0.00334480    0.00158360
     atom   31 type  1   force =    -0.00366122   -0.00004598   -0.00042883
     atom   32 type  1   force =     0.00366122    0.00004598    0.00042883
     atom   33 type  1   force =     0.00253602    0.00020140   -0.00140718
     atom   34 type  1   force =    -0.00253602   -0.00020140    0.00140718
     atom   35 type  3   force =     0.00003729    0.00035723    0.00198816
     atom   36 type  3   force =    -0.00003729   -0.00035723   -0.00198816
     atom   37 type  3   force =     0.00073917    0.00028403    0.00010531
     atom   38 type  3   force =    -0.00073917   -0.00028403   -0.00010531
     atom   39 type  3   force =     0.00079305    0.00054082   -0.00005114
     atom   40 type  3   force =    -0.00079305   -0.00054082    0.00005114
     atom   41 type  3   force =    -0.00049964    0.00016012    0.00013033
     atom   42 type  3   force =     0.00049964   -0.00016012   -0.00013033
     atom   43 type  3   force =     0.00099328    0.00089796   -0.00013060
     atom   44 type  3   force =    -0.00099328   -0.00089796    0.00013060
     atom   45 type  3   force =    -0.00020611    0.00005286   -0.00039203
     atom   46 type  3   force =     0.00020611   -0.00005286    0.00039203
     atom   47 type  3   force =    -0.00072447    0.00055773    0.00076172
     atom   48 type  3   force =     0.00072447   -0.00055773   -0.00076172
     atom   49 type  3   force =     0.00084753   -0.00031756   -0.00045525
     atom   50 type  3   force =    -0.00084753    0.00031756    0.00045525

     Total force =     0.028802     Total SCF correction =     0.000127


     Computing stress (Cartesian axis) and pressure

          total   stress  (Ry/bohr**3)                   (kbar)     P=   -9.35
  -0.00007396   0.00005664   0.00001451        -10.88      8.33      2.14
   0.00005664  -0.00007010   0.00001461          8.33    -10.31      2.15
   0.00001451   0.00001461  -0.00004653          2.14      2.15     -6.84


     Writing output data file scf.save
 
     init_run     :     18.24s CPU     18.86s WALL (       1 calls)
     electrons    :    465.75s CPU    483.96s WALL (       1 calls)
     forces       :      9.49s CPU      9.54s WALL (       1 calls)
     stress       :     38.36s CPU     38.37s WALL (       1 calls)

     Called by init_run:
     wfcinit      :     11.85s CPU     12.41s WALL (       1 calls)
     potinit      :      2.28s CPU      2.30s WALL (       1 calls)

     Called by electrons:
     c_bands      :    410.37s CPU    427.21s WALL (      14 calls)
     sum_band     :     48.53s CPU     49.76s WALL (      14 calls)
     v_of_rho     :      0.92s CPU      1.00s WALL (      15 calls)
     newd         :      1.94s CPU      1.98s WALL (      15 calls)
     PAW_pot      :      3.62s CPU      3.62s WALL (      15 calls)
     mix_rho      :      0.22s CPU      0.23s WALL (      14 calls)

     Called by c_bands:
     init_us_2    :      4.58s CPU      4.60s WALL (     434 calls)
     cegterg      :    394.48s CPU    411.28s WALL (     196 calls)

     Called by sum_band:
     sum_band:bec :      0.05s CPU      0.05s WALL (     196 calls)
     addusdens    :      2.02s CPU      2.05s WALL (      14 calls)

     Called by *egterg:
     h_psi        :    243.92s CPU    254.60s WALL (     964 calls)
     s_psi        :     34.37s CPU     34.37s WALL (     964 calls)
     g_psi        :      2.19s CPU      2.19s WALL (     754 calls)
     cdiaghg      :     32.33s CPU     32.39s WALL (     950 calls)

     Called by h_psi:
     h_psi:pot    :    241.19s CPU    251.83s WALL (     964 calls)
     h_psi:calbec :     31.50s CPU     31.66s WALL (     964 calls)
     vloc_psi     :    175.39s CPU    185.86s WALL (     964 calls)
     add_vuspsi   :     34.30s CPU     34.31s WALL (     964 calls)

     General routines
     calbec       :     46.39s CPU     46.60s WALL (    1230 calls)
     fft          :      0.56s CPU      0.69s WALL (     219 calls)
     fftw         :    186.34s CPU    197.10s WALL (  146306 calls)
 
     Parallel routines
     fft_scatter  :     51.65s CPU     58.25s WALL (  146525 calls)
 
     PWSCF        :  8m58.26s CPU     9m18.63s WALL

 
   This run was terminated on:  22: 2:15  21Dec2017            

=------------------------------------------------------------------------------=
   JOB DONE.
=------------------------------------------------------------------------------=
