
     Program PWSCF v.6.1 (svn rev. 13369) starts on  4Nov2017 at  5:19:17 

     This program is part of the open-source Quantum ESPRESSO suite
     for quantum simulation of materials; please cite
         "P. Giannozzi et al., J. Phys.:Condens. Matter 21 395502 (2009);
          URL http://www.quantum-espresso.org", 
     in publications or presentations arising from this work. More details at
     http://www.quantum-espresso.org/quote

     Parallel version (MPI), running on     8 processors
     R & G space division:  proc/nbgrp/npool/nimage =       8
     Waiting for input...
     Reading input from standard input

     Current dimensions of program PWSCF are:
     Max number of different atomic species (ntypx) = 10
     Max number of k-points (npk) =  40000
     Max angular momentum in pseudopotentials (lmaxx) =  3
               file C.pbe-n-kjpaw_psl.0.1.UPF: wavefunction(s)  2P renormalized
               file N.pbe-n-kjpaw_psl.0.1.UPF: wavefunction(s)  2P renormalized
               file H.pbe-kjpaw_psl.0.1.UPF: wavefunction(s)  1S renormalized
               file O.pbe-n-kjpaw_psl.0.1.UPF: wavefunction(s)  2P renormalized

     -------------------------------------
     Parameters for Dispersion Correction:
     -------------------------------------
       atom      VdW radius       C_6     

        C          2.744         60.710
        N          2.640         42.670
        H          1.892          4.857
        O          2.536         24.284

     Subspace diagonalization in iterative solution of the eigenvalue problem:
     a serial algorithm will be used

 
     Parallelization info
     --------------------
     sticks:   dense  smooth     PW     G-vecs:    dense   smooth      PW
     Min         692     692    182               121407   121407   16249
     Max         693     693    183               121419   121419   16258
     Sum        5541    5541   1459               971287   971287  130019
 


     bravais-lattice index     =            0
     lattice parameter (alat)  =      11.2497  a.u.
     unit-cell volume          =    7191.3223 (a.u.)^3
     number of atoms/cell      =          112
     number of atomic types    =            4
     number of electrons       =       376.00
     number of Kohn-Sham states=          225
     kinetic-energy cutoff     =     100.0000  Ry
     charge density cutoff     =     400.0000  Ry
     convergence threshold     =      1.0E-08
     mixing beta               =       0.5000
     number of iterations used =            8  plain     mixing
     Exchange-correlation      =  SLA  PW   PBX  PBC ( 1  4  3  4 0 0)

     celldm(1)=  11.249729  celldm(2)=   0.000000  celldm(3)=   0.000000
     celldm(4)=   0.000000  celldm(5)=   0.000000  celldm(6)=   0.000000

     crystal axes: (cart. coord. in units of alat)
               a(1) = (   1.000000   0.000000   0.000000 )  
               a(2) = (   0.000000   1.378996   0.000000 )  
               a(3) = (  -0.061377   0.000000   3.662854 )  

     reciprocal axes: (cart. coord. in units 2 pi/alat)
               b(1) = (  1.000000  0.000000  0.016757 )  
               b(2) = (  0.000000  0.725165  0.000000 )  
               b(3) = (  0.000000  0.000000  0.273011 )  


     PseudoPot. # 1 for  C read from file:
     /scratch/ahofstet/pseudo/C.pbe-n-kjpaw_psl.0.1.UPF
     MD5 check sum: 430fe95172b1e11ef3f8ed03bac87931
     Pseudo is Projector augmented-wave + core cor, Zval =  4.0
     Generated using "atomic" code by A. Dal Corso  v.5.0.99 svn rev. 10869
     Shape of augmentation charge: BESSEL
     Using radial grid of 1073 points,  4 beta functions with: 
                l(1) =   0
                l(2) =   0
                l(3) =   1
                l(4) =   1
     Q(r) pseudized with 0 coefficients 


     PseudoPot. # 2 for  N read from file:
     /scratch/ahofstet/pseudo/N.pbe-n-kjpaw_psl.0.1.UPF
     MD5 check sum: f73187c8b701007e77325f868c9291d7
     Pseudo is Projector augmented-wave + core cor, Zval =  5.0
     Generated using "atomic" code by A. Dal Corso  v.5.0.99 svn rev. 10869
     Shape of augmentation charge: PSQ
     Using radial grid of 1085 points,  4 beta functions with: 
                l(1) =   0
                l(2) =   0
                l(3) =   1
                l(4) =   1
     Q(r) pseudized with 0 coefficients 


     PseudoPot. # 3 for  H read from file:
     /scratch/ahofstet/pseudo/H.pbe-kjpaw_psl.0.1.UPF
     MD5 check sum: 94e484f906d9e9773b2f6e52662335b2
     Pseudo is Projector augmented-wave, Zval =  1.0
     Generated using "atomic" code by A. Dal Corso  v.5.0.99 svn rev. 10869
     Shape of augmentation charge: PSQ
     Using radial grid of  929 points,  2 beta functions with: 
                l(1) =   0
                l(2) =   0
     Q(r) pseudized with 0 coefficients 


     PseudoPot. # 4 for  O read from file:
     /scratch/ahofstet/pseudo/O.pbe-n-kjpaw_psl.0.1.UPF
     MD5 check sum: 3f94a2996a3169367d6eb21d9b593f20
     Pseudo is Projector augmented-wave + core cor, Zval =  6.0
     Generated using "atomic" code by A. Dal Corso  v.5.0.99 svn rev. 10869
     Shape of augmentation charge: BESSEL
     Using radial grid of 1095 points,  4 beta functions with: 
                l(1) =   0
                l(2) =   0
                l(3) =   1
                l(4) =   1
     Q(r) pseudized with 0 coefficients 


     atomic species   valence    mass     pseudopotential
        C              4.00    12.01070      C( 1.00)
        N              5.00    14.00670      N( 1.00)
        H              1.00     1.00794      H( 1.00)
        O              6.00    15.99940      O( 1.00)

      4 Sym. Ops., with inversion, found ( 2 have fractional translation)



   Cartesian axes

     site n.     atom                  positions (alat units)
         1           N   tau(   1) = (   0.2608756   1.2694269   0.1690707  )
         2           N   tau(   2) = (   0.7084356   0.5799290   1.6623566  )
         3           N   tau(   3) = (   0.6777469   0.1095689   3.4937838  )
         4           N   tau(   4) = (   0.2301869   0.7990668   2.0004979  )
         5           N   tau(   5) = (   0.0909510   0.0238439   0.2352983  )
         6           N   tau(   6) = (   0.8783603   0.7133419   1.5961289  )
         7           N   tau(   7) = (   0.8476716   1.3551519   3.4275562  )
         8           N   tau(   8) = (   0.0602622   0.6656540   2.0667255  )
         9           N   tau(   9) = (   0.1210550   0.0569120   0.4496131  )
        10           N   tau(  10) = (   0.8482562   0.7464099   1.3818141  )
        11           N   tau(  11) = (   0.8175675   1.3220839   3.2132413  )
        12           N   tau(  12) = (   0.0903663   0.6325859   2.2810404  )
        13           N   tau(  13) = (   0.3058449   1.3291869   0.5267992  )
        14           N   tau(  14) = (   0.6634664   0.6396890   1.3046280  )
        15           N   tau(  15) = (   0.6327776   0.0498089   3.1360552  )
        16           N   tau(  16) = (   0.2751562   0.7393068   2.3582265  )
        17           N   tau(  17) = (   0.7106255   1.0554671   0.5434840  )
        18           N   tau(  18) = (   0.2586858   0.3659692   1.2879433  )
        19           N   tau(  19) = (   0.2279970   0.3235287   3.1193705  )
        20           N   tau(  20) = (   0.6799368   1.0130266   2.3749112  )
        21           N   tau(  21) = (   0.8804131   0.9215067   0.5020963  )
        22           N   tau(  22) = (   0.0888982   0.2320088   1.3293309  )
        23           N   tau(  23) = (   0.0582094   0.4574892   3.1607582  )
        24           N   tau(  24) = (   0.8497244   1.1469871   2.3335235  )
        25           N   tau(  25) = (   0.8700173   0.8598955   0.2856310  )
        26           N   tau(  26) = (   0.0992940   0.1703976   1.5457962  )
        27           N   tau(  27) = (   0.0686053   0.5191003   3.3772235  )
        28           N   tau(  28) = (   0.8393285   1.2085982   2.1170582  )
        29           N   tau(  29) = (   0.6998057   0.7888877   3.4703303  )
        30           N   tau(  30) = (   0.2081281   0.0993898   2.0239514  )
        31           N   tau(  31) = (   0.2388168   0.5901081   0.1925242  )
        32           N   tau(  32) = (   0.7304944   1.2796060   1.6389031  )
        33           N   tau(  33) = (   0.5984057   0.8069055   3.2697443  )
        34           N   tau(  34) = (   0.3095281   0.1174076   2.2245374  )
        35           N   tau(  35) = (   0.3402168   0.5720903   0.3931101  )
        36           N   tau(  36) = (   0.6290945   1.2615882   1.4383171  )
        37           N   tau(  37) = (   0.4250339   0.9433491   3.2887487  )
        38           N   tau(  38) = (   0.4829000   0.2538512   2.2055330  )
        39           N   tau(  39) = (   0.5135887   0.4356467   0.3741057  )
        40           N   tau(  40) = (   0.4557226   1.1251446   1.4573215  )
        41           N   tau(  41) = (   0.4075389   1.0187919   3.5006123  )
        42           N   tau(  42) = (   0.5003949   0.3292940   1.9936694  )
        43           N   tau(  43) = (   0.5310836   0.3602039   0.1622422  )
        44           N   tau(  44) = (   0.4382276   1.0497018   1.6691851  )
        45           C   tau(  45) = (   0.3919643   1.2237020   0.3483282  )
        46           C   tau(  46) = (   0.5773470   0.5342041   1.4830991  )
        47           C   tau(  47) = (   0.5466583   0.1552938   3.3145263  )
        48           C   tau(  48) = (   0.3612755   0.8447917   2.1797554  )
        49           C   tau(  49) = (   0.5887180   1.0810946   0.3508586  )
        50           C   tau(  50) = (   0.3805933   0.3915967   1.4805687  )
        51           C   tau(  51) = (   0.3499046   0.2979012   3.3119959  )
        52           C   tau(  52) = (   0.5580293   0.9873991   2.1822858  )
        53           C   tau(  53) = (   0.6909471   0.9546266   0.1813508  )
        54           C   tau(  54) = (   0.2783642   0.2651287   1.6500764  )
        55           C   tau(  55) = (   0.2476754   0.4243692   3.4815036  )
        56           C   tau(  56) = (   0.6602584   1.1138671   2.0127781  )
        57           C   tau(  57) = (   0.5796014   0.9208712   3.6098785  )
        58           C   tau(  58) = (   0.3283324   0.2313732   1.8844032  )
        59           C   tau(  59) = (   0.3590212   0.4581247   0.0529759  )
        60           C   tau(  60) = (   0.6102901   1.1476226   1.7784513  )
        61           H   tau(  61) = (   0.2838047   1.2062523   0.0065874  )
        62           H   tau(  62) = (   0.6855066   0.5167544   1.8248398  )
        63           H   tau(  63) = (   0.6548179   0.1727435   3.6562670  )
        64           H   tau(  64) = (   0.2531159   0.8622414   1.8380147  )
        65           H   tau(  65) = (   0.9985645   0.7535573   0.2218705  )
        66           H   tau(  66) = (  -0.0292532   0.0640594   1.6095567  )
        67           H   tau(  67) = (  -0.0599420   0.6254385   3.4409839  )
        68           H   tau(  68) = (   0.9678758   1.3149365   2.0532977  )
        69           N   tau(  69) = (   0.7756835   0.2627150   0.7303071  )
        70           N   tau(  70) = (   0.1936277   0.9522129   1.1011201  )
        71           N   tau(  71) = (   0.1629390   1.1162808   2.9325474  )
        72           N   tau(  72) = (   0.7449948   0.4267829   2.5617343  )
        73           C   tau(  73) = (   0.9219019   0.4527067   0.7999672  )
        74           C   tau(  74) = (   0.0474094   1.1422046   1.0314601  )
        75           C   tau(  75) = (   0.0167207   0.9262891   2.8628873  )
        76           C   tau(  76) = (   0.8912132   0.2367912   2.6313944  )
        77           C   tau(  77) = (   0.6437657   0.1671865   0.9198707  )
        78           C   tau(  78) = (   0.3255456   0.8566844   0.9115566  )
        79           C   tau(  79) = (   0.2948569   1.2118093   2.7429838  )
        80           C   tau(  80) = (   0.6130769   0.5223114   2.7512979  )
        81           H   tau(  81) = (   0.8795149   0.1448385   0.6526205  )
        82           H   tau(  82) = (   0.0897964   0.8343364   1.1788067  )
        83           H   tau(  83) = (   0.0591076   1.2341573   3.0102339  )
        84           H   tau(  84) = (   0.8488262   0.5446594   2.4840478  )
        85           H   tau(  85) = (   0.6669700   0.3210209   0.6012827  )
        86           H   tau(  86) = (   0.3023412   1.0105188   1.2301445  )
        87           H   tau(  87) = (   0.2716525   1.0579750   3.0615718  )
        88           H   tau(  88) = (   0.6362813   0.3684770   2.4327099  )
        89           H   tau(  89) = (   0.0180540   0.5095656   0.6540367  )
        90           H   tau(  90) = (   0.9512573   1.1990635   1.1773906  )
        91           H   tau(  91) = (   0.9205685   0.8694302   3.0088178  )
        92           H   tau(  92) = (  -0.0126347   0.1799323   2.4854639  )
        93           H   tau(  93) = (   0.8148877   0.5882072   0.8637978  )
        94           H   tau(  94) = (   0.1544236   1.2777051   0.9676294  )
        95           H   tau(  95) = (   0.1237349   0.7907886   2.7990566  )
        96           H   tau(  96) = (   0.7841989   0.1012907   2.6952250  )
        97           H   tau(  97) = (   0.0356204   0.3952081   0.9328983  )
        98           H   tau(  98) = (   0.9336909   1.0847060   0.8985290  )
        99           H   tau(  99) = (   0.9030022   0.9837877   2.7299562  )
       100           H   tau( 100) = (   0.0049317   0.2942898   2.7643255  )
       101           H   tau( 101) = (   0.5288375   0.2970098   0.9819837  )
       102           H   tau( 102) = (   0.4404738   0.9865077   0.8494435  )
       103           H   tau( 103) = (   0.4097851   1.0819860   2.6808708  )
       104           H   tau( 104) = (   0.4981487   0.3924881   2.8134109  )
       105           H   tau( 105) = (   0.7582600   0.1194513   1.0555722  )
       106           H   tau( 106) = (   0.2110513   0.8089492   0.7758550  )
       107           H   tau( 107) = (   0.1803626   1.2595445   2.6072822  )
       108           H   tau( 108) = (   0.7275713   0.5700466   2.8869994  )
       109           H   tau( 109) = (   0.5486172   0.0228513   0.8576346  )
       110           H   tau( 110) = (   0.4206941   0.7123492   0.9737926  )
       111           H   tau( 111) = (   0.3900054   1.3561445   2.8052198  )
       112           H   tau( 112) = (   0.5179284   0.6666466   2.6890618  )

     number of k points=     4
                       cart. coord. in units 2pi/alat
        k(    1) = (   0.0000000   0.0000000   0.0000000), wk =   0.2222222
        k(    2) = (   0.0000000   0.2417218   0.0000000), wk =   0.4444444
        k(    3) = (   0.3333333   0.0000000   0.0055856), wk =   0.4444444
        k(    4) = (   0.3333333   0.2417218   0.0055856), wk =   0.8888889

     Dense  grid:   971287 G-vectors     FFT dimensions: (  72, 100, 270)

     Estimated max dynamical RAM per process >     927.38MB

     Estimated total allocated dynamical RAM >    7419.01MB

     Check: negative/imaginary core charge=   -0.000002    0.000000

     Initial potential from superposition of free atoms

     starting charge  375.99827, renormalised to  376.00000
     Starting wfc are  328 randomized atomic wfcs
     Checking if some PAW data can be deallocated... 

     total cpu time spent up to now is       44.9 secs

     per-process dynamical memory:   537.0 Mb

     Self-consistent Calculation

     iteration #  1     ecut=   100.00 Ry     beta=0.50
     Davidson diagonalization with overlap
     ethr =  1.00E-02,  avg # of iterations =  3.8

     total cpu time spent up to now is      150.3 secs

     total energy              =   -1842.84625177 Ry
     Harris-Foulkes estimate   =   -1846.93543213 Ry
     estimated scf accuracy    <       8.53152773 Ry

     iteration #  2     ecut=   100.00 Ry     beta=0.50
     Davidson diagonalization with overlap
     ethr =  2.27E-03,  avg # of iterations =  4.2

     total cpu time spent up to now is      212.4 secs

     total energy              =   -1843.44516316 Ry
     Harris-Foulkes estimate   =   -1843.82529367 Ry
     estimated scf accuracy    <       0.93751452 Ry

     iteration #  3     ecut=   100.00 Ry     beta=0.50
     Davidson diagonalization with overlap
     ethr =  2.49E-04,  avg # of iterations =  9.8

     total cpu time spent up to now is      339.8 secs

     total energy              =   -1843.87796859 Ry
     Harris-Foulkes estimate   =   -1844.08998951 Ry
     estimated scf accuracy    <       0.54923119 Ry

     iteration #  4     ecut=   100.00 Ry     beta=0.50
     Davidson diagonalization with overlap
     ethr =  1.46E-04,  avg # of iterations =  2.0

     total cpu time spent up to now is      394.3 secs

     total energy              =   -1843.88223813 Ry
     Harris-Foulkes estimate   =   -1843.94530242 Ry
     estimated scf accuracy    <       0.12254773 Ry

     iteration #  5     ecut=   100.00 Ry     beta=0.50
     Davidson diagonalization with overlap
     ethr =  3.26E-05,  avg # of iterations =  7.2

     total cpu time spent up to now is      506.2 secs

     total energy              =   -1843.95463037 Ry
     Harris-Foulkes estimate   =   -1843.98012866 Ry
     estimated scf accuracy    <       0.09340174 Ry

     iteration #  6     ecut=   100.00 Ry     beta=0.50
     Davidson diagonalization with overlap
     ethr =  2.48E-05,  avg # of iterations =  1.8

     total cpu time spent up to now is      559.3 secs

     total energy              =   -1843.94231474 Ry
     Harris-Foulkes estimate   =   -1843.95989550 Ry
     estimated scf accuracy    <       0.03710020 Ry

     iteration #  7     ecut=   100.00 Ry     beta=0.50
     Davidson diagonalization with overlap
     ethr =  9.87E-06,  avg # of iterations =  8.5

     total cpu time spent up to now is      650.5 secs

     total energy              =   -1843.95426877 Ry
     Harris-Foulkes estimate   =   -1843.95440258 Ry
     estimated scf accuracy    <       0.00166658 Ry

     iteration #  8     ecut=   100.00 Ry     beta=0.50
     Davidson diagonalization with overlap
     ethr =  4.43E-07,  avg # of iterations =  5.0

     total cpu time spent up to now is      738.1 secs

     total energy              =   -1843.95410521 Ry
     Harris-Foulkes estimate   =   -1843.95491033 Ry
     estimated scf accuracy    <       0.00165367 Ry

     iteration #  9     ecut=   100.00 Ry     beta=0.50
     Davidson diagonalization with overlap
     ethr =  4.40E-07,  avg # of iterations =  3.0

     total cpu time spent up to now is      795.0 secs

     total energy              =   -1843.95419202 Ry
     Harris-Foulkes estimate   =   -1843.95427703 Ry
     estimated scf accuracy    <       0.00017303 Ry

     iteration # 10     ecut=   100.00 Ry     beta=0.50
     Davidson diagonalization with overlap
     ethr =  4.60E-08,  avg # of iterations =  4.0

     total cpu time spent up to now is      898.9 secs

     total energy              =   -1843.95438851 Ry
     Harris-Foulkes estimate   =   -1843.95444784 Ry
     estimated scf accuracy    <       0.00016026 Ry

     iteration # 11     ecut=   100.00 Ry     beta=0.50
     Davidson diagonalization with overlap
     ethr =  4.26E-08,  avg # of iterations =  2.0

     total cpu time spent up to now is      953.2 secs

     total energy              =   -1843.95437253 Ry
     Harris-Foulkes estimate   =   -1843.95439521 Ry
     estimated scf accuracy    <       0.00004872 Ry

     iteration # 12     ecut=   100.00 Ry     beta=0.50
     Davidson diagonalization with overlap
     ethr =  1.30E-08,  avg # of iterations =  4.0

     total cpu time spent up to now is     1037.7 secs

     total energy              =   -1843.95439794 Ry
     Harris-Foulkes estimate   =   -1843.95440101 Ry
     estimated scf accuracy    <       0.00000687 Ry

     iteration # 13     ecut=   100.00 Ry     beta=0.50
     Davidson diagonalization with overlap
     ethr =  1.83E-09,  avg # of iterations =  2.0

     total cpu time spent up to now is     1093.0 secs

     total energy              =   -1843.95439774 Ry
     Harris-Foulkes estimate   =   -1843.95439851 Ry
     estimated scf accuracy    <       0.00000145 Ry

     iteration # 14     ecut=   100.00 Ry     beta=0.50
     Davidson diagonalization with overlap
     ethr =  3.85E-10,  avg # of iterations =  4.0

     total cpu time spent up to now is     1189.6 secs

     total energy              =   -1843.95439906 Ry
     Harris-Foulkes estimate   =   -1843.95439933 Ry
     estimated scf accuracy    <       0.00000083 Ry

     iteration # 15     ecut=   100.00 Ry     beta=0.50
     Davidson diagonalization with overlap
     ethr =  2.20E-10,  avg # of iterations =  2.0

     total cpu time spent up to now is     1243.8 secs

     total energy              =   -1843.95439890 Ry
     Harris-Foulkes estimate   =   -1843.95439908 Ry
     estimated scf accuracy    <       0.00000034 Ry

     iteration # 16     ecut=   100.00 Ry     beta=0.50
     Davidson diagonalization with overlap
     ethr =  9.03E-11,  avg # of iterations =  4.0

     total cpu time spent up to now is     1324.0 secs

     total energy              =   -1843.95439906 Ry
     Harris-Foulkes estimate   =   -1843.95439909 Ry
     estimated scf accuracy    <       0.00000007 Ry

     iteration # 17     ecut=   100.00 Ry     beta=0.50
     Davidson diagonalization with overlap
     ethr =  1.83E-11,  avg # of iterations =  3.5

     total cpu time spent up to now is     1381.5 secs

     total energy              =   -1843.95439906 Ry
     Harris-Foulkes estimate   =   -1843.95439907 Ry
     estimated scf accuracy    <       0.00000001 Ry

     iteration # 18     ecut=   100.00 Ry     beta=0.50
     Davidson diagonalization with overlap
     ethr =  2.94E-12,  avg # of iterations =  4.0

     total cpu time spent up to now is     1472.9 secs

     End of self-consistent calculation

          k = 0.0000 0.0000 0.0000 (121387 PWs)   bands (ev):

   -21.6159 -21.6159 -21.5929 -21.5928 -20.9306 -20.9305 -20.8845 -20.8845
   -20.6781 -20.6780 -20.6504 -20.6504 -17.1188 -17.1173 -17.0960 -17.0955
   -16.5008 -16.4976 -16.4498 -16.4469 -15.9037 -15.9021 -15.7521 -15.7501
   -15.7217 -15.7210 -15.5738 -15.5723 -15.3370 -15.3367 -15.3276 -15.3275
   -14.4556 -14.4555 -14.4535 -14.4528 -13.1623 -13.1605 -13.1460 -13.1454
   -10.7674 -10.7671 -10.6106 -10.6097 -10.3171 -10.3170 -10.2430 -10.2377
    -9.8376  -9.8368  -9.7932  -9.7730  -9.5205  -9.4830  -9.3766  -9.3507
    -9.3158  -9.2901  -9.2876  -9.2605  -8.8458  -8.8238  -8.7800  -8.7737
    -8.5566  -8.5335  -8.3170  -8.3121  -7.8967  -7.8914  -7.8888  -7.8834
    -7.1355  -7.1226  -6.9983  -6.9937  -6.7362  -6.7100  -6.5927  -6.5438
    -6.5408  -6.5071  -6.2769  -6.2556  -5.6536  -5.5677  -5.5451  -5.5038
    -5.4812  -5.3440  -5.3023  -5.2865  -5.2149  -5.2129  -5.2080  -5.1682
    -4.9701  -4.9684  -4.8156  -4.8092  -4.5592  -4.5499  -4.4690  -4.4657
    -4.3642  -4.3358  -4.3261  -4.3206  -4.2813  -4.2132  -4.2035  -4.1781
    -3.2138  -3.1510  -3.0185  -2.9973  -2.8279  -2.7842  -2.7205  -2.7001
    -2.6809  -2.6370  -2.5164  -2.5155  -2.3853  -2.3784  -2.3688  -2.3565
    -2.2078  -2.1849  -2.0705  -1.9989  -1.8268  -1.7972  -1.7559  -1.7240
    -1.5503  -1.5434  -1.5202  -1.4981  -1.3143  -1.3134  -1.2729  -1.2466
    -1.1782  -1.1011  -1.0408  -1.0360  -0.9522  -0.9393  -0.8800  -0.8372
    -0.6890  -0.6872  -0.5819  -0.5647  -0.4862  -0.4850  -0.3142  -0.3047
    -0.2950  -0.2687  -0.1361  -0.0780  -0.0615  -0.0222  -0.0006   0.0311
     0.0468   0.0836   0.1249   0.1422   0.1546   0.1591   0.2141   0.2235
     0.2345   0.2559   0.3674   0.3714   0.4652   0.4717   0.4843   0.5080
     1.1014   1.1035   1.1826   1.1892   4.7234   4.7253   4.8429   4.8483
     5.3307   5.3387   5.3770   5.3841   5.5434   5.5501   5.5631   5.5732
     5.8650   5.8704   6.1338   6.1367   7.3152   7.3230   7.3239   7.3386
     7.5442   7.6008   7.6367   7.6663   7.8888   8.0571   8.5700   8.6710
     8.9884   9.0270   9.0693   9.2570   9.3243   9.3612   9.3766   9.3899
     9.3986

          k = 0.0000 0.2417 0.0000 (121384 PWs)   bands (ev):

   -21.6152 -21.6152 -21.5927 -21.5926 -20.9358 -20.9358 -20.8819 -20.8819
   -20.6785 -20.6784 -20.6484 -20.6484 -17.1129 -17.1118 -17.1015 -17.1010
   -16.5017 -16.5001 -16.4477 -16.4462 -15.8924 -15.8914 -15.7669 -15.7657
   -15.7120 -15.7116 -15.5849 -15.5840 -15.3439 -15.3438 -15.3153 -15.3153
   -14.4639 -14.4638 -14.4437 -14.4435 -13.1704 -13.1698 -13.1367 -13.1367
   -10.7315 -10.7305 -10.6534 -10.6518 -10.3191 -10.3189 -10.2350 -10.2325
    -9.8333  -9.8316  -9.8111  -9.7997  -9.4636  -9.4176  -9.3865  -9.3557
    -9.3321  -9.3040  -9.2897  -9.2844  -8.8498  -8.8419  -8.7643  -8.7625
    -8.5851  -8.5736  -8.2769  -8.2731  -7.9389  -7.9349  -7.8562  -7.8542
    -7.1248  -7.1248  -7.0446  -7.0368  -6.6781  -6.6472  -6.5957  -6.5951
    -6.5261  -6.5092  -6.2755  -6.2632  -5.6045  -5.5489  -5.5295  -5.5143
    -5.4558  -5.4101  -5.3125  -5.2976  -5.2316  -5.2308  -5.1581  -5.1516
    -5.0093  -5.0057  -4.7984  -4.7945  -4.5576  -4.5533  -4.4714  -4.4693
    -4.3560  -4.3520  -4.3250  -4.2967  -4.2889  -4.2267  -4.2156  -4.1974
    -3.1704  -3.1244  -3.0419  -2.9996  -2.8057  -2.7692  -2.7638  -2.7116
    -2.7065  -2.6242  -2.5606  -2.4729  -2.3922  -2.3597  -2.3030  -2.2683
    -2.1742  -2.1415  -2.0704  -2.0478  -1.9149  -1.8929  -1.8310  -1.7987
    -1.5939  -1.5790  -1.4933  -1.4720  -1.3193  -1.3118  -1.2538  -1.2425
    -1.1457  -1.0953  -1.0644  -1.0075  -0.9379  -0.9338  -0.8468  -0.8244
    -0.5951  -0.5889  -0.5297  -0.5246  -0.4191  -0.4173  -0.3631  -0.3438
    -0.2914  -0.2791  -0.1362  -0.1165  -0.0802  -0.0199  -0.0169   0.0037
     0.0274   0.0452   0.1046   0.1256   0.1476   0.1679   0.2281   0.2332
     0.2347   0.2592   0.2981   0.3050   0.4729   0.4749   0.4997   0.5106
     1.0474   1.0482   1.2417   1.2441   4.6816   4.6819   4.8990   4.9005
     5.3306   5.3360   5.3932   5.3979   5.4858   5.4999   5.5940   5.5946
     5.9292   5.9322   6.0718   6.0750   7.1955   7.1968   7.4461   7.4509
     7.7408   7.7413   7.7469   7.8211   8.1120   8.1370   8.5264   8.5374
     8.7231   8.8619   8.9011   9.0853   9.1900   9.2191   9.2384   9.3001
     9.3118

          k = 0.3333 0.0000 0.0056 (121427 PWs)   bands (ev):

   -21.6078 -21.6077 -21.5936 -21.5935 -20.9186 -20.9186 -20.8920 -20.8920
   -20.6770 -20.6770 -20.6623 -20.6623 -17.1126 -17.1124 -17.0971 -17.0968
   -16.4890 -16.4873 -16.4618 -16.4600 -15.9204 -15.9193 -15.7573 -15.7570
   -15.7219 -15.7216 -15.5857 -15.5856 -15.3466 -15.3451 -15.3209 -15.3206
   -14.4868 -14.4863 -14.4029 -14.4028 -13.1522 -13.1517 -13.1378 -13.1369
   -10.7703 -10.7695 -10.6247 -10.6238 -10.3139 -10.3119 -10.2239 -10.2219
    -9.8430  -9.8402  -9.8219  -9.8183  -9.4389  -9.4130  -9.4020  -9.4012
    -9.3205  -9.3157  -9.2577  -9.2404  -8.8506  -8.8477  -8.7656  -8.7581
    -8.5565  -8.5492  -8.2800  -8.2712  -7.9332  -7.9318  -7.8822  -7.8773
    -7.1034  -7.0919  -7.0398  -7.0324  -6.6829  -6.6768  -6.6058  -6.5806
    -6.5548  -6.5408  -6.2922  -6.2787  -5.7830  -5.7739  -5.5308  -5.5149
    -5.4764  -5.4187  -5.3649  -5.3628  -5.2565  -5.2556  -5.1871  -5.1829
    -4.7854  -4.7837  -4.6249  -4.6087  -4.5632  -4.5619  -4.4827  -4.4721
    -4.3759  -4.3430  -4.3219  -4.3053  -4.2770  -4.2611  -4.2046  -4.1678
    -3.1864  -3.1441  -3.0896  -3.0366  -2.8358  -2.7945  -2.7248  -2.7217
    -2.5863  -2.5460  -2.5037  -2.5010  -2.3744  -2.3426  -2.2628  -2.2137
    -2.1967  -2.0679  -2.0412  -2.0372  -1.9189  -1.8848  -1.8516  -1.8471
    -1.4943  -1.4510  -1.4080  -1.3987  -1.3666  -1.3543  -1.1655  -1.1617
    -1.1476  -1.1028  -1.0823  -1.0317  -0.9307  -0.8763  -0.7984  -0.7815
    -0.6326  -0.6320  -0.5331  -0.5251  -0.4375  -0.4347  -0.3888  -0.3860
    -0.2686  -0.2547  -0.1820  -0.1751  -0.1062  -0.0796  -0.0644  -0.0396
    -0.0137   0.0149   0.0430   0.0981   0.1694   0.1889   0.2139   0.2342
     0.2384   0.2538   0.2646   0.2738   0.4512   0.4654   0.5118   0.5590
     0.9695   0.9727   1.0935   1.0970   4.6884   4.6919   4.8305   4.8320
     5.2626   5.2713   5.4299   5.4301   5.4939   5.5004   5.6765   5.6942
     5.9128   5.9152   6.1423   6.1444   7.2059   7.2121   7.3905   7.3916
     7.7940   7.8369   7.8982   7.9553   8.3229   8.4045   8.5646   8.6949
     8.8833   8.9190   9.0429   9.1031   9.1461   9.2113   9.2972   9.3225
     9.3507

          k = 0.3333 0.2417 0.0056 (121457 PWs)   bands (ev):

   -21.6076 -21.6075 -21.5933 -21.5933 -20.9222 -20.9212 -20.8902 -20.8894
   -20.6774 -20.6773 -20.6617 -20.6614 -17.1089 -17.1088 -17.1011 -17.1010
   -16.4888 -16.4873 -16.4618 -16.4602 -15.9315 -15.9224 -15.7550 -15.7496
   -15.7225 -15.7221 -15.5852 -15.5744 -15.3491 -15.3389 -15.3303 -15.3162
   -14.4821 -14.4789 -14.4133 -14.4077 -13.1544 -13.1496 -13.1405 -13.1350
   -10.7365 -10.7354 -10.6639 -10.6628 -10.3197 -10.3020 -10.2368 -10.2183
    -9.8498  -9.8424  -9.8109  -9.8062  -9.4411  -9.4211  -9.4133  -9.3923
    -9.3085  -9.2944  -9.2740  -9.2509  -8.8508  -8.8366  -8.7706  -8.7634
    -8.5439  -8.5285  -8.2960  -8.2912  -7.9205  -7.9131  -7.8929  -7.8872
    -7.1076  -7.0853  -7.0261  -7.0201  -6.7445  -6.6721  -6.5956  -6.5703
    -6.5449  -6.5415  -6.2889  -6.2778  -5.7102  -5.6525  -5.5375  -5.5064
    -5.4692  -5.3917  -5.3429  -5.3039  -5.2561  -5.2536  -5.2138  -5.1964
    -5.1774  -5.0434  -4.6140  -4.5710  -4.5521  -4.5365  -4.4768  -4.4732
    -4.3693  -4.3193  -4.3056  -4.2963  -4.2818  -4.2548  -4.0822  -4.0382
    -3.1795  -3.1322  -3.1073  -3.0795  -2.7846  -2.7477  -2.7002  -2.6815
    -2.5712  -2.5610  -2.5364  -2.4900  -2.4792  -2.4125  -2.3226  -2.2905
    -2.1472  -2.1382  -2.0844  -2.0311  -1.8794  -1.8628  -1.8119  -1.7872
    -1.5117  -1.4913  -1.3940  -1.3887  -1.3607  -1.3491  -1.1648  -1.1606
    -1.1336  -1.0915  -1.0280  -1.0055  -0.9568  -0.9203  -0.7862  -0.7721
    -0.5730  -0.5641  -0.5165  -0.5114  -0.4401  -0.3787  -0.3648  -0.3448
    -0.2792  -0.2653  -0.1827  -0.1457  -0.1247  -0.0909  -0.0771  -0.0469
    -0.0250   0.0135   0.0516   0.1059   0.1364   0.1681   0.1802   0.2028
     0.2120   0.2220   0.2620   0.2740   0.4712   0.4763   0.5101   0.5403
     0.9137   0.9145   1.1525   1.1600   4.6860   4.7275   4.8103   4.8390
     5.2397   5.3041   5.3437   5.4046   5.5373   5.5455   5.6826   5.6930
     5.9409   5.9612   6.0708   6.0744   7.1799   7.2846   7.3394   7.4162
     7.8509   7.8861   7.9390   7.9783   8.4013   8.5021   8.5194   8.7195
     8.7645   8.8324   8.8987   9.0417   9.1236   9.1536   9.2120   9.2252
     9.3175

     highest occupied, lowest unoccupied level (ev):     1.2441    4.6816

!    total energy              =   -1843.95439907 Ry
     Harris-Foulkes estimate   =   -1843.95439907 Ry
     estimated scf accuracy    <          1.8E-09 Ry

     total all-electron energy =     -7132.635113 Ry

     The total energy is the sum of the following terms:

     one-electron contribution =   -1013.11621948 Ry
     hartree contribution      =     654.35150992 Ry
     xc contribution           =    -387.49033985 Ry
     ewald contribution        =    -539.98990001 Ry
     Dispersion Correction     =      -0.54843298 Ry
     one-center paw contrib.   =    -557.16101668 Ry

     convergence has been achieved in  18 iterations

     Forces acting on atoms (cartesian axes, Ry/au):

     atom    1 type  2   force =    -0.00323250   -0.00187872    0.00083734
     atom    2 type  2   force =     0.00323250   -0.00187872   -0.00083734
     atom    3 type  2   force =     0.00323250    0.00187872   -0.00083734
     atom    4 type  2   force =    -0.00323250    0.00187872    0.00083734
     atom    5 type  2   force =    -0.00191149   -0.00294245   -0.00311651
     atom    6 type  2   force =     0.00191149   -0.00294245    0.00311651
     atom    7 type  2   force =     0.00191149    0.00294245    0.00311651
     atom    8 type  2   force =    -0.00191149    0.00294245   -0.00311651
     atom    9 type  2   force =     0.00293190   -0.00121328    0.00401574
     atom   10 type  2   force =    -0.00293190   -0.00121328   -0.00401574
     atom   11 type  2   force =    -0.00293190    0.00121328   -0.00401574
     atom   12 type  2   force =     0.00293190    0.00121328    0.00401574
     atom   13 type  2   force =    -0.00521805   -0.00060961   -0.00087907
     atom   14 type  2   force =     0.00521805   -0.00060961    0.00087907
     atom   15 type  2   force =     0.00521805    0.00060961    0.00087907
     atom   16 type  2   force =    -0.00521805    0.00060961   -0.00087907
     atom   17 type  2   force =     0.00392264    0.00019089   -0.00007140
     atom   18 type  2   force =    -0.00392264    0.00019089    0.00007140
     atom   19 type  2   force =    -0.00392264   -0.00019089    0.00007140
     atom   20 type  2   force =     0.00392264   -0.00019089   -0.00007140
     atom   21 type  2   force =    -0.00070654    0.00178702    0.00238524
     atom   22 type  2   force =     0.00070654    0.00178702   -0.00238524
     atom   23 type  2   force =     0.00070654   -0.00178702   -0.00238524
     atom   24 type  2   force =    -0.00070654   -0.00178702    0.00238524
     atom   25 type  2   force =    -0.00034079    0.00087071   -0.00249651
     atom   26 type  2   force =     0.00034079    0.00087071    0.00249651
     atom   27 type  2   force =     0.00034079   -0.00087071    0.00249651
     atom   28 type  2   force =    -0.00034079   -0.00087071   -0.00249651
     atom   29 type  2   force =    -0.00271870    0.00156796   -0.00217612
     atom   30 type  2   force =     0.00271870    0.00156796    0.00217612
     atom   31 type  2   force =     0.00271870   -0.00156796    0.00217612
     atom   32 type  2   force =    -0.00271870   -0.00156796   -0.00217612
     atom   33 type  2   force =     0.00044639   -0.00044893    0.00142093
     atom   34 type  2   force =    -0.00044639   -0.00044893   -0.00142093
     atom   35 type  2   force =    -0.00044639    0.00044893   -0.00142093
     atom   36 type  2   force =     0.00044639    0.00044893    0.00142093
     atom   37 type  2   force =     0.00083931    0.00073383    0.00110424
     atom   38 type  2   force =    -0.00083931    0.00073383   -0.00110424
     atom   39 type  2   force =    -0.00083931   -0.00073383   -0.00110424
     atom   40 type  2   force =     0.00083931   -0.00073383    0.00110424
     atom   41 type  2   force =    -0.00013506   -0.00070690   -0.00166028
     atom   42 type  2   force =     0.00013506   -0.00070690    0.00166028
     atom   43 type  2   force =     0.00013506    0.00070690    0.00166028
     atom   44 type  2   force =    -0.00013506    0.00070690   -0.00166028
     atom   45 type  1   force =     0.00535795   -0.00825576    0.00178782
     atom   46 type  1   force =    -0.00535795   -0.00825576   -0.00178782
     atom   47 type  1   force =    -0.00535795    0.00825576   -0.00178782
     atom   48 type  1   force =     0.00535795    0.00825576    0.00178782
     atom   49 type  1   force =    -0.00472388    0.00861069   -0.00154143
     atom   50 type  1   force =     0.00472388    0.00861069    0.00154143
     atom   51 type  1   force =     0.00472388   -0.00861069    0.00154143
     atom   52 type  1   force =    -0.00472388   -0.00861069   -0.00154143
     atom   53 type  1   force =     0.00368874    0.00031132   -0.00021239
     atom   54 type  1   force =    -0.00368874    0.00031132    0.00021239
     atom   55 type  1   force =    -0.00368874   -0.00031132    0.00021239
     atom   56 type  1   force =     0.00368874   -0.00031132   -0.00021239
     atom   57 type  1   force =     0.00078110   -0.00077502    0.00047988
     atom   58 type  1   force =    -0.00078110   -0.00077502   -0.00047988
     atom   59 type  1   force =    -0.00078110    0.00077502   -0.00047988
     atom   60 type  1   force =     0.00078110    0.00077502    0.00047988
     atom   61 type  3   force =    -0.00072867   -0.00021828    0.00016219
     atom   62 type  3   force =     0.00072867   -0.00021828   -0.00016219
     atom   63 type  3   force =     0.00072867    0.00021828   -0.00016219
     atom   64 type  3   force =    -0.00072867    0.00021828    0.00016219
     atom   65 type  3   force =    -0.00104103    0.00046370    0.00004252
     atom   66 type  3   force =     0.00104103    0.00046370   -0.00004252
     atom   67 type  3   force =     0.00104103   -0.00046370   -0.00004252
     atom   68 type  3   force =    -0.00104103   -0.00046370    0.00004252
     atom   69 type  2   force =     0.00025551   -0.00035116    0.00070075
     atom   70 type  2   force =    -0.00025551   -0.00035116   -0.00070075
     atom   71 type  2   force =    -0.00025551    0.00035116   -0.00070075
     atom   72 type  2   force =     0.00025551    0.00035116    0.00070075
     atom   73 type  1   force =     0.00009786    0.00025045    0.00025588
     atom   74 type  1   force =    -0.00009786    0.00025045   -0.00025588
     atom   75 type  1   force =    -0.00009786   -0.00025045   -0.00025588
     atom   76 type  1   force =     0.00009786   -0.00025045    0.00025588
     atom   77 type  1   force =     0.00119702    0.00034996   -0.00092177
     atom   78 type  1   force =    -0.00119702    0.00034996    0.00092177
     atom   79 type  1   force =    -0.00119702   -0.00034996    0.00092177
     atom   80 type  1   force =     0.00119702   -0.00034996   -0.00092177
     atom   81 type  3   force =    -0.00025344    0.00000747    0.00016218
     atom   82 type  3   force =     0.00025344    0.00000747   -0.00016218
     atom   83 type  3   force =     0.00025344   -0.00000747   -0.00016218
     atom   84 type  3   force =    -0.00025344   -0.00000747    0.00016218
     atom   85 type  3   force =     0.00057016    0.00067383    0.00007218
     atom   86 type  3   force =    -0.00057016    0.00067383   -0.00007218
     atom   87 type  3   force =    -0.00057016   -0.00067383   -0.00007218
     atom   88 type  3   force =     0.00057016   -0.00067383    0.00007218
     atom   89 type  3   force =     0.00011217    0.00020896   -0.00001392
     atom   90 type  3   force =    -0.00011217    0.00020896    0.00001392
     atom   91 type  3   force =    -0.00011217   -0.00020896    0.00001392
     atom   92 type  3   force =     0.00011217   -0.00020896   -0.00001392
     atom   93 type  3   force =     0.00078422   -0.00050542    0.00019798
     atom   94 type  3   force =    -0.00078422   -0.00050542   -0.00019798
     atom   95 type  3   force =    -0.00078422    0.00050542   -0.00019798
     atom   96 type  3   force =     0.00078422    0.00050542    0.00019798
     atom   97 type  3   force =    -0.00104722    0.00074586   -0.00054407
     atom   98 type  3   force =     0.00104722    0.00074586    0.00054407
     atom   99 type  3   force =     0.00104722   -0.00074586    0.00054407
     atom  100 type  3   force =    -0.00104722   -0.00074586   -0.00054407
     atom  101 type  3   force =     0.00024717   -0.00101518    0.00000980
     atom  102 type  3   force =    -0.00024717   -0.00101518   -0.00000980
     atom  103 type  3   force =    -0.00024717    0.00101518   -0.00000980
     atom  104 type  3   force =     0.00024717    0.00101518    0.00000980
     atom  105 type  3   force =    -0.00032422    0.00049339    0.00036533
     atom  106 type  3   force =     0.00032422    0.00049339   -0.00036533
     atom  107 type  3   force =     0.00032422   -0.00049339   -0.00036533
     atom  108 type  3   force =    -0.00032422   -0.00049339    0.00036533
     atom  109 type  3   force =     0.00045522   -0.00025091   -0.00102275
     atom  110 type  3   force =    -0.00045522   -0.00025091    0.00102275
     atom  111 type  3   force =    -0.00045522    0.00025091    0.00102275
     atom  112 type  3   force =     0.00045522    0.00025091   -0.00102275

     Total force =     0.038566     Total SCF correction =     0.000062


     Computing stress (Cartesian axis) and pressure

          total   stress  (Ry/bohr**3)                   (kbar)     P=   -4.01
  -0.00004399   0.00000000   0.00001285         -6.47      0.00      1.89
   0.00000000  -0.00002239   0.00000000          0.00     -3.29      0.00
   0.00001285   0.00000000  -0.00001547          1.89      0.00     -2.28


     Writing output data file scf.save
 
     init_run     :     40.21s CPU     41.61s WALL (       1 calls)
     electrons    :   1378.27s CPU   1428.24s WALL (       1 calls)
     forces       :     23.38s CPU     23.61s WALL (       1 calls)
     stress       :     89.66s CPU     90.03s WALL (       1 calls)

     Called by init_run:
     wfcinit      :     28.63s CPU     29.75s WALL (       1 calls)
     potinit      :      4.24s CPU      4.30s WALL (       1 calls)

     Called by electrons:
     c_bands      :   1242.90s CPU   1283.77s WALL (      18 calls)
     sum_band     :    117.79s CPU    124.93s WALL (      18 calls)
     v_of_rho     :      2.32s CPU      2.57s WALL (      19 calls)
     newd         :      6.54s CPU      8.25s WALL (      19 calls)
     PAW_pot      :      8.13s CPU      8.15s WALL (      19 calls)
     mix_rho      :      0.57s CPU      0.62s WALL (      18 calls)

     Called by c_bands:
     init_us_2    :      5.81s CPU      5.85s WALL (     156 calls)
     cegterg      :   1219.01s CPU   1259.85s WALL (      72 calls)

     Called by sum_band:
     sum_band:bec :      0.07s CPU      0.07s WALL (      72 calls)
     addusdens    :      6.85s CPU      8.41s WALL (      18 calls)

     Called by *egterg:
     h_psi        :    605.63s CPU    637.32s WALL (     375 calls)
     s_psi        :    163.22s CPU    163.29s WALL (     375 calls)
     g_psi        :      2.81s CPU      2.81s WALL (     299 calls)
     cdiaghg      :     87.30s CPU     87.33s WALL (     371 calls)

     Called by h_psi:
     h_psi:pot    :    601.74s CPU    633.37s WALL (     375 calls)
     h_psi:calbec :    156.59s CPU    156.89s WALL (     375 calls)
     vloc_psi     :    281.66s CPU    312.92s WALL (     375 calls)
     add_vuspsi   :    163.48s CPU    163.55s WALL (     375 calls)

     General routines
     calbec       :    226.05s CPU    226.45s WALL (     467 calls)
     fft          :      1.48s CPU      1.91s WALL (     271 calls)
     fftw         :    302.35s CPU    338.05s WALL (  107756 calls)
 
     Parallel routines
     fft_scatter  :     59.85s CPU     91.23s WALL (  108027 calls)
 
     PWSCF        : 25m41.97s CPU    26m58.89s WALL

 
   This run was terminated on:   5:46:16   4Nov2017            

=------------------------------------------------------------------------------=
   JOB DONE.
=------------------------------------------------------------------------------=
