
     Program PWSCF v.6.1 (svn rev. 13369) starts on 20Dec2017 at 23: 9:16 

     This program is part of the open-source Quantum ESPRESSO suite
     for quantum simulation of materials; please cite
         "P. Giannozzi et al., J. Phys.:Condens. Matter 21 395502 (2009);
          URL http://www.quantum-espresso.org", 
     in publications or presentations arising from this work. More details at
     http://www.quantum-espresso.org/quote

     Parallel version (MPI), running on     8 processors
     R & G space division:  proc/nbgrp/npool/nimage =       8
     Waiting for input...
     Reading input from standard input

     Current dimensions of program PWSCF are:
     Max number of different atomic species (ntypx) = 10
     Max number of k-points (npk) =  40000
     Max angular momentum in pseudopotentials (lmaxx) =  3
               file C.pbe-n-kjpaw_psl.0.1.UPF: wavefunction(s)  2P renormalized
               file N.pbe-n-kjpaw_psl.0.1.UPF: wavefunction(s)  2P renormalized
               file H.pbe-kjpaw_psl.0.1.UPF: wavefunction(s)  1S renormalized
               file O.pbe-n-kjpaw_psl.0.1.UPF: wavefunction(s)  2P renormalized

     -------------------------------------
     Parameters for Dispersion Correction:
     -------------------------------------
       atom      VdW radius       C_6     

        C          2.744         60.710
        N          2.640         42.670
        H          1.892          4.857
        O          2.536         24.284

     Subspace diagonalization in iterative solution of the eigenvalue problem:
     a serial algorithm will be used

 
     Parallelization info
     --------------------
     sticks:   dense  smooth     PW     G-vecs:    dense   smooth      PW
     Min         932     932    252               128109   128109   18067
     Max         933     933    253               128116   128116   18072
     Sum        7457    7457   2023              1024879  1024879  144557
 


     bravais-lattice index     =            0
     lattice parameter (alat)  =      29.4665  a.u.
     unit-cell volume          =    7586.2039 (a.u.)^3
     number of atoms/cell      =          116
     number of atomic types    =            4
     number of electrons       =       400.00
     number of Kohn-Sham states=          240
     kinetic-energy cutoff     =     100.0000  Ry
     charge density cutoff     =     400.0000  Ry
     convergence threshold     =      1.0E-08
     mixing beta               =       0.5000
     number of iterations used =            8  plain     mixing
     Exchange-correlation      =  SLA  PW   PBX  PBC ( 1  4  3  4 0 0)

     celldm(1)=  29.466500  celldm(2)=   0.000000  celldm(3)=   0.000000
     celldm(4)=   0.000000  celldm(5)=   0.000000  celldm(6)=   0.000000

     crystal axes: (cart. coord. in units of alat)
               a(1) = (   1.000000   0.000000   0.000000 )  
               a(2) = (   0.000000   0.269480   0.000000 )  
               a(3) = (  -0.379724   0.000000   1.100304 )  

     reciprocal axes: (cart. coord. in units 2 pi/alat)
               b(1) = (  1.000000  0.000000  0.345109 )  
               b(2) = (  0.000000  3.710852  0.000000 )  
               b(3) = (  0.000000  0.000000  0.908840 )  


     PseudoPot. # 1 for  C read from file:
     /scratch/ahofstet/pseudo/C.pbe-n-kjpaw_psl.0.1.UPF
     MD5 check sum: 430fe95172b1e11ef3f8ed03bac87931
     Pseudo is Projector augmented-wave + core cor, Zval =  4.0
     Generated using "atomic" code by A. Dal Corso  v.5.0.99 svn rev. 10869
     Shape of augmentation charge: BESSEL
     Using radial grid of 1073 points,  4 beta functions with: 
                l(1) =   0
                l(2) =   0
                l(3) =   1
                l(4) =   1
     Q(r) pseudized with 0 coefficients 


     PseudoPot. # 2 for  N read from file:
     /scratch/ahofstet/pseudo/N.pbe-n-kjpaw_psl.0.1.UPF
     MD5 check sum: f73187c8b701007e77325f868c9291d7
     Pseudo is Projector augmented-wave + core cor, Zval =  5.0
     Generated using "atomic" code by A. Dal Corso  v.5.0.99 svn rev. 10869
     Shape of augmentation charge: PSQ
     Using radial grid of 1085 points,  4 beta functions with: 
                l(1) =   0
                l(2) =   0
                l(3) =   1
                l(4) =   1
     Q(r) pseudized with 0 coefficients 


     PseudoPot. # 3 for  H read from file:
     /scratch/ahofstet/pseudo/H.pbe-kjpaw_psl.0.1.UPF
     MD5 check sum: 94e484f906d9e9773b2f6e52662335b2
     Pseudo is Projector augmented-wave, Zval =  1.0
     Generated using "atomic" code by A. Dal Corso  v.5.0.99 svn rev. 10869
     Shape of augmentation charge: PSQ
     Using radial grid of  929 points,  2 beta functions with: 
                l(1) =   0
                l(2) =   0
     Q(r) pseudized with 0 coefficients 


     PseudoPot. # 4 for  O read from file:
     /scratch/ahofstet/pseudo/O.pbe-n-kjpaw_psl.0.1.UPF
     MD5 check sum: 3f94a2996a3169367d6eb21d9b593f20
     Pseudo is Projector augmented-wave + core cor, Zval =  6.0
     Generated using "atomic" code by A. Dal Corso  v.5.0.99 svn rev. 10869
     Shape of augmentation charge: BESSEL
     Using radial grid of 1095 points,  4 beta functions with: 
                l(1) =   0
                l(2) =   0
                l(3) =   1
                l(4) =   1
     Q(r) pseudized with 0 coefficients 


     atomic species   valence    mass     pseudopotential
        C              4.00    12.01070      C( 1.00)
        N              5.00    14.00670      N( 1.00)
        H              1.00     1.00794      H( 1.00)
        O              6.00    15.99940      O( 1.00)

      2 Sym. Ops., with inversion, found
          (note:  2 additional sym.ops. were found but ignored
           their fractional translations are incommensurate with FFT grid)


   Cartesian axes

     site n.     atom                  positions (alat units)
         1           N   tau(   1) = (  -0.2085592   0.0072244   0.8961524  )
         2           N   tau(   2) = (  -0.0186971   0.1275155   0.3460007  )
         3           N   tau(   3) = (   0.8288349   0.2622555   0.2041511  )
         4           N   tau(   4) = (   0.6389727   0.1419644   0.7543028  )
         5           C   tau(   5) = (  -0.2362521   0.0691398   0.9478256  )
         6           C   tau(   6) = (  -0.0463899   0.0656001   0.3976739  )
         7           C   tau(   7) = (   0.8565277   0.2003401   0.1524779  )
         8           C   tau(   8) = (   0.6666656   0.2038798   0.7026296  )
         9           N   tau(   9) = (  -0.2859525   0.1344777   0.9254411  )
        10           N   tau(  10) = (  -0.0960904   0.0002622   0.3752894  )
        11           N   tau(  11) = (   0.9062282   0.1350022   0.1748624  )
        12           N   tau(  12) = (   0.7163661   0.2692177   0.7250141  )
        13           O   tau(  13) = (  -0.3087080   0.1747433   1.0053505  )
        14           O   tau(  14) = (  -0.1188458   0.2294765   0.4551988  )
        15           O   tau(  15) = (   0.9289836   0.0947366   0.0949530  )
        16           O   tau(  16) = (   0.7391215   0.0400033   0.6451047  )
        17           N   tau(  17) = (  -0.2695425   0.1366444   1.0719275  )
        18           N   tau(  18) = (  -0.0796804   0.2675754   0.5217757  )
        19           N   tau(  19) = (   0.8898182   0.1328355   0.0283760  )
        20           N   tau(  20) = (   0.6999561   0.0019045   0.5785278  )
        21           C   tau(  21) = (  -0.2237727   0.0720920   1.0407139  )
        22           C   tau(  22) = (  -0.0339106   0.0626480   0.4905621  )
        23           C   tau(  23) = (   0.8440484   0.1973879   0.0595896  )
        24           C   tau(  24) = (   0.6541862   0.2068319   0.6097414  )
        25           N   tau(  25) = (   0.1996609   0.0218677  -0.0036110  )
        26           N   tau(  26) = (   0.0097988   0.1128723   0.5465407  )
        27           N   tau(  27) = (   0.4206148   0.2476122   1.1039146  )
        28           N   tau(  28) = (   0.6104769   0.1566076   0.5537628  )
        29           N   tau(  29) = (  -0.1332451  -0.0377782   1.0627420  )
        30           N   tau(  30) = (   0.0566171   0.1725181   0.5125903  )
        31           N   tau(  31) = (   0.7535207   0.3072581   0.0375615  )
        32           N   tau(  32) = (   0.5636586   0.0969618   0.5877132  )
        33           C   tau(  33) = (   0.2863565   0.1799344   0.0210728  )
        34           C   tau(  34) = (   0.0964943   0.2242854   0.5712246  )
        35           C   tau(  35) = (   0.3339192   0.0895455   1.0792307  )
        36           C   tau(  36) = (   0.5237814   0.0451945   0.5290789  )
        37           N   tau(  37) = (  -0.0453215   0.1167060   1.0907873  )
        38           N   tau(  38) = (   0.1445407   0.2875138   0.5406356  )
        39           N   tau(  39) = (   0.6655972   0.1527739   0.0095162  )
        40           N   tau(  40) = (   0.4757350  -0.0180339   0.5596680  )
        41           O   tau(  41) = (   0.3685716   0.0755251   0.0588248  )
        42           O   tau(  42) = (   0.1787094   0.3286947   0.6089765  )
        43           O   tau(  43) = (   0.2517041   0.1939548   1.0414788  )
        44           O   tau(  44) = (   0.4415662  -0.0592148   0.4913270  )
        45           N   tau(  45) = (   0.3401125   0.1114452   0.1373509  )
        46           N   tau(  46) = (   0.1502503   0.2927746   0.6875027  )
        47           N   tau(  47) = (   0.2801632   0.1580347   0.9629526  )
        48           N   tau(  48) = (   0.4700253  -0.0232947   0.4128009  )
        49           C   tau(  49) = (   0.2910048   0.1765265   0.1152800  )
        50           C   tau(  50) = (   0.1011426   0.2276934   0.6654318  )
        51           C   tau(  51) = (   0.3292709   0.0929534   0.9850235  )
        52           C   tau(  52) = (   0.5191331   0.0417865   0.4348717  )
        53           N   tau(  53) = (   0.2570751   0.2331318   0.1722220  )
        54           N   tau(  54) = (   0.0672130   0.1710880   0.7223738  )
        55           N   tau(  55) = (   0.3632006   0.0363481   0.9280815  )
        56           N   tau(  56) = (   0.5530627   0.0983918   0.3779297  )
        57           C   tau(  57) = (   0.2868125   0.2318256   0.2620106  )
        58           C   tau(  58) = (   0.0969503   0.1723942   0.8121624  )
        59           C   tau(  59) = (   0.3334632   0.0376543   0.8382929  )
        60           C   tau(  60) = (   0.5233253   0.0970857   0.2881411  )
        61           H   tau(  61) = (   0.2631373   0.1712437   0.2944121  )
        62           H   tau(  62) = (   0.0732751   0.2329762   0.8445639  )
        63           H   tau(  63) = (   0.3571384   0.0982362   0.8058914  )
        64           H   tau(  64) = (   0.5470006   0.0365037   0.2557396  )
        65           H   tau(  65) = (   0.3568985   0.2307288   0.2654678  )
        66           H   tau(  66) = (   0.1670363   0.1734911   0.8156195  )
        67           H   tau(  67) = (   0.2633772   0.0387511   0.8348358  )
        68           H   tau(  68) = (   0.4532394   0.0959888   0.2846840  )
        69           C   tau(  69) = (   0.2525148   0.3054043   0.3099555  )
        70           C   tau(  70) = (   0.0626527   0.0988155   0.8601073  )
        71           C   tau(  71) = (   0.3677608  -0.0359244   0.7903480  )
        72           C   tau(  72) = (   0.5576230   0.1706644   0.2401962  )
        73           H   tau(  73) = (   0.2717410   0.3032355   0.3777141  )
        74           H   tau(  74) = (   0.0818789   0.1009843   0.9278659  )
        75           H   tau(  75) = (   0.3485347  -0.0337556   0.7225894  )
        76           H   tau(  76) = (   0.5383968   0.1684956   0.1724376  )
        77           H   tau(  77) = (   0.2830569   0.0941186   0.2794030  )
        78           H   tau(  78) = (   0.0931947   0.0406213   0.8295548  )
        79           H   tau(  79) = (   0.3372188   0.1753612   0.8209005  )
        80           H   tau(  80) = (   0.5270810   0.2288586   0.2707487  )
        81           O   tau(  81) = (   0.1618222   0.3156728   0.3074628  )
        82           O   tau(  82) = (  -0.0280399   0.0885471   0.8576146  )
        83           O   tau(  83) = (   0.4584535  -0.0461929   0.7928407  )
        84           O   tau(  84) = (   0.6483156   0.1809328   0.2426890  )
        85           C   tau(  85) = (   0.1327488   0.3133645   0.2213179  )
        86           C   tau(  86) = (  -0.0571133   0.0908553   0.7714696  )
        87           C   tau(  87) = (   0.4875269  -0.0438846   0.8789856  )
        88           C   tau(  88) = (   0.6773890   0.1786246   0.3288339  )
        89           H   tau(  89) = (   0.1559276   0.1027057   0.1854078  )
        90           H   tau(  90) = (  -0.0339345   0.0320342   0.7355595  )
        91           H   tau(  91) = (   0.4643480   0.1667742   0.9148957  )
        92           H   tau(  92) = (   0.6542102   0.2374456   0.3647440  )
        93           H   tau(  93) = (   0.0624600   0.3162047   0.2216156  )
        94           H   tau(  94) = (  -0.1274022   0.0880152   0.7717674  )
        95           H   tau(  95) = (   0.5578157  -0.0467248   0.8786879  )
        96           H   tau(  96) = (   0.7476779   0.1814647   0.3285361  )
        97           C   tau(  97) = (   0.1627874   0.2393509   0.1727957  )
        98           C   tau(  98) = (  -0.0270747   0.1648689   0.7229475  )
        99           C   tau(  99) = (   0.4574883   0.0301290   0.9275078  )
       100           C   tau( 100) = (   0.6473504   0.1046110   0.3773560  )
       101           H   tau( 101) = (   0.1384445   0.1802659   0.2072734  )
       102           H   tau( 102) = (  -0.0514177   0.2239540   0.7574251  )
       103           H   tau( 103) = (   0.4818312   0.0892140   0.8930301  )
       104           H   tau( 104) = (   0.6716934   0.0455259   0.3428784  )
       105           H   tau( 105) = (   0.1364111   0.2379101   0.1079953  )
       106           H   tau( 106) = (  -0.0534511   0.1663098   0.6581471  )
       107           H   tau( 107) = (   0.4838646   0.0315698   0.9923082  )
       108           H   tau( 108) = (   0.6737268   0.1031701   0.4421564  )
       109           H   tau( 109) = (  -0.1579602  -0.0282249   0.9164388  )
       110           H   tau( 110) = (   0.0319019   0.1629648   0.3662871  )
       111           H   tau( 111) = (   0.7782359   0.2977048   0.1838647  )
       112           H   tau( 112) = (   0.5883737   0.1065151   0.7340164  )
       113           H   tau( 113) = (  -0.2258922   0.0074888   0.8323095  )
       114           H   tau( 114) = (  -0.0360300   0.1272512   0.2821577  )
       115           H   tau( 115) = (   0.8461679   0.2619911   0.2679940  )
       116           H   tau( 116) = (   0.6563057   0.1422287   0.8181458  )

     number of k points=     6
                       cart. coord. in units 2pi/alat
        k(    1) = (   0.0000000   0.0000000   0.0000000), wk =   0.2500000
        k(    2) = (   0.0000000   0.9277130   0.0000000), wk =   0.5000000
        k(    3) = (   0.0000000  -1.8554260   0.0000000), wk =   0.2500000
        k(    4) = (  -0.5000000   0.0000000  -0.1725544), wk =   0.2500000
        k(    5) = (  -0.5000000   0.9277130  -0.1725544), wk =   0.5000000
        k(    6) = (  -0.5000000  -1.8554260  -0.1725544), wk =   0.2500000

     Dense  grid:  1024879 G-vectors     FFT dimensions: ( 192,  54, 225)

     Estimated max dynamical RAM per process >    1156.19MB

     Estimated total allocated dynamical RAM >    9249.55MB

     Check: negative/imaginary core charge=   -0.000002    0.000000

     Initial potential from superposition of free atoms

     starting charge  399.99804, renormalised to  400.00000
     Starting wfc are  344 randomized atomic wfcs
     Checking if some PAW data can be deallocated... 

     total cpu time spent up to now is       59.8 secs

     per-process dynamical memory:   738.0 Mb

     Self-consistent Calculation

     iteration #  1     ecut=   100.00 Ry     beta=0.50
     Davidson diagonalization with overlap
     ethr =  1.00E-02,  avg # of iterations =  3.0

     total cpu time spent up to now is      214.7 secs

     total energy              =   -2036.46159590 Ry
     Harris-Foulkes estimate   =   -2041.17462745 Ry
     estimated scf accuracy    <       9.57204318 Ry

     iteration #  2     ecut=   100.00 Ry     beta=0.50
     Davidson diagonalization with overlap
     ethr =  2.39E-03,  avg # of iterations =  5.0

     total cpu time spent up to now is      312.9 secs

     total energy              =   -2036.96563087 Ry
     Harris-Foulkes estimate   =   -2037.96668138 Ry
     estimated scf accuracy    <       2.01276422 Ry

     iteration #  3     ecut=   100.00 Ry     beta=0.50
     Davidson diagonalization with overlap
     ethr =  5.03E-04,  avg # of iterations =  6.7

     total cpu time spent up to now is      470.7 secs

     total energy              =   -2037.68481611 Ry
     Harris-Foulkes estimate   =   -2038.19905119 Ry
     estimated scf accuracy    <       1.33777834 Ry

     iteration #  4     ecut=   100.00 Ry     beta=0.50
     Davidson diagonalization with overlap
     ethr =  3.34E-04,  avg # of iterations =  7.0

     total cpu time spent up to now is      569.7 secs

     total energy              =   -2037.80653322 Ry
     Harris-Foulkes estimate   =   -2037.88055238 Ry
     estimated scf accuracy    <       0.17685344 Ry

     iteration #  5     ecut=   100.00 Ry     beta=0.50
     Davidson diagonalization with overlap
     ethr =  4.42E-05,  avg # of iterations =  8.0

     total cpu time spent up to now is      738.0 secs

     total energy              =   -2037.85722559 Ry
     Harris-Foulkes estimate   =   -2037.89308719 Ry
     estimated scf accuracy    <       0.09980776 Ry

     iteration #  6     ecut=   100.00 Ry     beta=0.50
     Davidson diagonalization with overlap
     ethr =  2.50E-05,  avg # of iterations = 11.3

     total cpu time spent up to now is      847.8 secs

     total energy              =   -2037.86918440 Ry
     Harris-Foulkes estimate   =   -2037.87922304 Ry
     estimated scf accuracy    <       0.02830321 Ry

     iteration #  7     ecut=   100.00 Ry     beta=0.50
     Davidson diagonalization with overlap
     ethr =  7.08E-06,  avg # of iterations =  8.8

     total cpu time spent up to now is      964.0 secs

     total energy              =   -2037.87533623 Ry
     Harris-Foulkes estimate   =   -2037.87734142 Ry
     estimated scf accuracy    <       0.00576988 Ry

     iteration #  8     ecut=   100.00 Ry     beta=0.50
     Davidson diagonalization with overlap
     ethr =  1.44E-06,  avg # of iterations =  6.8

     total cpu time spent up to now is     1075.0 secs

     total energy              =   -2037.87654779 Ry
     Harris-Foulkes estimate   =   -2037.87676602 Ry
     estimated scf accuracy    <       0.00057406 Ry

     iteration #  9     ecut=   100.00 Ry     beta=0.50
     Davidson diagonalization with overlap
     ethr =  1.44E-07,  avg # of iterations =  3.5

     total cpu time spent up to now is     1218.0 secs

     total energy              =   -2037.87676851 Ry
     Harris-Foulkes estimate   =   -2037.87685239 Ry
     estimated scf accuracy    <       0.00023813 Ry

     iteration # 10     ecut=   100.00 Ry     beta=0.50
     Davidson diagonalization with overlap
     ethr =  5.95E-08,  avg # of iterations =  2.2

     total cpu time spent up to now is     1305.9 secs

     total energy              =   -2037.87681178 Ry
     Harris-Foulkes estimate   =   -2037.87682492 Ry
     estimated scf accuracy    <       0.00005516 Ry

     iteration # 11     ecut=   100.00 Ry     beta=0.50
     Davidson diagonalization with overlap
     ethr =  1.38E-08,  avg # of iterations =  2.7

     total cpu time spent up to now is     1393.7 secs

     total energy              =   -2037.87682070 Ry
     Harris-Foulkes estimate   =   -2037.87682272 Ry
     estimated scf accuracy    <       0.00000719 Ry

     iteration # 12     ecut=   100.00 Ry     beta=0.50
     Davidson diagonalization with overlap
     ethr =  1.80E-09,  avg # of iterations =  4.0

     total cpu time spent up to now is     1542.6 secs

     total energy              =   -2037.87682293 Ry
     Harris-Foulkes estimate   =   -2037.87682624 Ry
     estimated scf accuracy    <       0.00001112 Ry

     iteration # 13     ecut=   100.00 Ry     beta=0.50
     Davidson diagonalization with overlap
     ethr =  1.80E-09,  avg # of iterations =  2.0

     total cpu time spent up to now is     1624.6 secs

     total energy              =   -2037.87682432 Ry
     Harris-Foulkes estimate   =   -2037.87682472 Ry
     estimated scf accuracy    <       0.00000124 Ry

     iteration # 14     ecut=   100.00 Ry     beta=0.50
     Davidson diagonalization with overlap
     ethr =  3.10E-10,  avg # of iterations =  3.3

     total cpu time spent up to now is     1731.7 secs

     total energy              =   -2037.87682463 Ry
     Harris-Foulkes estimate   =   -2037.87682473 Ry
     estimated scf accuracy    <       0.00000030 Ry

     iteration # 15     ecut=   100.00 Ry     beta=0.50
     Davidson diagonalization with overlap
     ethr =  7.49E-11,  avg # of iterations =  3.0

     total cpu time spent up to now is     1827.4 secs

     total energy              =   -2037.87682469 Ry
     Harris-Foulkes estimate   =   -2037.87682473 Ry
     estimated scf accuracy    <       0.00000013 Ry

     iteration # 16     ecut=   100.00 Ry     beta=0.50
     Davidson diagonalization with overlap
     ethr =  3.16E-11,  avg # of iterations =  2.0

     total cpu time spent up to now is     1909.7 secs

     total energy              =   -2037.87682471 Ry
     Harris-Foulkes estimate   =   -2037.87682471 Ry
     estimated scf accuracy    <       0.00000001 Ry

     iteration # 17     ecut=   100.00 Ry     beta=0.50
     Davidson diagonalization with overlap
     ethr =  3.56E-12,  avg # of iterations =  4.0

     total cpu time spent up to now is     2060.6 secs

     End of self-consistent calculation

          k = 0.0000 0.0000 0.0000 (128231 PWs)   bands (ev):

   -22.7874 -22.7850 -22.7793 -22.7771 -22.7419 -22.7413 -22.7398 -22.7391
   -19.3570 -19.3560 -19.3535 -19.3535 -19.2757 -19.2752 -19.2723 -19.2712
   -17.5229 -17.5205 -17.5191 -17.5171 -17.1228 -17.1204 -16.9741 -16.9699
   -15.7633 -15.7629 -15.7561 -15.7556 -15.2629 -15.2602 -15.2349 -15.2294
   -14.6019 -14.6010 -14.5579 -14.5489 -14.1058 -14.1046 -14.0322 -14.0306
   -12.7887 -12.7871 -12.7555 -12.7541 -12.0854 -12.0844 -12.0808 -12.0799
   -11.3680 -11.3634 -11.3400 -11.3335  -9.4259  -9.3602  -9.3411  -9.3329
    -9.1842  -9.1712  -9.1612  -9.1412  -9.1130  -9.0621  -8.7795  -8.7110
    -8.4536  -8.4533  -8.3969  -8.3319  -8.0698  -8.0637  -8.0550  -8.0505
    -7.2122  -7.2048  -7.1839  -7.1711  -6.7374  -6.6582  -6.6289  -6.6215
    -5.9503  -5.9431  -5.9144  -5.8949  -5.8549  -5.8236  -5.7860  -5.7860
    -5.7402  -5.6984  -5.4617  -5.4590  -5.3340  -5.3124  -5.2697  -5.2618
    -5.0057  -4.9794  -4.9716  -4.9273  -4.9093  -4.8984  -4.8728  -4.8617
    -4.8245  -4.8243  -4.7987  -4.7847  -4.6152  -4.6019  -4.5168  -4.4769
    -4.3168  -4.3136  -4.2817  -4.2366  -3.9997  -3.9821  -3.9417  -3.8706
    -3.6717  -3.6606  -3.5875  -3.5643  -3.5542  -3.5542  -3.5347  -3.5338
    -3.4831  -3.4815  -3.4617  -3.4582  -3.4355  -3.3869  -3.3569  -3.3520
    -3.1871  -3.1845  -3.1583  -3.1460  -2.7469  -2.7423  -2.6695  -2.6296
    -2.4669  -2.4448  -2.4358  -2.4149  -2.0401  -2.0002  -1.9166  -1.8449
    -1.7917  -1.7809  -1.6987  -1.6475  -1.6105  -1.5957  -1.5339  -1.5115
    -1.3689  -1.3275  -1.2389  -1.2216  -0.8983  -0.8791  -0.8544  -0.8335
    -0.7453  -0.7389  -0.7266  -0.6712  -0.6264  -0.5802  -0.5655  -0.5442
    -0.4731  -0.4708  -0.4676  -0.4509  -0.3216  -0.3153  -0.3108  -0.2853
     0.5368   0.5391   0.5499   0.5586   0.7193   0.7502   0.7548   0.7909
     0.9676   1.0287   1.0368   1.0823   1.3294   1.3421   1.3802   1.3907
     3.5444   3.5514   3.5641   3.5661   5.3287   5.3486   5.3888   5.3890
     5.7511   5.7644   5.8184   5.8269   6.8424   6.9015   6.9415   7.0113
     7.0205   7.1175   7.3482   7.3915   7.5125   7.5275   7.5945   7.7159
     7.7236   7.7243   7.7877   7.8484   7.8876   7.8973   8.0520   8.1323
     8.1511   8.1788   8.1873   8.3561   8.5048   8.5131   8.6037   8.6983

          k = 0.0000 0.9277 0.0000 (128097 PWs)   bands (ev):

   -22.7600 -22.7582 -22.7517 -22.7500 -22.7220 -22.7217 -22.7204 -22.7200
   -19.3225 -19.3218 -19.3191 -19.3190 -19.2413 -19.2410 -19.2378 -19.2371
   -17.5017 -17.4997 -17.4989 -17.4971 -17.0528 -17.0512 -16.9408 -16.9372
   -15.9184 -15.9172 -15.9137 -15.9127 -15.3567 -15.3536 -15.3328 -15.3296
   -14.7256 -14.7214 -14.6842 -14.6743 -14.1418 -14.1385 -14.0976 -14.0930
   -12.6000 -12.5987 -12.5733 -12.5727 -12.0180 -12.0175 -12.0142 -12.0122
   -11.2674 -11.2616 -11.2463 -11.2398  -9.5379  -9.5234  -9.5044  -9.5009
    -9.1571  -9.1468  -9.1425  -9.1320  -9.0053  -8.9513  -8.7776  -8.7107
    -8.5314  -8.4930  -8.4715  -8.4072  -8.1116  -8.1114  -8.0972  -8.0943
    -7.5489  -7.5172  -7.5153  -7.4953  -6.9753  -6.9707  -6.9578  -6.9319
    -6.4867  -6.4818  -6.4068  -6.4023  -5.9777  -5.9722  -5.9530  -5.9420
    -5.8306  -5.7646  -5.7310  -5.6785  -5.6289  -5.6038  -5.4270  -5.3836
    -5.3276  -5.3108  -5.2918  -5.2896  -5.2412  -5.2345  -5.2115  -5.1715
    -4.8094  -4.7743  -4.7589  -4.7308  -4.7272  -4.7066  -4.6737  -4.6593
    -4.2984  -4.2920  -4.2474  -4.2370  -3.9299  -3.8446  -3.7988  -3.7718
    -3.5686  -3.5452  -3.5318  -3.5182  -3.4699  -3.4685  -3.4494  -3.4324
    -3.3088  -3.3087  -3.2848  -3.2618  -3.1083  -3.0833  -3.0750  -3.0504
    -2.8484  -2.8367  -2.7860  -2.7704  -2.2916  -2.2904  -2.2795  -2.2464
    -2.1100  -2.0137  -1.9613  -1.9018  -1.7696  -1.6951  -1.6154  -1.5940
    -1.4498  -1.4392  -1.4105  -1.3852  -1.0902  -1.0842  -1.0720  -1.0679
    -0.9895  -0.9804  -0.9761  -0.9552  -0.8895  -0.8550  -0.8533  -0.8270
    -0.7276  -0.6774  -0.6646  -0.6541  -0.6063  -0.5706  -0.5462  -0.5237
    -0.4001  -0.3880  -0.3878  -0.3641   0.0719   0.0774   0.0857   0.0907
     0.6693   0.6775   0.6821   0.7056   1.1392   1.1606   1.2018   1.2019
     1.2722   1.3065   1.3308   1.3617   1.6892   1.7030   1.7119   1.7203
     3.3548   3.3561   3.3707   3.3719   4.9914   5.0174   5.0360   5.0445
     5.3392   5.3970   5.4060   5.4119   6.7494   6.8396   6.8614   7.0579
     7.0728   7.1505   7.3460   7.3812   7.4580   7.4597   7.5319   7.5427
     7.6962   7.7672   7.7860   7.8195   7.9787   7.9920   8.0681   8.1853
     8.1890   8.2448   8.2548   8.3722   8.4043   8.4287   8.4301   8.5085

          k = 0.0000-1.8554 0.0000 (127990 PWs)   bands (ev):

   -22.7320 -22.7319 -22.7233 -22.7232 -22.7015 -22.7014 -22.7004 -22.7004
   -19.2864 -19.2864 -19.2836 -19.2836 -19.2060 -19.2060 -19.2030 -19.2030
   -17.4782 -17.4782 -17.4766 -17.4766 -16.9379 -16.9379 -16.9358 -16.9358
   -16.0845 -16.0845 -16.0838 -16.0838 -15.4255 -15.4255 -15.4229 -15.4229
   -14.8245 -14.8245 -14.8155 -14.8155 -14.1732 -14.1732 -14.1672 -14.1672
   -12.3577 -12.3577 -12.3564 -12.3564 -11.9680 -11.9680 -11.9630 -11.9630
   -11.1334 -11.1333 -11.1271 -11.1271  -9.8006  -9.8006  -9.7947  -9.7947
    -9.0928  -9.0928  -9.0804  -9.0804  -8.9226  -8.9226  -8.8431  -8.8431
    -8.6837  -8.6837  -8.6188  -8.6188  -8.1573  -8.1573  -8.1294  -8.1294
    -7.8078  -7.8078  -7.7958  -7.7958  -7.0723  -7.0723  -7.0526  -7.0526
    -6.5128  -6.5128  -6.4741  -6.4741  -6.2078  -6.2078  -6.1818  -6.1818
    -5.7955  -5.7955  -5.7656  -5.7656  -5.7113  -5.7113  -5.6802  -5.6802
    -5.5465  -5.5465  -5.5330  -5.5329  -5.5032  -5.5032  -5.4757  -5.4757
    -4.8206  -4.8206  -4.7958  -4.7958  -4.7699  -4.7699  -4.7463  -4.7463
    -4.3058  -4.3058  -4.2486  -4.2486  -3.9401  -3.9401  -3.8792  -3.8792
    -3.4825  -3.4825  -3.4542  -3.4542  -3.4195  -3.4195  -3.3515  -3.3515
    -3.2567  -3.2567  -3.2440  -3.2439  -2.9013  -2.9013  -2.8770  -2.8770
    -2.6565  -2.6565  -2.5850  -2.5850  -2.1539  -2.1539  -2.1312  -2.1312
    -1.9753  -1.9753  -1.9006  -1.9006  -1.6389  -1.6389  -1.5904  -1.5904
    -1.2126  -1.2126  -1.2041  -1.2041  -0.9608  -0.9608  -0.9441  -0.9441
    -0.7270  -0.7270  -0.7093  -0.7093  -0.5769  -0.5769  -0.5329  -0.5329
    -0.4858  -0.4858  -0.4736  -0.4736  -0.3246  -0.3246  -0.3140  -0.3140
     0.5176   0.5176   0.5196   0.5196   0.8114   0.8114   0.8358   0.8358
     0.9257   0.9257   0.9410   0.9410   1.2904   1.2904   1.3030   1.3030
     1.6980   1.6980   1.7160   1.7160   2.3909   2.3909   2.4009   2.4009
     2.8693   2.8693   2.8856   2.8856   4.7414   4.7414   4.7750   4.7750
     4.8739   4.8739   4.9083   4.9083   6.8769   6.8769   7.0617   7.0617
     7.0978   7.0978   7.2199   7.2199   7.2883   7.2883   7.3110   7.3110
     7.7173   7.7173   7.7881   7.7881   7.9785   7.9785   8.0573   8.0574
     8.1945   8.1945   8.2591   8.2591   8.3960   8.3961   8.5577   8.5578

          k =-0.5000 0.0000-0.1726 (128154 PWs)   bands (ev):

   -22.7873 -22.7850 -22.7793 -22.7772 -22.7415 -22.7411 -22.7400 -22.7394
   -19.3569 -19.3561 -19.3536 -19.3534 -19.2759 -19.2750 -19.2719 -19.2716
   -17.5227 -17.5206 -17.5193 -17.5170 -17.1228 -17.1204 -16.9741 -16.9699
   -15.7628 -15.7627 -15.7564 -15.7561 -15.2610 -15.2584 -15.2368 -15.2313
   -14.6011 -14.5999 -14.5586 -14.5499 -14.1060 -14.1047 -14.0321 -14.0306
   -12.7885 -12.7869 -12.7555 -12.7545 -12.0874 -12.0825 -12.0820 -12.0785
   -11.3690 -11.3623 -11.3387 -11.3349  -9.4177  -9.3709  -9.3440  -9.3330
    -9.1851  -9.1614  -9.1529  -9.1505  -9.1173  -9.0569  -8.7815  -8.7153
    -8.4508  -8.4497  -8.3984  -8.3341  -8.0716  -8.0620  -8.0557  -8.0497
    -7.2255  -7.1919  -7.1849  -7.1659  -6.7474  -6.6462  -6.6359  -6.6196
    -5.9690  -5.9218  -5.9197  -5.8757  -5.8708  -5.8207  -5.7909  -5.7813
    -5.7297  -5.7148  -5.4601  -5.4601  -5.3137  -5.3021  -5.2902  -5.2730
    -4.9999  -4.9796  -4.9712  -4.9374  -4.9024  -4.8985  -4.8885  -4.8519
    -4.8236  -4.8078  -4.8003  -4.7924  -4.6367  -4.6059  -4.4958  -4.4781
    -4.3183  -4.3037  -4.2981  -4.2188  -3.9887  -3.9728  -3.9607  -3.8872
    -3.6290  -3.6203  -3.6129  -3.6119  -3.5547  -3.5525  -3.5351  -3.5349
    -3.4866  -3.4815  -3.4669  -3.4515  -3.4273  -3.3838  -3.3661  -3.3502
    -3.1873  -3.1807  -3.1662  -3.1522  -2.7392  -2.7318  -2.6700  -2.6291
    -2.4713  -2.4536  -2.4454  -2.4100  -2.0547  -1.9831  -1.8906  -1.8787
    -1.7949  -1.7514  -1.6937  -1.6510  -1.6235  -1.6148  -1.4941  -1.4892
    -1.4086  -1.3545  -1.2248  -1.2105  -0.9033  -0.8813  -0.8493  -0.8376
    -0.7410  -0.7394  -0.7338  -0.6650  -0.6219  -0.5832  -0.5616  -0.5433
    -0.4840  -0.4760  -0.4727  -0.4353  -0.3455  -0.3080  -0.3015  -0.2783
     0.5373   0.5431   0.5457   0.5582   0.7347   0.7376   0.7617   0.7762
     0.9807   1.0269   1.0472   1.0636   1.3295   1.3426   1.3807   1.3916
     3.5498   3.5538   3.5588   3.5636   5.3460   5.3647   5.3657   5.3731
     5.7651   5.7790   5.8050   5.8179   6.8404   6.8638   6.9771   7.0062
     7.0284   7.0924   7.3279   7.4563   7.5410   7.5772   7.6794   7.7003
     7.7022   7.7523   7.7851   7.8128   7.8236   7.8483   8.0120   8.0289
     8.0332   8.2347   8.3097   8.3269   8.5417   8.5584   8.6215   8.6541

          k =-0.5000 0.9277-0.1726 (128142 PWs)   bands (ev):

   -22.7600 -22.7582 -22.7517 -22.7501 -22.7217 -22.7215 -22.7206 -22.7202
   -19.3225 -19.3219 -19.3190 -19.3190 -19.2415 -19.2408 -19.2376 -19.2373
   -17.5015 -17.4997 -17.4991 -17.4971 -17.0528 -17.0512 -16.9408 -16.9372
   -15.9184 -15.9170 -15.9138 -15.9128 -15.3553 -15.3523 -15.3343 -15.3310
   -14.7247 -14.7207 -14.6850 -14.6749 -14.1419 -14.1386 -14.0976 -14.0929
   -12.5997 -12.5987 -12.5739 -12.5724 -12.0205 -12.0152 -12.0140 -12.0122
   -11.2679 -11.2611 -11.2458 -11.2403  -9.5339  -9.5273  -9.5048  -9.5010
    -9.1579  -9.1497  -9.1396  -9.1291  -9.0059  -8.9506  -8.7796  -8.7145
    -8.5284  -8.4895  -8.4720  -8.4080  -8.1146  -8.1091  -8.0975  -8.0948
    -7.5340  -7.5324  -7.5118  -7.4989  -6.9795  -6.9659  -6.9659  -6.9216
    -6.5144  -6.4523  -6.4354  -6.3751  -5.9773  -5.9701  -5.9534  -5.9418
    -5.8369  -5.7837  -5.7275  -5.6700  -5.6223  -5.5990  -5.4317  -5.3871
    -5.3285  -5.3062  -5.2923  -5.2909  -5.2384  -5.2207  -5.2144  -5.1755
    -4.8063  -4.7851  -4.7651  -4.7275  -4.7202  -4.7060  -4.6769  -4.6643
    -4.3156  -4.2772  -4.2442  -4.2400  -3.9153  -3.8299  -3.8079  -3.7851
    -3.5676  -3.5555  -3.5226  -3.5160  -3.4712  -3.4646  -3.4416  -3.4412
    -3.3348  -3.2862  -3.2743  -3.2713  -3.0978  -3.0860  -3.0838  -3.0554
    -2.8466  -2.8281  -2.7859  -2.7737  -2.3053  -2.2923  -2.2808  -2.2442
    -2.0697  -2.0035  -1.9992  -1.9077  -1.7903  -1.7136  -1.5716  -1.5426
    -1.4782  -1.4620  -1.4037  -1.3881  -1.1061  -1.1040  -1.0632  -1.0324
    -0.9989  -0.9834  -0.9768  -0.9549  -0.8786  -0.8695  -0.8488  -0.8319
    -0.7314  -0.6778  -0.6574  -0.6372  -0.6123  -0.5843  -0.5508  -0.5143
    -0.4076  -0.3866  -0.3820  -0.3641   0.0736   0.0815   0.0846   0.0862
     0.6627   0.6829   0.6896   0.6999   1.1382   1.1608   1.1992   1.2036
     1.2735   1.3068   1.3301   1.3615   1.6917   1.7004   1.7112   1.7219
     3.3540   3.3579   3.3704   3.3712   5.0059   5.0247   5.0252   5.0298
     5.3471   5.3998   5.4051   5.4063   6.7452   6.8330   6.8956   7.0132
     7.0689   7.1632   7.3331   7.3726   7.4660   7.4853   7.5025   7.5930
     7.6935   7.7231   7.8452   7.8559   7.9526   7.9801   8.0542   8.1330
     8.1555   8.2957   8.3088   8.3140   8.3670   8.4244   8.4945   8.5051

          k =-0.5000-1.8554-0.1726 (128072 PWs)   bands (ev):

   -22.7319 -22.7319 -22.7233 -22.7232 -22.7012 -22.7012 -22.7006 -22.7006
   -19.2864 -19.2864 -19.2836 -19.2836 -19.2060 -19.2060 -19.2030 -19.2030
   -17.4782 -17.4782 -17.4766 -17.4766 -16.9379 -16.9379 -16.9358 -16.9358
   -16.0845 -16.0845 -16.0838 -16.0838 -15.4255 -15.4255 -15.4229 -15.4229
   -14.8245 -14.8245 -14.8155 -14.8155 -14.1732 -14.1732 -14.1672 -14.1672
   -12.3577 -12.3577 -12.3565 -12.3565 -11.9681 -11.9681 -11.9629 -11.9629
   -11.1334 -11.1334 -11.1270 -11.1270  -9.8007  -9.8007  -9.7947  -9.7947
    -9.0933  -9.0933  -9.0797  -9.0796  -8.9225  -8.9225  -8.8433  -8.8433
    -8.6840  -8.6840  -8.6190  -8.6190  -8.1568  -8.1568  -8.1293  -8.1293
    -7.8078  -7.8078  -7.7959  -7.7959  -7.0730  -7.0729  -7.0538  -7.0538
    -6.5099  -6.5099  -6.4711  -6.4711  -6.2098  -6.2098  -6.1853  -6.1853
    -5.7982  -5.7982  -5.7675  -5.7675  -5.7105  -5.7105  -5.6750  -5.6750
    -5.5463  -5.5463  -5.5356  -5.5356  -5.4972  -5.4972  -5.4797  -5.4797
    -4.8187  -4.8187  -4.7977  -4.7977  -4.7697  -4.7697  -4.7437  -4.7437
    -4.3080  -4.3080  -4.2494  -4.2493  -3.9401  -3.9401  -3.8804  -3.8804
    -3.4834  -3.4834  -3.4535  -3.4535  -3.4176  -3.4176  -3.3537  -3.3537
    -3.2540  -3.2540  -3.2450  -3.2450  -2.9025  -2.9024  -2.8758  -2.8758
    -2.6564  -2.6564  -2.5851  -2.5851  -2.1552  -2.1552  -2.1294  -2.1293
    -1.9759  -1.9759  -1.8999  -1.8999  -1.6334  -1.6334  -1.5911  -1.5911
    -1.2185  -1.2185  -1.2069  -1.2069  -0.9608  -0.9608  -0.9472  -0.9472
    -0.7289  -0.7289  -0.7052  -0.7051  -0.5561  -0.5561  -0.5406  -0.5406
    -0.4995  -0.4995  -0.4661  -0.4661  -0.3249  -0.3249  -0.3166  -0.3165
     0.5161   0.5161   0.5214   0.5214   0.8133   0.8133   0.8340   0.8340
     0.9245   0.9245   0.9422   0.9422   1.2906   1.2906   1.3028   1.3028
     1.6973   1.6973   1.7165   1.7165   2.3908   2.3908   2.4010   2.4010
     2.8714   2.8714   2.8835   2.8835   4.7409   4.7409   4.7753   4.7753
     4.8733   4.8733   4.9092   4.9092   6.8802   6.8802   7.0752   7.0753
     7.0893   7.0893   7.2273   7.2273   7.2552   7.2552   7.3214   7.3214
     7.7069   7.7069   7.8034   7.8034   7.9815   7.9815   8.0291   8.0291
     8.2035   8.2035   8.2704   8.2704   8.4222   8.4223   8.5226   8.5226

     highest occupied, lowest unoccupied level (ev):     2.4010    2.8693

!    total energy              =   -2037.87682471 Ry
     Harris-Foulkes estimate   =   -2037.87682472 Ry
     estimated scf accuracy    <          6.1E-09 Ry

     total all-electron energy =     -7794.052241 Ry

     The total energy is the sum of the following terms:

     one-electron contribution =   -1451.70922371 Ry
     hartree contribution      =     885.53286417 Ry
     xc contribution           =    -423.15589348 Ry
     ewald contribution        =    -455.70408483 Ry
     Dispersion Correction     =      -0.60515162 Ry
     one-center paw contrib.   =    -592.23533525 Ry

     convergence has been achieved in  17 iterations

     Forces acting on atoms (cartesian axes, Ry/au):

     atom    1 type  2   force =     0.02255243    0.02475015   -0.02143201
     atom    2 type  2   force =     0.02255283   -0.02475046   -0.02143178
     atom    3 type  2   force =    -0.02255243   -0.02475015    0.02143201
     atom    4 type  2   force =    -0.02255283    0.02475046    0.02143178
     atom    5 type  1   force =     0.00020816    0.00346300    0.01905394
     atom    6 type  1   force =     0.00020924   -0.00346274    0.01905038
     atom    7 type  1   force =    -0.00020816   -0.00346300   -0.01905394
     atom    8 type  1   force =    -0.00020924    0.00346274   -0.01905038
     atom    9 type  2   force =    -0.02440206   -0.02170797    0.01622938
     atom   10 type  2   force =    -0.02440276    0.02170646    0.01622605
     atom   11 type  2   force =     0.02440206    0.02170797   -0.01622938
     atom   12 type  2   force =     0.02440276   -0.02170646   -0.01622605
     atom   13 type  4   force =     0.00330887   -0.01736771   -0.01245865
     atom   14 type  4   force =     0.00330031    0.01735699   -0.01246146
     atom   15 type  4   force =    -0.00330887    0.01736771    0.01245865
     atom   16 type  4   force =    -0.00330031   -0.01735699    0.01246146
     atom   17 type  2   force =    -0.01310351   -0.01286750    0.00075692
     atom   18 type  2   force =    -0.01310124    0.01286825    0.00076659
     atom   19 type  2   force =     0.01310351    0.01286750   -0.00075692
     atom   20 type  2   force =     0.01310124   -0.01286825   -0.00076659
     atom   21 type  1   force =    -0.01727200   -0.00143148   -0.01853070
     atom   22 type  1   force =    -0.01727356    0.00142930   -0.01852897
     atom   23 type  1   force =     0.01727200    0.00143148    0.01853070
     atom   24 type  1   force =     0.01727356   -0.00142930    0.01852897
     atom   25 type  2   force =     0.01686889   -0.01777160    0.00392795
     atom   26 type  2   force =     0.01686878    0.01777133    0.00393101
     atom   27 type  2   force =    -0.01686889    0.01777160   -0.00392795
     atom   28 type  2   force =    -0.01686878   -0.01777133   -0.00393101
     atom   29 type  2   force =    -0.01677885    0.01679762   -0.00091974
     atom   30 type  2   force =    -0.01677843   -0.01679798   -0.00091643
     atom   31 type  2   force =     0.01677885   -0.01679762    0.00091974
     atom   32 type  2   force =     0.01677843    0.01679798    0.00091643
     atom   33 type  1   force =     0.01633507    0.00107277    0.01809774
     atom   34 type  1   force =     0.01633351   -0.00107439    0.01810315
     atom   35 type  1   force =    -0.01633507   -0.00107277   -0.01809774
     atom   36 type  1   force =    -0.01633351    0.00107439   -0.01810315
     atom   37 type  2   force =     0.01428176    0.01220565    0.00084609
     atom   38 type  2   force =     0.01428247   -0.01220531    0.00085337
     atom   39 type  2   force =    -0.01428176   -0.01220565   -0.00084609
     atom   40 type  2   force =    -0.01428247    0.01220531   -0.00085337
     atom   41 type  4   force =    -0.00146641    0.01922035    0.00860702
     atom   42 type  4   force =    -0.00147036   -0.01922833    0.00860381
     atom   43 type  4   force =     0.00146641   -0.01922035   -0.00860702
     atom   44 type  4   force =     0.00147036    0.01922833   -0.00860381
     atom   45 type  2   force =     0.02745292    0.00891346   -0.01163746
     atom   46 type  2   force =     0.02745324   -0.00891381   -0.01164047
     atom   47 type  2   force =    -0.02745292   -0.00891346    0.01163746
     atom   48 type  2   force =    -0.02745324    0.00891381    0.01164047
     atom   49 type  1   force =     0.00367076    0.00015295   -0.02371850
     atom   50 type  1   force =     0.00367143   -0.00015203   -0.02372480
     atom   51 type  1   force =    -0.00367076   -0.00015295    0.02371850
     atom   52 type  1   force =    -0.00367143    0.00015203    0.02372480
     atom   53 type  2   force =    -0.03020295   -0.00393163    0.02732780
     atom   54 type  2   force =    -0.03020372    0.00393195    0.02732651
     atom   55 type  2   force =     0.03020295    0.00393163   -0.02732780
     atom   56 type  2   force =     0.03020372   -0.00393195   -0.02732651
     atom   57 type  1   force =    -0.00681148   -0.06710465   -0.00299657
     atom   58 type  1   force =    -0.00681023    0.06710461   -0.00301129
     atom   59 type  1   force =     0.00681148    0.06710465    0.00299657
     atom   60 type  1   force =     0.00681023   -0.06710461    0.00301129
     atom   61 type  3   force =     0.00805967    0.05920067   -0.01709077
     atom   62 type  3   force =     0.00805964   -0.05920040   -0.01709040
     atom   63 type  3   force =    -0.00805967   -0.05920067    0.01709077
     atom   64 type  3   force =    -0.00805964    0.05920040    0.01709040
     atom   65 type  3   force =     0.00460215    0.00314097   -0.00363332
     atom   66 type  3   force =     0.00460216   -0.00314088   -0.00363336
     atom   67 type  3   force =    -0.00460215   -0.00314097    0.00363332
     atom   68 type  3   force =    -0.00460216    0.00314088    0.00363336
     atom   69 type  1   force =     0.01768568    0.06090387    0.00290918
     atom   70 type  1   force =     0.01768638   -0.06090337    0.00291288
     atom   71 type  1   force =    -0.01768568   -0.06090387   -0.00290918
     atom   72 type  1   force =    -0.01768638    0.06090337   -0.00291288
     atom   73 type  3   force =    -0.00272349   -0.00305906   -0.00135724
     atom   74 type  3   force =    -0.00272299    0.00305912   -0.00135652
     atom   75 type  3   force =     0.00272349    0.00305906    0.00135724
     atom   76 type  3   force =     0.00272299   -0.00305912    0.00135652
     atom   77 type  3   force =    -0.00961287   -0.05477275    0.01914706
     atom   78 type  3   force =    -0.00961276    0.05477256    0.01914713
     atom   79 type  3   force =     0.00961287    0.05477275   -0.01914706
     atom   80 type  3   force =     0.00961276   -0.05477256   -0.01914713
     atom   81 type  4   force =    -0.00377876   -0.01026250    0.00584302
     atom   82 type  4   force =    -0.00377889    0.01026195    0.00584540
     atom   83 type  4   force =     0.00377876    0.01026250   -0.00584302
     atom   84 type  4   force =     0.00377889   -0.01026195   -0.00584540
     atom   85 type  1   force =     0.00100732    0.06279860   -0.01837154
     atom   86 type  1   force =     0.00100651   -0.06279885   -0.01835361
     atom   87 type  1   force =    -0.00100732   -0.06279860    0.01837154
     atom   88 type  1   force =    -0.00100651    0.06279885    0.01835361
     atom   89 type  3   force =    -0.00904607   -0.05532855    0.01757723
     atom   90 type  3   force =    -0.00904597    0.05532845    0.01757691
     atom   91 type  3   force =     0.00904607    0.05532855   -0.01757723
     atom   92 type  3   force =     0.00904597   -0.05532845   -0.01757691
     atom   93 type  3   force =    -0.00027945   -0.00228422    0.00309942
     atom   94 type  3   force =    -0.00027990    0.00228404    0.00309946
     atom   95 type  3   force =     0.00027945    0.00228422   -0.00309942
     atom   96 type  3   force =     0.00027990   -0.00228404   -0.00309946
     atom   97 type  1   force =    -0.00796302   -0.06544896    0.00670594
     atom   98 type  1   force =    -0.00796386    0.06544937    0.00670451
     atom   99 type  1   force =     0.00796302    0.06544896   -0.00670594
     atom  100 type  1   force =     0.00796386   -0.06544937   -0.00670451
     atom  101 type  3   force =     0.00530997    0.05468590   -0.01494618
     atom  102 type  3   force =     0.00530972   -0.05468591   -0.01494634
     atom  103 type  3   force =    -0.00530997   -0.05468590    0.01494618
     atom  104 type  3   force =    -0.00530972    0.05468591    0.01494634
     atom  105 type  3   force =     0.00226399    0.00291882   -0.00349204
     atom  106 type  3   force =     0.00226421   -0.00291887   -0.00349172
     atom  107 type  3   force =    -0.00226399   -0.00291882    0.00349204
     atom  108 type  3   force =    -0.00226421    0.00291887    0.00349172
     atom  109 type  3   force =     0.00080606   -0.00142428    0.00266168
     atom  110 type  3   force =     0.00080624    0.00142429    0.00266193
     atom  111 type  3   force =    -0.00080606    0.00142428   -0.00266168
     atom  112 type  3   force =    -0.00080624   -0.00142429   -0.00266193
     atom  113 type  3   force =    -0.00044635   -0.00075584    0.00323678
     atom  114 type  3   force =    -0.00044641    0.00075575    0.00323651
     atom  115 type  3   force =     0.00044635    0.00075584   -0.00323678
     atom  116 type  3   force =     0.00044641   -0.00075575   -0.00323651

     Total force =     0.410295     Total SCF correction =     0.000202


     Computing stress (Cartesian axis) and pressure

          total   stress  (Ry/bohr**3)                   (kbar)     P=   30.20
   0.00009325   0.00000000   0.00001119         13.72      0.00      1.65
   0.00000000   0.00054558  -0.00000000          0.00     80.26     -0.00
   0.00001119  -0.00000000  -0.00002285          1.65     -0.00     -3.36


     Writing output data file scf.save
 
     init_run     :     56.70s CPU     59.18s WALL (       1 calls)
     electrons    :   1912.41s CPU   2000.93s WALL (       1 calls)
     forces       :     28.97s CPU     29.28s WALL (       1 calls)
     stress       :    193.15s CPU    193.57s WALL (       1 calls)

     Called by init_run:
     wfcinit      :     41.82s CPU     44.13s WALL (       1 calls)
     potinit      :      5.18s CPU      5.22s WALL (       1 calls)

     Called by electrons:
     c_bands      :   1706.57s CPU   1781.31s WALL (      17 calls)
     sum_band     :    185.33s CPU    197.18s WALL (      17 calls)
     v_of_rho     :      3.06s CPU      3.32s WALL (      18 calls)
     newd         :      7.35s CPU      9.03s WALL (      18 calls)
     PAW_pot      :      9.22s CPU      9.23s WALL (      18 calls)
     mix_rho      :      0.79s CPU      0.84s WALL (      17 calls)

     Called by c_bands:
     init_us_2    :     11.13s CPU     11.19s WALL (     222 calls)
     cegterg      :   1661.43s CPU   1735.98s WALL (     102 calls)

     Called by sum_band:
     sum_band:bec :      0.10s CPU      0.10s WALL (     102 calls)
     addusdens    :      7.56s CPU      9.18s WALL (      17 calls)

     Called by *egterg:
     h_psi        :    922.83s CPU    982.62s WALL (     608 calls)
     s_psi        :    182.77s CPU    182.85s WALL (     608 calls)
     g_psi        :      5.73s CPU      5.73s WALL (     500 calls)
     cdiaghg      :    123.68s CPU    123.74s WALL (     602 calls)

     Called by h_psi:
     h_psi:pot    :    915.88s CPU    975.52s WALL (     608 calls)
     h_psi:calbec :    174.38s CPU    174.82s WALL (     608 calls)
     vloc_psi     :    558.91s CPU    618.04s WALL (     608 calls)
     add_vuspsi   :    182.59s CPU    182.65s WALL (     608 calls)

     General routines
     calbec       :    251.53s CPU    252.12s WALL (     740 calls)
     fft          :      2.15s CPU      2.57s WALL (     258 calls)
     fftw         :    601.30s CPU    670.19s WALL (  161802 calls)
 
     Parallel routines
     fft_scatter  :    119.95s CPU    185.16s WALL (  162060 calls)
 
     PWSCF        : 36m44.17s CPU    39m 0.44s WALL

 
   This run was terminated on:  23:48:16  20Dec2017            

=------------------------------------------------------------------------------=
   JOB DONE.
=------------------------------------------------------------------------------=
