
     Program PWSCF v.6.1 (svn rev. 13369) starts on  8Dec2017 at  3:30:16 

     This program is part of the open-source Quantum ESPRESSO suite
     for quantum simulation of materials; please cite
         "P. Giannozzi et al., J. Phys.:Condens. Matter 21 395502 (2009);
          URL http://www.quantum-espresso.org", 
     in publications or presentations arising from this work. More details at
     http://www.quantum-espresso.org/quote

     Parallel version (MPI), running on     8 processors
     R & G space division:  proc/nbgrp/npool/nimage =       8
     Waiting for input...
     Reading input from standard input

     Current dimensions of program PWSCF are:
     Max number of different atomic species (ntypx) = 10
     Max number of k-points (npk) =  40000
     Max angular momentum in pseudopotentials (lmaxx) =  3
               file C.pbe-n-kjpaw_psl.0.1.UPF: wavefunction(s)  2P renormalized
               file N.pbe-n-kjpaw_psl.0.1.UPF: wavefunction(s)  2P renormalized
               file H.pbe-kjpaw_psl.0.1.UPF: wavefunction(s)  1S renormalized
               file O.pbe-n-kjpaw_psl.0.1.UPF: wavefunction(s)  2P renormalized

     -------------------------------------
     Parameters for Dispersion Correction:
     -------------------------------------
       atom      VdW radius       C_6     

        C          2.744         60.710
        N          2.640         42.670
        H          1.892          4.857
        O          2.536         24.284

     Subspace diagonalization in iterative solution of the eigenvalue problem:
     a serial algorithm will be used

 
     Parallelization info
     --------------------
     sticks:   dense  smooth     PW     G-vecs:    dense   smooth      PW
     Min        2853    2853    746               150205   150205   20067
     Max        2854    2854    748               150208   150208   20068
     Sum       22825   22825   5979              1201651  1201651  160543
 


     bravais-lattice index     =            0
     lattice parameter (alat)  =      21.0062  a.u.
     unit-cell volume          =    8893.2619 (a.u.)^3
     number of atoms/cell      =          128
     number of atomic types    =            4
     number of electrons       =       496.00
     number of Kohn-Sham states=          297
     kinetic-energy cutoff     =     100.0000  Ry
     charge density cutoff     =     400.0000  Ry
     convergence threshold     =      1.0E-08
     mixing beta               =       0.5000
     number of iterations used =            8  plain     mixing
     Exchange-correlation      =  SLA  PW   PBX  PBC ( 1  4  3  4 0 0)

     celldm(1)=  21.006196  celldm(2)=   0.000000  celldm(3)=   0.000000
     celldm(4)=   0.000000  celldm(5)=   0.000000  celldm(6)=   0.000000

     crystal axes: (cart. coord. in units of alat)
               a(1) = (   1.000000   0.000000   0.000000 )  
               a(2) = (   0.000000   1.626035   0.000000 )  
               a(3) = (   0.000000   0.000000   0.590050 )  

     reciprocal axes: (cart. coord. in units 2 pi/alat)
               b(1) = (  1.000000  0.000000  0.000000 )  
               b(2) = (  0.000000  0.614993  0.000000 )  
               b(3) = (  0.000000  0.000000  1.694771 )  


     PseudoPot. # 1 for  C read from file:
     /scratch/ahofstet/pseudo/C.pbe-n-kjpaw_psl.0.1.UPF
     MD5 check sum: 430fe95172b1e11ef3f8ed03bac87931
     Pseudo is Projector augmented-wave + core cor, Zval =  4.0
     Generated using "atomic" code by A. Dal Corso  v.5.0.99 svn rev. 10869
     Shape of augmentation charge: BESSEL
     Using radial grid of 1073 points,  4 beta functions with: 
                l(1) =   0
                l(2) =   0
                l(3) =   1
                l(4) =   1
     Q(r) pseudized with 0 coefficients 


     PseudoPot. # 2 for  N read from file:
     /scratch/ahofstet/pseudo/N.pbe-n-kjpaw_psl.0.1.UPF
     MD5 check sum: f73187c8b701007e77325f868c9291d7
     Pseudo is Projector augmented-wave + core cor, Zval =  5.0
     Generated using "atomic" code by A. Dal Corso  v.5.0.99 svn rev. 10869
     Shape of augmentation charge: PSQ
     Using radial grid of 1085 points,  4 beta functions with: 
                l(1) =   0
                l(2) =   0
                l(3) =   1
                l(4) =   1
     Q(r) pseudized with 0 coefficients 


     PseudoPot. # 3 for  H read from file:
     /scratch/ahofstet/pseudo/H.pbe-kjpaw_psl.0.1.UPF
     MD5 check sum: 94e484f906d9e9773b2f6e52662335b2
     Pseudo is Projector augmented-wave, Zval =  1.0
     Generated using "atomic" code by A. Dal Corso  v.5.0.99 svn rev. 10869
     Shape of augmentation charge: PSQ
     Using radial grid of  929 points,  2 beta functions with: 
                l(1) =   0
                l(2) =   0
     Q(r) pseudized with 0 coefficients 


     PseudoPot. # 4 for  O read from file:
     /scratch/ahofstet/pseudo/O.pbe-n-kjpaw_psl.0.1.UPF
     MD5 check sum: 3f94a2996a3169367d6eb21d9b593f20
     Pseudo is Projector augmented-wave + core cor, Zval =  6.0
     Generated using "atomic" code by A. Dal Corso  v.5.0.99 svn rev. 10869
     Shape of augmentation charge: BESSEL
     Using radial grid of 1095 points,  4 beta functions with: 
                l(1) =   0
                l(2) =   0
                l(3) =   1
                l(4) =   1
     Q(r) pseudized with 0 coefficients 


     atomic species   valence    mass     pseudopotential
        C              4.00    12.01070      C( 1.00)
        N              5.00    14.00670      N( 1.00)
        H              1.00     1.00794      H( 1.00)
        O              6.00    15.99940      O( 1.00)

      2 Sym. Ops., with inversion, found
          (note:  6 additional sym.ops. were found but ignored
           their fractional translations are incommensurate with FFT grid)


   Cartesian axes

     site n.     atom                  positions (alat units)
         1           N   tau(   1) = (   0.6602973   0.2363649   0.2959522  )
         2           N   tau(   2) = (   0.8397027   1.3896696   0.5909774  )
         3           N   tau(   3) = (   0.1602973   0.5766524   0.2940982  )
         4           N   tau(   4) = (   0.3397027   1.0493822  -0.0009270  )
         5           N   tau(   5) = (   0.3397027   1.3896696   0.2940982  )
         6           N   tau(   6) = (   0.1602973   0.2363649  -0.0009270  )
         7           N   tau(   7) = (   0.8397027   1.0493822   0.2959522  )
         8           N   tau(   8) = (   0.6602973   0.5766524   0.5909774  )
         9           N   tau(   9) = (   0.7238816   0.1616306   0.1183753  )
        10           N   tau(  10) = (   0.7761184   1.4644040   0.4134005  )
        11           N   tau(  11) = (   0.2238816   0.6513867   0.4716750  )
        12           N   tau(  12) = (   0.2761184   0.9746479   0.1766498  )
        13           N   tau(  13) = (   0.2761184   1.4644040   0.4716750  )
        14           N   tau(  14) = (   0.2238816   0.1616306   0.1766498  )
        15           N   tau(  15) = (   0.7761184   0.9746479   0.1183753  )
        16           N   tau(  16) = (   0.7238816   0.6513867   0.4134005  )
        17           C   tau(  17) = (   0.6276492   0.1740708   0.1909258  )
        18           C   tau(  18) = (   0.8723508   1.4519638   0.4859509  )
        19           C   tau(  19) = (   0.1276492   0.6389465   0.3991246  )
        20           C   tau(  20) = (   0.3723508   0.9870880   0.1040994  )
        21           C   tau(  21) = (   0.3723508   1.4519638   0.3991246  )
        22           C   tau(  22) = (   0.1276492   0.1740708   0.1040994  )
        23           C   tau(  23) = (   0.8723508   0.9870880   0.1909258  )
        24           C   tau(  24) = (   0.6276492   0.6389465   0.4859509  )
        25           N   tau(  25) = (   0.5176851   0.1335251   0.1745244  )
        26           N   tau(  26) = (   0.9823149   1.4925095   0.4695496  )
        27           N   tau(  27) = (   0.0176851   0.6794922   0.4155260  )
        28           N   tau(  28) = (   0.4823149   0.9465423   0.1205008  )
        29           N   tau(  29) = (   0.4823149   1.4925095   0.4155260  )
        30           N   tau(  30) = (   0.0176851   0.1335251   0.1205008  )
        31           N   tau(  31) = (   0.9823149   0.9465423   0.1745244  )
        32           N   tau(  32) = (   0.5176851   0.6794922   0.4695496  )
        33           H   tau(  33) = (   0.4501680   0.1416015   0.2368963  )
        34           H   tau(  34) = (   0.0498320   1.4844330   0.5319215  )
        35           H   tau(  35) = (   0.9501680   0.6714158   0.3531540  )
        36           H   tau(  36) = (   0.5498320   0.9546188   0.0581288  )
        37           H   tau(  37) = (   0.5498320   1.4844330   0.3531540  )
        38           H   tau(  38) = (   0.9501680   0.1416015   0.0581288  )
        39           H   tau(  39) = (   0.0498320   0.9546188   0.2368963  )
        40           H   tau(  40) = (   0.4501680   0.6714158   0.5319215  )
        41           H   tau(  41) = (   0.5041348   0.0863198   0.0968109  )
        42           H   tau(  42) = (   0.9958652   1.5397148   0.3918361  )
        43           H   tau(  43) = (   0.0041348   0.7266975   0.4932395  )
        44           H   tau(  44) = (   0.4958652   0.8993370   0.1982143  )
        45           H   tau(  45) = (   0.4958652   1.5397148   0.4932395  )
        46           H   tau(  46) = (   0.0041348   0.0863198   0.1982143  )
        47           H   tau(  47) = (   0.9958652   0.8993370   0.0968109  )
        48           H   tau(  48) = (   0.5041348   0.7266975   0.3918361  )
        49           N   tau(  49) = (   0.5769795   0.3065558   0.3605218  )
        50           N   tau(  50) = (   0.9230205   1.3194788   0.0654967  )
        51           N   tau(  51) = (   0.0769795   0.5064615   0.2295285  )
        52           N   tau(  52) = (   0.4230205   1.1195731   0.5245537  )
        53           N   tau(  53) = (   0.4230205   1.3194788   0.2295285  )
        54           N   tau(  54) = (   0.0769795   0.3065558   0.5245537  )
        55           N   tau(  55) = (   0.9230205   1.1195731   0.3605218  )
        56           N   tau(  56) = (   0.5769795   0.5064615   0.0654967  )
        57           O   tau(  57) = (   0.6207254   0.3720690   0.4380583  )
        58           O   tau(  58) = (   0.8792746   1.2539656   0.1430332  )
        59           O   tau(  59) = (   0.1207254   0.4409483   0.1519920  )
        60           O   tau(  60) = (   0.3792746   1.1850862   0.4470172  )
        61           O   tau(  61) = (   0.3792746   1.2539656   0.1519920  )
        62           O   tau(  62) = (   0.1207254   0.3720690   0.4470172  )
        63           O   tau(  63) = (   0.8792746   1.1850862   0.4380583  )
        64           O   tau(  64) = (   0.6207254   0.4409483   0.1430332  )
        65           O   tau(  65) = (   0.4694492   0.2977854   0.3364530  )
        66           O   tau(  66) = (   0.0305508   1.3282492   0.0414278  )
        67           O   tau(  67) = (   0.9694492   0.5152319   0.2535974  )
        68           O   tau(  68) = (   0.5305508   1.1108026   0.5486226  )
        69           O   tau(  69) = (   0.5305508   1.3282492   0.2535974  )
        70           O   tau(  70) = (   0.9694492   0.2977854   0.5486226  )
        71           O   tau(  71) = (   0.0305508   1.1108026   0.3364530  )
        72           O   tau(  72) = (   0.4694492   0.5152319   0.0414278  )
        73           N   tau(  73) = (   0.7151133   0.0942353   0.0183207  )
        74           N   tau(  74) = (   0.7848867   1.5317992   0.3133459  )
        75           N   tau(  75) = (   0.2151133   0.7187819   0.5717296  )
        76           N   tau(  76) = (   0.2848867   0.9072526   0.2767044  )
        77           N   tau(  77) = (   0.2848867   1.5317992   0.5717296  )
        78           N   tau(  78) = (   0.2151133   0.0942353   0.2767044  )
        79           N   tau(  79) = (   0.7848867   0.9072526   0.0183207  )
        80           N   tau(  80) = (   0.7151133   0.7187819   0.3133459  )
        81           O   tau(  81) = (   0.8119662   0.0778056   0.5537230  )
        82           O   tau(  82) = (   0.6880338   1.5482289   0.2586978  )
        83           O   tau(  83) = (   0.3119662   0.7352116   0.0363273  )
        84           O   tau(  84) = (   0.1880338   0.8908229   0.3313525  )
        85           O   tau(  85) = (   0.1880338   1.5482289   0.0363273  )
        86           O   tau(  86) = (   0.3119662   0.0778056   0.3313525  )
        87           O   tau(  87) = (   0.6880338   0.8908229   0.5537230  )
        88           O   tau(  88) = (   0.8119662   0.7352116   0.2586978  )
        89           O   tau(  89) = (   0.6174978   0.0524184   0.5689497  )
        90           O   tau(  90) = (   0.8825022   1.5736162   0.2739245  )
        91           O   tau(  91) = (   0.1174978   0.7605989   0.0211007  )
        92           O   tau(  92) = (   0.3825022   0.8654357   0.3161259  )
        93           O   tau(  93) = (   0.3825022   1.5736162   0.0211007  )
        94           O   tau(  94) = (   0.1174978   0.0524184   0.3161259  )
        95           O   tau(  95) = (   0.8825022   0.8654357   0.5689497  )
        96           O   tau(  96) = (   0.6174978   0.7605989   0.2739245  )
        97           C   tau(  97) = (   0.7867422   0.2543864   0.3281390  )
        98           C   tau(  98) = (   0.7132578   1.3716481   0.0331138  )
        99           C   tau(  99) = (   0.2867422   0.5586309   0.2619114  )
       100           C   tau( 100) = (   0.2132578   1.0674037   0.5569365  )
       101           C   tau( 101) = (   0.2132578   1.3716481   0.2619114  )
       102           C   tau( 102) = (   0.2867422   0.2543864   0.5569365  )
       103           C   tau( 103) = (   0.7132578   1.0674037   0.3281390  )
       104           C   tau( 104) = (   0.7867422   0.5586309   0.0331138  )
       105           H   tau( 105) = (   0.7939994   0.2566883   0.4259777  )
       106           H   tau( 106) = (   0.7060006   1.3693463   0.1309525  )
       107           H   tau( 107) = (   0.2939994   0.5563290   0.1640727  )
       108           H   tau( 108) = (   0.2060006   1.0697056   0.4590979  )
       109           H   tau( 109) = (   0.2060006   1.3693463   0.1640727  )
       110           H   tau( 110) = (   0.2939994   0.2566883   0.4590979  )
       111           H   tau( 111) = (   0.7060006   1.0697056   0.4259777  )
       112           H   tau( 112) = (   0.7939994   0.5563290   0.1309525  )
       113           H   tau( 113) = (   0.8220162   0.3381842   0.2896199  )
       114           H   tau( 114) = (   0.6779838   1.2878504   0.5846451  )
       115           H   tau( 115) = (   0.3220162   0.4748331   0.3004305  )
       116           H   tau( 116) = (   0.1779838   1.1512015   0.0054053  )
       117           H   tau( 117) = (   0.1779838   1.2878504   0.3004305  )
       118           H   tau( 118) = (   0.3220162   0.3381842   0.0054053  )
       119           H   tau( 119) = (   0.6779838   1.1512015   0.2896199  )
       120           H   tau( 120) = (   0.8220162   0.4748331   0.5846451  )
       121           H   tau( 121) = (   0.8367372   0.1772798   0.2938539  )
       122           H   tau( 122) = (   0.6632628   1.4487548  -0.0011713  )
       123           H   tau( 123) = (   0.3367372   0.6357375   0.2961964  )
       124           H   tau( 124) = (   0.1632628   0.9902970   0.5912216  )
       125           H   tau( 125) = (   0.1632628   1.4487548   0.2961964  )
       126           H   tau( 126) = (   0.3367372   0.1772798   0.5912216  )
       127           H   tau( 127) = (   0.6632628   0.9902970   0.2938539  )
       128           H   tau( 128) = (   0.8367372   0.6357375  -0.0011713  )

     number of k points=     4
                       cart. coord. in units 2pi/alat
        k(    1) = (   0.0000000   0.0000000   0.0000000), wk =   0.3333333
        k(    2) = (   0.0000000   0.0000000   0.5649235), wk =   0.6666667
        k(    3) = (  -0.5000000   0.0000000   0.0000000), wk =   0.3333333
        k(    4) = (  -0.5000000   0.0000000   0.5649235), wk =   0.6666667

     Dense  grid:  1201651 G-vectors     FFT dimensions: ( 135, 225,  80)

     Estimated max dynamical RAM per process >    1465.03MB

     Estimated total allocated dynamical RAM >   11720.20MB

     Check: negative/imaginary core charge=   -0.000002    0.000000

     Initial potential from superposition of free atoms

     starting charge  495.99861, renormalised to  496.00000
     Starting wfc are  392 randomized atomic wfcs
     Checking if some PAW data can be deallocated... 

     total cpu time spent up to now is       53.0 secs

     per-process dynamical memory:   815.5 Mb

     Self-consistent Calculation

     iteration #  1     ecut=   100.00 Ry     beta=0.50
     Davidson diagonalization with overlap
     ethr =  1.00E-02,  avg # of iterations =  3.0

     total cpu time spent up to now is      202.3 secs

     total energy              =   -2796.84957722 Ry
     Harris-Foulkes estimate   =   -2805.52439633 Ry
     estimated scf accuracy    <      15.18349118 Ry

     iteration #  2     ecut=   100.00 Ry     beta=0.50
     Davidson diagonalization with overlap
     ethr =  3.06E-03,  avg # of iterations =  3.2

     total cpu time spent up to now is      326.0 secs

     total energy              =   -2800.04130427 Ry
     Harris-Foulkes estimate   =   -2802.32670820 Ry
     estimated scf accuracy    <       5.03573408 Ry

     iteration #  3     ecut=   100.00 Ry     beta=0.50
     Davidson diagonalization with overlap
     ethr =  1.02E-03,  avg # of iterations =  4.0

     total cpu time spent up to now is      427.5 secs

     total energy              =   -2801.03988312 Ry
     Harris-Foulkes estimate   =   -2801.17832245 Ry
     estimated scf accuracy    <       0.39045931 Ry

     iteration #  4     ecut=   100.00 Ry     beta=0.50
     Davidson diagonalization with overlap
     ethr =  7.87E-05,  avg # of iterations =  9.0

     total cpu time spent up to now is      591.1 secs

     total energy              =   -2801.13933070 Ry
     Harris-Foulkes estimate   =   -2801.18883039 Ry
     estimated scf accuracy    <       0.12809442 Ry

     iteration #  5     ecut=   100.00 Ry     beta=0.50
     Davidson diagonalization with overlap
     ethr =  2.58E-05,  avg # of iterations =  2.5

     total cpu time spent up to now is      686.3 secs

     total energy              =   -2801.15646619 Ry
     Harris-Foulkes estimate   =   -2801.16862108 Ry
     estimated scf accuracy    <       0.03223643 Ry

     iteration #  6     ecut=   100.00 Ry     beta=0.50
     Davidson diagonalization with overlap
     ethr =  6.50E-06,  avg # of iterations =  5.8

     total cpu time spent up to now is      806.9 secs

     total energy              =   -2801.16365254 Ry
     Harris-Foulkes estimate   =   -2801.16654983 Ry
     estimated scf accuracy    <       0.00771858 Ry

     iteration #  7     ecut=   100.00 Ry     beta=0.50
     Davidson diagonalization with overlap
     ethr =  1.56E-06,  avg # of iterations =  5.2

     total cpu time spent up to now is      907.3 secs

     total energy              =   -2801.16486250 Ry
     Harris-Foulkes estimate   =   -2801.16520447 Ry
     estimated scf accuracy    <       0.00084453 Ry

     iteration #  8     ecut=   100.00 Ry     beta=0.50
     Davidson diagonalization with overlap
     ethr =  1.70E-07,  avg # of iterations =  3.0

     total cpu time spent up to now is     1030.5 secs

     total energy              =   -2801.16509652 Ry
     Harris-Foulkes estimate   =   -2801.16521151 Ry
     estimated scf accuracy    <       0.00031936 Ry

     iteration #  9     ecut=   100.00 Ry     beta=0.50
     Davidson diagonalization with overlap
     ethr =  6.44E-08,  avg # of iterations =  2.5

     total cpu time spent up to now is     1125.9 secs

     total energy              =   -2801.16515041 Ry
     Harris-Foulkes estimate   =   -2801.16520540 Ry
     estimated scf accuracy    <       0.00018386 Ry

     iteration # 10     ecut=   100.00 Ry     beta=0.50
     Davidson diagonalization with overlap
     ethr =  3.71E-08,  avg # of iterations =  2.0

     total cpu time spent up to now is     1211.4 secs

     total energy              =   -2801.16517230 Ry
     Harris-Foulkes estimate   =   -2801.16517678 Ry
     estimated scf accuracy    <       0.00001130 Ry

     iteration # 11     ecut=   100.00 Ry     beta=0.50
     Davidson diagonalization with overlap
     ethr =  2.28E-09,  avg # of iterations =  4.0

     total cpu time spent up to now is     1364.8 secs

     total energy              =   -2801.16517778 Ry
     Harris-Foulkes estimate   =   -2801.16518016 Ry
     estimated scf accuracy    <       0.00000713 Ry

     iteration # 12     ecut=   100.00 Ry     beta=0.50
     Davidson diagonalization with overlap
     ethr =  1.44E-09,  avg # of iterations =  2.0

     total cpu time spent up to now is     1449.3 secs

     total energy              =   -2801.16517804 Ry
     Harris-Foulkes estimate   =   -2801.16517871 Ry
     estimated scf accuracy    <       0.00000201 Ry

     iteration # 13     ecut=   100.00 Ry     beta=0.50
     Davidson diagonalization with overlap
     ethr =  4.06E-10,  avg # of iterations =  3.0

     total cpu time spent up to now is     1559.7 secs

     total energy              =   -2801.16517862 Ry
     Harris-Foulkes estimate   =   -2801.16517866 Ry
     estimated scf accuracy    <       0.00000016 Ry

     iteration # 14     ecut=   100.00 Ry     beta=0.50
     Davidson diagonalization with overlap
     ethr =  3.27E-11,  avg # of iterations =  3.0

     total cpu time spent up to now is     1668.7 secs

     total energy              =   -2801.16517866 Ry
     Harris-Foulkes estimate   =   -2801.16517867 Ry
     estimated scf accuracy    <       0.00000006 Ry

     iteration # 15     ecut=   100.00 Ry     beta=0.50
     Davidson diagonalization with overlap
     ethr =  1.20E-11,  avg # of iterations =  2.0

     total cpu time spent up to now is     1761.4 secs

     total energy              =   -2801.16517866 Ry
     Harris-Foulkes estimate   =   -2801.16517867 Ry
     estimated scf accuracy    <       0.00000002 Ry

     iteration # 16     ecut=   100.00 Ry     beta=0.50
     Davidson diagonalization with overlap
     ethr =  3.64E-12,  avg # of iterations =  3.0

     total cpu time spent up to now is     1856.5 secs

     End of self-consistent calculation

          k = 0.0000 0.0000 0.0000 (150201 PWs)   bands (ev):

   -24.9655 -24.9653 -24.9636 -24.9635 -24.9149 -24.9147 -24.9137 -24.9137
   -24.1886 -24.1884 -24.1801 -24.1800 -24.1519 -24.1518 -24.1464 -24.1463
   -20.2999 -20.2991 -20.2958 -20.2957 -20.2799 -20.2794 -20.2741 -20.2741
   -19.4904 -19.4891 -19.4257 -19.4219 -19.4094 -19.4069 -19.3993 -19.3977
   -19.0982 -19.0954 -19.0801 -19.0778 -19.0726 -19.0706 -19.0592 -19.0498
   -17.2082 -17.1914 -17.1856 -17.1790 -17.1731 -17.1639 -17.1610 -17.1425
   -16.3194 -16.3177 -16.3138 -16.3120 -16.2732 -16.2717 -16.2715 -16.2701
   -12.5806 -12.5785 -12.5685 -12.5559 -12.5499 -12.5355 -12.5322 -12.5290
   -11.5634 -11.5438 -11.5275 -11.5072 -11.4456 -11.4373 -11.4300 -11.4235
    -9.6879  -9.6738  -9.6295  -9.6211  -9.6186  -9.6104  -9.4901  -9.4568
    -8.3079  -8.2944  -8.1540  -8.1167  -8.0422  -8.0416  -7.9242  -7.8800
    -7.7190  -7.6981  -7.6946  -7.6942  -7.6444  -7.6198  -7.6173  -7.6124
    -7.4818  -7.4687  -7.3641  -7.3171  -7.2898  -7.2572  -7.2415  -7.2363
    -7.2333  -7.2137  -7.1219  -7.1213  -7.0437  -7.0183  -7.0078  -6.9407
    -6.8102  -6.7953  -6.7424  -6.7394  -6.7148  -6.6626  -6.6508  -6.6467
    -6.6446  -6.6187  -6.6042  -6.5966  -6.4889  -6.4704  -6.4701  -6.4397
    -6.3737  -6.3295  -6.3147  -6.3116  -6.2814  -6.2746  -6.1375  -6.0893
    -5.9191  -5.9182  -5.8939  -5.8933  -5.8432  -5.8390  -5.7523  -5.7388
    -5.0240  -5.0174  -4.8689  -4.8688  -4.8628  -4.7841  -4.7196  -4.6312
    -4.4525  -4.4089  -4.3808  -4.3097  -4.2790  -4.2548  -4.2179  -4.1479
    -3.4212  -3.3637  -3.3471  -3.2851  -3.2721  -3.2713  -3.2532  -3.2410
    -3.1017  -3.1011  -3.0675  -3.0659  -3.0564  -3.0503  -3.0343  -3.0044
    -1.6620  -1.6562  -1.6485  -1.6465  -1.6355  -1.5942  -1.5936  -1.5934
    -1.5715  -1.4804  -1.4526  -1.4320  -1.4289  -1.3683  -1.3119  -1.3007
    -1.2145  -1.2132  -1.2078  -1.2000  -1.1880  -1.1563  -1.1556  -1.1372
    -1.0319  -1.0185  -0.9299  -0.8961  -0.8647  -0.8635  -0.8631  -0.8501
    -0.8339  -0.8269  -0.7856  -0.7740  -0.7131  -0.7118  -0.6969  -0.6895
    -0.4418  -0.4197  -0.4194  -0.4031  -0.3973  -0.3853  -0.3813  -0.3471
    -0.2391  -0.2337  -0.1271  -0.1236  -0.0914  -0.0787  -0.0705  -0.0547
    -0.0263  -0.0112   0.0032   0.0127   0.0184   0.0239   0.0632   0.0849
     0.3277   0.3353   0.4023   0.4044   0.4055   0.4067   0.4405   0.4429
     3.2679   3.2891   3.3580   3.4474   3.4990   3.5055   3.5062   3.6879
     4.0996   4.1089   4.1631   4.1729   4.1989   4.2240   4.2328   4.2608
     6.2510   6.2782   6.3085   6.3828   6.3937   6.3976   6.4000   6.4370
     6.6878   7.0517   7.2348   7.3071   7.3110   7.6290   7.8257   7.8646
     7.9358   7.9386   7.9961   8.0756   8.2991   8.4200   8.4743   8.5082
     8.5112   8.5630   8.5975   8.7412   8.7698   8.9246   8.9454   8.9835
     8.9851

          k = 0.0000 0.0000 0.5649 (150182 PWs)   bands (ev):

   -24.9525 -24.9524 -24.9511 -24.9511 -24.9271 -24.9270 -24.9262 -24.9262
   -24.1796 -24.1795 -24.1717 -24.1717 -24.1613 -24.1612 -24.1549 -24.1548
   -20.2936 -20.2932 -20.2911 -20.2911 -20.2837 -20.2835 -20.2801 -20.2800
   -19.4750 -19.4745 -19.4376 -19.4363 -19.4195 -19.4173 -19.4033 -19.4023
   -19.0958 -19.0941 -19.0859 -19.0831 -19.0716 -19.0669 -19.0614 -19.0563
   -17.1884 -17.1787 -17.1704 -17.1673 -17.1587 -17.1574 -17.1565 -17.1484
   -16.3157 -16.3149 -16.3120 -16.3113 -16.2804 -16.2804 -16.2797 -16.2795
   -12.5805 -12.5729 -12.5480 -12.5477 -12.5362 -12.5343 -12.5276 -12.5234
   -11.5537 -11.5442 -11.5284 -11.5136 -11.4985 -11.4789 -11.4764 -11.4608
    -9.6567  -9.6521  -9.6500  -9.6479  -9.5501  -9.5264  -9.5064  -9.4974
    -8.3401  -8.3285  -8.2136  -8.1994  -8.0247  -7.9795  -7.8775  -7.8602
    -7.7346  -7.6860  -7.6764  -7.6697  -7.6248  -7.6136  -7.6072  -7.5832
    -7.4564  -7.4465  -7.3678  -7.3668  -7.2943  -7.2916  -7.2884  -7.2696
    -7.2604  -7.2544  -7.2363  -7.2293  -6.9738  -6.9689  -6.9357  -6.9286
    -6.7540  -6.7412  -6.7364  -6.6848  -6.6768  -6.6525  -6.6218  -6.6134
    -6.6073  -6.6068  -6.5833  -6.5800  -6.5771  -6.5546  -6.4775  -6.4309
    -6.3801  -6.3360  -6.3338  -6.3080  -6.2696  -6.2461  -6.1867  -6.1687
    -5.9442  -5.9204  -5.9203  -5.9079  -5.7851  -5.7847  -5.7425  -5.7410
    -4.9642  -4.9436  -4.8951  -4.8907  -4.8181  -4.7702  -4.7541  -4.6798
    -4.3156  -4.3019  -4.2589  -4.2469  -4.2192  -4.1873  -4.1601  -4.1257
    -3.4299  -3.4040  -3.3905  -3.3683  -3.2891  -3.2766  -3.2740  -3.2643
    -3.1715  -3.1678  -3.1554  -3.1485  -3.1152  -3.1045  -3.0967  -3.0826
    -1.6646  -1.6635  -1.6626  -1.6540  -1.5752  -1.5612  -1.5575  -1.5504
    -1.5319  -1.4922  -1.4773  -1.4662  -1.3663  -1.3381  -1.3338  -1.3078
    -1.2515  -1.2413  -1.2391  -1.2207  -1.1640  -1.1596  -1.1565  -1.1519
    -0.9596  -0.9545  -0.9267  -0.9127  -0.8528  -0.8442  -0.8409  -0.8367
    -0.8198  -0.8136  -0.7729  -0.7672  -0.7198  -0.7099  -0.7082  -0.7032
    -0.4642  -0.4625  -0.4449  -0.4378  -0.4170  -0.4085  -0.4059  -0.3867
    -0.2071  -0.2038  -0.1607  -0.1562  -0.1027  -0.0908  -0.0868  -0.0642
    -0.0444  -0.0328  -0.0239  -0.0090   0.0121   0.0418   0.0521   0.0589
     0.3393   0.3409   0.3744   0.3810   0.4272   0.4285   0.4383   0.4400
     3.3153   3.3373   3.4283   3.4304   3.4767   3.5493   3.5652   3.6329
     4.1107   4.1496   4.1685   4.1703   4.2052   4.2531   4.2535   4.2797
     6.2832   6.2888   6.3177   6.3844   6.4563   6.4853   6.4885   6.5269
     7.0950   7.2702   7.4294   7.4344   7.5655   7.5764   7.7795   7.7912
     7.8032   7.8724   8.0786   8.1275   8.1369   8.3808   8.4993   8.6003
     8.6164   8.6296   8.7328   8.7811   8.7831   8.8392   8.9625   9.0076
     9.0793

          k =-0.5000 0.0000 0.0000 (150246 PWs)   bands (ev):

   -24.9646 -24.9646 -24.9644 -24.9644 -24.9143 -24.9143 -24.9142 -24.9142
   -24.1847 -24.1847 -24.1845 -24.1845 -24.1489 -24.1489 -24.1487 -24.1487
   -20.2978 -20.2978 -20.2975 -20.2975 -20.2769 -20.2769 -20.2767 -20.2767
   -19.4634 -19.4634 -19.4610 -19.4610 -19.4002 -19.4002 -19.3980 -19.3980
   -19.0901 -19.0901 -19.0809 -19.0809 -19.0690 -19.0690 -19.0594 -19.0594
   -17.2022 -17.2022 -17.1817 -17.1817 -17.1690 -17.1690 -17.1494 -17.1494
   -16.3171 -16.3171 -16.3153 -16.3153 -16.2722 -16.2722 -16.2705 -16.2705
   -12.5754 -12.5754 -12.5661 -12.5661 -12.5417 -12.5417 -12.5303 -12.5303
   -11.5018 -11.5017 -11.4886 -11.4886 -11.4845 -11.4845 -11.4708 -11.4707
    -9.6665  -9.6665  -9.6498  -9.6498  -9.5527  -9.5527  -9.5308  -9.5308
    -8.2303  -8.2303  -8.2291  -8.2291  -7.9725  -7.9725  -7.9562  -7.9562
    -7.6745  -7.6745  -7.6538  -7.6538  -7.6446  -7.6446  -7.6281  -7.6281
    -7.4014  -7.4014  -7.3296  -7.3296  -7.2646  -7.2646  -7.2378  -7.2378
    -7.2205  -7.2205  -7.1991  -7.1991  -7.0368  -7.0368  -7.0180  -7.0180
    -6.8186  -6.8185  -6.8064  -6.8064  -6.7013  -6.7013  -6.6810  -6.6810
    -6.6118  -6.6118  -6.5900  -6.5899  -6.4374  -6.4374  -6.4132  -6.4131
    -6.3458  -6.3458  -6.3308  -6.3308  -6.2177  -6.2177  -6.1756  -6.1756
    -5.8797  -5.8797  -5.8753  -5.8753  -5.8205  -5.8204  -5.8178  -5.8178
    -4.9538  -4.9538  -4.8603  -4.8603  -4.8541  -4.8541  -4.7480  -4.7480
    -4.3934  -4.3934  -4.3390  -4.3390  -4.2518  -4.2518  -4.2003  -4.2003
    -3.3564  -3.3564  -3.3081  -3.3081  -3.3030  -3.3030  -3.2664  -3.2664
    -3.0737  -3.0737  -3.0652  -3.0651  -3.0540  -3.0540  -3.0454  -3.0454
    -1.6148  -1.6148  -1.6113  -1.6113  -1.5814  -1.5814  -1.5395  -1.5395
    -1.4875  -1.4875  -1.4399  -1.4399  -1.4374  -1.4374  -1.4169  -1.4169
    -1.2281  -1.2281  -1.1893  -1.1893  -1.1835  -1.1835  -1.1756  -1.1756
    -0.9527  -0.9527  -0.9461  -0.9461  -0.8737  -0.8737  -0.8638  -0.8638
    -0.8317  -0.8317  -0.8317  -0.8317  -0.7066  -0.7065  -0.6926  -0.6926
    -0.4369  -0.4369  -0.4330  -0.4330  -0.3933  -0.3933  -0.3900  -0.3900
    -0.1608  -0.1608  -0.1364  -0.1364  -0.0844  -0.0844  -0.0712  -0.0712
    -0.0305  -0.0305   0.0140   0.0140   0.0271   0.0271   0.0599   0.0599
     0.3614   0.3615   0.3653   0.3653   0.4348   0.4348   0.4378   0.4378
     3.3029   3.3030   3.4014   3.4014   3.4630   3.4630   3.6038   3.6038
     4.1346   4.1346   4.1690   4.1690   4.1884   4.1884   4.2623   4.2623
     6.2851   6.2851   6.3053   6.3053   6.3552   6.3553   6.4133   6.4133
     6.8102   6.8102   7.3082   7.3082   7.4418   7.4418   7.9935   7.9935
     8.0895   8.0895   8.1175   8.1175   8.2615   8.2615   8.5024   8.5024
     8.5732   8.5732   8.6671   8.6672   8.8517   8.8518   9.0025   9.0026
     9.0123

          k =-0.5000 0.0000 0.5649 (150184 PWs)   bands (ev):

   -24.9518 -24.9518 -24.9517 -24.9517 -24.9267 -24.9267 -24.9266 -24.9266
   -24.1763 -24.1763 -24.1762 -24.1762 -24.1575 -24.1575 -24.1574 -24.1574
   -20.2923 -20.2923 -20.2921 -20.2921 -20.2819 -20.2819 -20.2817 -20.2817
   -19.4552 -19.4552 -19.4540 -19.4540 -19.4138 -19.4138 -19.4125 -19.4125
   -19.0844 -19.0844 -19.0785 -19.0785 -19.0741 -19.0741 -19.0678 -19.0678
   -17.1817 -17.1817 -17.1714 -17.1714 -17.1600 -17.1600 -17.1498 -17.1498
   -16.3139 -16.3139 -16.3131 -16.3131 -16.2804 -16.2804 -16.2797 -16.2796
   -12.5624 -12.5624 -12.5555 -12.5555 -12.5373 -12.5373 -12.5315 -12.5315
   -11.5175 -11.5175 -11.5122 -11.5122 -11.4995 -11.4995 -11.4942 -11.4942
    -9.6543  -9.6543  -9.6423  -9.6423  -9.5379  -9.5379  -9.5258  -9.5258
    -8.2417  -8.2417  -8.2325  -8.2325  -7.9946  -7.9945  -7.9765  -7.9765
    -7.6863  -7.6863  -7.6669  -7.6669  -7.6369  -7.6369  -7.6344  -7.6344
    -7.3522  -7.3521  -7.3417  -7.3417  -7.2950  -7.2950  -7.2732  -7.2732
    -7.2183  -7.2183  -7.2168  -7.2168  -7.0478  -7.0478  -7.0406  -7.0406
    -6.7126  -6.7126  -6.6990  -6.6990  -6.6398  -6.6398  -6.6362  -6.6362
    -6.5973  -6.5973  -6.5969  -6.5969  -6.5134  -6.5134  -6.5087  -6.5087
    -6.3174  -6.3174  -6.3155  -6.3155  -6.2177  -6.2177  -6.2017  -6.2017
    -5.8788  -5.8788  -5.8786  -5.8786  -5.8274  -5.8274  -5.8261  -5.8261
    -4.9315  -4.9314  -4.8866  -4.8866  -4.8052  -4.8052  -4.7548  -4.7548
    -4.2847  -4.2847  -4.2456  -4.2456  -4.1922  -4.1922  -4.1719  -4.1719
    -3.3760  -3.3760  -3.3499  -3.3499  -3.3496  -3.3496  -3.3313  -3.3313
    -3.1308  -3.1308  -3.1250  -3.1250  -3.1017  -3.1017  -3.0998  -3.0998
    -1.6161  -1.6161  -1.6011  -1.6011  -1.5754  -1.5754  -1.5729  -1.5729
    -1.4492  -1.4492  -1.4211  -1.4211  -1.4171  -1.4171  -1.3980  -1.3980
    -1.2136  -1.2136  -1.2020  -1.2020  -1.1889  -1.1889  -1.1856  -1.1856
    -0.9182  -0.9182  -0.9144  -0.9144  -0.8653  -0.8653  -0.8642  -0.8642
    -0.8215  -0.8214  -0.8155  -0.8155  -0.7260  -0.7260  -0.7232  -0.7232
    -0.4539  -0.4539  -0.4414  -0.4414  -0.4122  -0.4122  -0.4096  -0.4096
    -0.1664  -0.1664  -0.1502  -0.1502  -0.1296  -0.1296  -0.1105  -0.1104
    -0.0245  -0.0245  -0.0010  -0.0010   0.0342   0.0342   0.0537   0.0537
     0.3613   0.3613   0.3625   0.3625   0.4367   0.4367   0.4372   0.4373
     3.3904   3.3904   3.4434   3.4434   3.4879   3.4879   3.5329   3.5329
     4.1560   4.1560   4.2082   4.2082   4.2156   4.2156   4.2371   4.2371
     6.2828   6.2828   6.3459   6.3460   6.4613   6.4613   6.5046   6.5046
     7.1222   7.1222   7.4035   7.4036   7.5109   7.5109   7.7956   7.7956
     8.0069   8.0069   8.0165   8.0165   8.3962   8.3962   8.5091   8.5091
     8.6971   8.6971   8.8515   8.8515   8.8749   8.8750   8.9928   8.9929
     9.0816

     highest occupied, lowest unoccupied level (ev):     0.4429    3.2679

!    total energy              =   -2801.16517867 Ry
     Harris-Foulkes estimate   =   -2801.16517867 Ry
     estimated scf accuracy    <          1.9E-09 Ry

     total all-electron energy =    -10460.443230 Ry

     The total energy is the sum of the following terms:

     one-electron contribution =   -1617.00916383 Ry
     hartree contribution      =    1004.28294322 Ry
     xc contribution           =    -547.53489977 Ry
     ewald contribution        =    -898.18688544 Ry
     Dispersion Correction     =      -0.53274338 Ry
     one-center paw contrib.   =    -742.18442946 Ry

     convergence has been achieved in  16 iterations

     Forces acting on atoms (cartesian axes, Ry/au):

     atom    1 type  2   force =    -0.00167533   -0.00268909    0.00048898
     atom    2 type  2   force =     0.00167857    0.00269120    0.00048757
     atom    3 type  2   force =    -0.00167840    0.00269135   -0.00048800
     atom    4 type  2   force =     0.00167544   -0.00268966   -0.00048837
     atom    5 type  2   force =     0.00167533    0.00268909   -0.00048898
     atom    6 type  2   force =    -0.00167857   -0.00269120   -0.00048757
     atom    7 type  2   force =     0.00167840   -0.00269135    0.00048800
     atom    8 type  2   force =    -0.00167544    0.00268966    0.00048837
     atom    9 type  2   force =    -0.00002732    0.00083552    0.00015785
     atom   10 type  2   force =     0.00002832   -0.00083531    0.00015855
     atom   11 type  2   force =    -0.00002767   -0.00083467   -0.00015726
     atom   12 type  2   force =     0.00002734    0.00083559   -0.00015797
     atom   13 type  2   force =     0.00002732   -0.00083552   -0.00015785
     atom   14 type  2   force =    -0.00002832    0.00083531   -0.00015855
     atom   15 type  2   force =     0.00002767    0.00083467    0.00015726
     atom   16 type  2   force =    -0.00002734   -0.00083559    0.00015797
     atom   17 type  1   force =     0.00019735    0.00178004    0.00153867
     atom   18 type  1   force =    -0.00021248   -0.00177978    0.00153970
     atom   19 type  1   force =     0.00021225   -0.00178049   -0.00153976
     atom   20 type  1   force =    -0.00019827    0.00178100   -0.00153889
     atom   21 type  1   force =    -0.00019735   -0.00178004   -0.00153867
     atom   22 type  1   force =     0.00021248    0.00177978   -0.00153970
     atom   23 type  1   force =    -0.00021225    0.00178049    0.00153976
     atom   24 type  1   force =     0.00019827   -0.00178100    0.00153889
     atom   25 type  2   force =     0.00044929    0.00008377   -0.00042911
     atom   26 type  2   force =    -0.00044787   -0.00008580   -0.00042712
     atom   27 type  2   force =     0.00044781   -0.00008542    0.00042685
     atom   28 type  2   force =    -0.00044926    0.00008457    0.00042813
     atom   29 type  2   force =    -0.00044929   -0.00008377    0.00042911
     atom   30 type  2   force =     0.00044787    0.00008580    0.00042712
     atom   31 type  2   force =    -0.00044781    0.00008542   -0.00042685
     atom   32 type  2   force =     0.00044926   -0.00008457   -0.00042813
     atom   33 type  3   force =    -0.00025302    0.00019143    0.00038082
     atom   34 type  3   force =     0.00025272   -0.00019184    0.00038041
     atom   35 type  3   force =    -0.00025294   -0.00019157   -0.00038061
     atom   36 type  3   force =     0.00025293    0.00019152   -0.00038094
     atom   37 type  3   force =     0.00025302   -0.00019143   -0.00038082
     atom   38 type  3   force =    -0.00025272    0.00019184   -0.00038041
     atom   39 type  3   force =     0.00025294    0.00019157    0.00038061
     atom   40 type  3   force =    -0.00025293   -0.00019152    0.00038094
     atom   41 type  3   force =     0.00019131   -0.00023395    0.00003661
     atom   42 type  3   force =    -0.00019134    0.00023345    0.00003726
     atom   43 type  3   force =     0.00019128    0.00023355   -0.00003717
     atom   44 type  3   force =    -0.00019122   -0.00023381   -0.00003677
     atom   45 type  3   force =    -0.00019131    0.00023395   -0.00003661
     atom   46 type  3   force =     0.00019134   -0.00023345   -0.00003726
     atom   47 type  3   force =    -0.00019128   -0.00023355    0.00003717
     atom   48 type  3   force =     0.00019122    0.00023381    0.00003677
     atom   49 type  2   force =    -0.00104355   -0.00052043   -0.00015929
     atom   50 type  2   force =     0.00104879    0.00052120   -0.00016107
     atom   51 type  2   force =    -0.00104962    0.00052146    0.00016157
     atom   52 type  2   force =     0.00104493   -0.00051992    0.00015995
     atom   53 type  2   force =     0.00104355    0.00052043    0.00015929
     atom   54 type  2   force =    -0.00104879   -0.00052120    0.00016107
     atom   55 type  2   force =     0.00104962   -0.00052146   -0.00016157
     atom   56 type  2   force =    -0.00104493    0.00051992   -0.00015995
     atom   57 type  4   force =     0.00071723   -0.00036281    0.00078832
     atom   58 type  4   force =    -0.00071897    0.00036110    0.00078995
     atom   59 type  4   force =     0.00071927    0.00035833   -0.00079111
     atom   60 type  4   force =    -0.00071657   -0.00036085   -0.00078811
     atom   61 type  4   force =    -0.00071723    0.00036281   -0.00078832
     atom   62 type  4   force =     0.00071897   -0.00036110   -0.00078995
     atom   63 type  4   force =    -0.00071927   -0.00035833    0.00079111
     atom   64 type  4   force =     0.00071657    0.00036085    0.00078811
     atom   65 type  4   force =     0.00033861    0.00026803   -0.00018505
     atom   66 type  4   force =    -0.00033598   -0.00026871   -0.00018555
     atom   67 type  4   force =     0.00033781   -0.00026903    0.00018528
     atom   68 type  4   force =    -0.00033831    0.00026988    0.00018505
     atom   69 type  4   force =    -0.00033861   -0.00026803    0.00018505
     atom   70 type  4   force =     0.00033598    0.00026871    0.00018555
     atom   71 type  4   force =    -0.00033781    0.00026903   -0.00018528
     atom   72 type  4   force =     0.00033831   -0.00026988   -0.00018505
     atom   73 type  2   force =    -0.00009463    0.00018986   -0.00172115
     atom   74 type  2   force =     0.00008576   -0.00018988   -0.00172235
     atom   75 type  2   force =    -0.00008747   -0.00018989    0.00172231
     atom   76 type  2   force =     0.00008817    0.00019123    0.00172118
     atom   77 type  2   force =     0.00009463   -0.00018986    0.00172115
     atom   78 type  2   force =    -0.00008576    0.00018988    0.00172235
     atom   79 type  2   force =     0.00008747    0.00018989   -0.00172231
     atom   80 type  2   force =    -0.00008817   -0.00019123   -0.00172118
     atom   81 type  4   force =    -0.00119089   -0.00222803    0.00056960
     atom   82 type  4   force =     0.00119687    0.00222708    0.00057612
     atom   83 type  4   force =    -0.00119565    0.00222996   -0.00057336
     atom   84 type  4   force =     0.00119333   -0.00222838   -0.00057257
     atom   85 type  4   force =     0.00119089    0.00222803   -0.00056960
     atom   86 type  4   force =    -0.00119687   -0.00222708   -0.00057612
     atom   87 type  4   force =     0.00119565   -0.00222996    0.00057336
     atom   88 type  4   force =    -0.00119333    0.00222838    0.00057257
     atom   89 type  4   force =     0.00127807    0.00086375   -0.00162569
     atom   90 type  4   force =    -0.00126838   -0.00085939   -0.00162989
     atom   91 type  4   force =     0.00127032   -0.00086073    0.00162934
     atom   92 type  4   force =    -0.00127541    0.00086263    0.00162832
     atom   93 type  4   force =    -0.00127807   -0.00086375    0.00162569
     atom   94 type  4   force =     0.00126838    0.00085939    0.00162989
     atom   95 type  4   force =    -0.00127032    0.00086073   -0.00162934
     atom   96 type  4   force =     0.00127541   -0.00086263   -0.00162832
     atom   97 type  1   force =     0.00215411    0.00094242    0.00181900
     atom   98 type  1   force =    -0.00211943   -0.00094208    0.00181967
     atom   99 type  1   force =     0.00211911   -0.00093318   -0.00181894
     atom  100 type  1   force =    -0.00215313    0.00093274   -0.00181856
     atom  101 type  1   force =    -0.00215411   -0.00094242   -0.00181900
     atom  102 type  1   force =     0.00211943    0.00094208   -0.00181967
     atom  103 type  1   force =    -0.00211911    0.00093318    0.00181894
     atom  104 type  1   force =     0.00215313   -0.00093274    0.00181856
     atom  105 type  3   force =    -0.00036251    0.00115061   -0.00112600
     atom  106 type  3   force =     0.00036230   -0.00115066   -0.00112665
     atom  107 type  3   force =    -0.00036237   -0.00115067    0.00112644
     atom  108 type  3   force =     0.00036261    0.00115061    0.00112623
     atom  109 type  3   force =     0.00036251   -0.00115061    0.00112600
     atom  110 type  3   force =    -0.00036230    0.00115066    0.00112665
     atom  111 type  3   force =     0.00036237    0.00115067   -0.00112644
     atom  112 type  3   force =    -0.00036261   -0.00115061   -0.00112623
     atom  113 type  3   force =    -0.00060516    0.00025970   -0.00066366
     atom  114 type  3   force =     0.00060550   -0.00025930   -0.00066335
     atom  115 type  3   force =    -0.00060582   -0.00025890    0.00066331
     atom  116 type  3   force =     0.00060545    0.00025926    0.00066345
     atom  117 type  3   force =     0.00060516   -0.00025970    0.00066366
     atom  118 type  3   force =    -0.00060550    0.00025930    0.00066335
     atom  119 type  3   force =     0.00060582    0.00025890   -0.00066331
     atom  120 type  3   force =    -0.00060545   -0.00025926   -0.00066345
     atom  121 type  3   force =     0.00029183   -0.00034675   -0.00054334
     atom  122 type  3   force =    -0.00029115    0.00034622   -0.00054314
     atom  123 type  3   force =     0.00029132    0.00034691    0.00054334
     atom  124 type  3   force =    -0.00029176   -0.00034712    0.00054335
     atom  125 type  3   force =    -0.00029183    0.00034675    0.00054334
     atom  126 type  3   force =     0.00029115   -0.00034622    0.00054314
     atom  127 type  3   force =    -0.00029132   -0.00034691   -0.00054334
     atom  128 type  3   force =     0.00029176    0.00034712   -0.00054335

     Total force =     0.019555     Total SCF correction =     0.000101


     Computing stress (Cartesian axis) and pressure

          total   stress  (Ry/bohr**3)                   (kbar)     P=    3.33
  -0.00000155   0.00000000   0.00000000         -0.23      0.00      0.00
   0.00000000   0.00002441  -0.00000000          0.00      3.59     -0.00
   0.00000000  -0.00000000   0.00004512          0.00     -0.00      6.64


     Writing output data file scf.save
 
     init_run     :     50.86s CPU     52.33s WALL (       1 calls)
     electrons    :   1741.79s CPU   1803.67s WALL (       1 calls)
     forces       :     26.12s CPU     26.46s WALL (       1 calls)
     stress       :    200.87s CPU    201.29s WALL (       1 calls)

     Called by init_run:
     wfcinit      :     41.14s CPU     42.39s WALL (       1 calls)
     potinit      :      3.46s CPU      3.49s WALL (       1 calls)

     Called by electrons:
     c_bands      :   1546.78s CPU   1598.07s WALL (      16 calls)
     sum_band     :    174.85s CPU    182.98s WALL (      16 calls)
     v_of_rho     :      3.12s CPU      3.35s WALL (      17 calls)
     newd         :      6.94s CPU      9.13s WALL (      17 calls)
     PAW_pot      :      9.31s CPU      9.31s WALL (      17 calls)
     mix_rho      :      0.82s CPU      0.96s WALL (      16 calls)

     Called by c_bands:
     init_us_2    :      9.53s CPU      9.61s WALL (     140 calls)
     cegterg      :   1509.49s CPU   1560.73s WALL (      64 calls)

     Called by sum_band:
     sum_band:bec :      0.09s CPU      0.09s WALL (      64 calls)
     addusdens    :      7.35s CPU      9.43s WALL (      16 calls)

     Called by *egterg:
     h_psi        :    841.37s CPU    876.71s WALL (     297 calls)
     s_psi        :    177.99s CPU    178.03s WALL (     297 calls)
     g_psi        :      4.77s CPU      4.77s WALL (     229 calls)
     cdiaghg      :     92.84s CPU     92.88s WALL (     293 calls)

     Called by h_psi:
     h_psi:pot    :    834.58s CPU    869.80s WALL (     297 calls)
     h_psi:calbec :    166.31s CPU    166.58s WALL (     297 calls)
     vloc_psi     :    490.19s CPU    525.08s WALL (     297 calls)
     add_vuspsi   :    178.07s CPU    178.14s WALL (     297 calls)

     General routines
     calbec       :    248.88s CPU    249.27s WALL (     381 calls)
     fft          :      2.76s CPU      3.15s WALL (     245 calls)
     fftw         :    529.72s CPU    570.22s WALL (  119806 calls)
 
     Parallel routines
     fft_scatter  :     88.89s CPU    127.77s WALL (  120051 calls)
 
     PWSCF        : 33m51.84s CPU    35m27.52s WALL

 
   This run was terminated on:   4: 5:44   8Dec2017            

=------------------------------------------------------------------------------=
   JOB DONE.
=------------------------------------------------------------------------------=
