
     Program PWSCF v.6.1 (svn rev. 13369) starts on 12Dec2017 at  3:17:28 

     This program is part of the open-source Quantum ESPRESSO suite
     for quantum simulation of materials; please cite
         "P. Giannozzi et al., J. Phys.:Condens. Matter 21 395502 (2009);
          URL http://www.quantum-espresso.org", 
     in publications or presentations arising from this work. More details at
     http://www.quantum-espresso.org/quote

     Parallel version (MPI), running on     8 processors
     R & G space division:  proc/nbgrp/npool/nimage =       8
     Waiting for input...
     Reading input from standard input

     Current dimensions of program PWSCF are:
     Max number of different atomic species (ntypx) = 10
     Max number of k-points (npk) =  40000
     Max angular momentum in pseudopotentials (lmaxx) =  3
               file C.pbe-n-kjpaw_psl.0.1.UPF: wavefunction(s)  2P renormalized
               file N.pbe-n-kjpaw_psl.0.1.UPF: wavefunction(s)  2P renormalized
               file H.pbe-kjpaw_psl.0.1.UPF: wavefunction(s)  1S renormalized
               file O.pbe-n-kjpaw_psl.0.1.UPF: wavefunction(s)  2P renormalized

     -------------------------------------
     Parameters for Dispersion Correction:
     -------------------------------------
       atom      VdW radius       C_6     

        C          2.744         60.710
        N          2.640         42.670
        H          1.892          4.857
        O          2.536         24.284

     Subspace diagonalization in iterative solution of the eigenvalue problem:
     a serial algorithm will be used

 
     Parallelization info
     --------------------
     sticks:   dense  smooth     PW     G-vecs:    dense   smooth      PW
     Min         903     903    238                81132    81132   11024
     Max         904     904    239                81134    81134   11027
     Sum        7225    7225   1905               649063   649063   88201
 


     bravais-lattice index     =            0
     lattice parameter (alat)  =      13.3254  a.u.
     unit-cell volume          =    4804.1802 (a.u.)^3
     number of atoms/cell      =           76
     number of atomic types    =            4
     number of electrons       =       256.00
     number of Kohn-Sham states=          153
     kinetic-energy cutoff     =     100.0000  Ry
     charge density cutoff     =     400.0000  Ry
     convergence threshold     =      1.0E-08
     mixing beta               =       0.5000
     number of iterations used =            8  plain     mixing
     Exchange-correlation      =  SLA  PW   PBX  PBC ( 1  4  3  4 0 0)

     celldm(1)=  13.325404  celldm(2)=   0.000000  celldm(3)=   0.000000
     celldm(4)=   0.000000  celldm(5)=   0.000000  celldm(6)=   0.000000

     crystal axes: (cart. coord. in units of alat)
               a(1) = (   1.000000   0.000000   0.000000 )  
               a(2) = (   0.000000   1.276764   0.000000 )  
               a(3) = (  -0.102559   0.000000   1.590258 )  

     reciprocal axes: (cart. coord. in units 2 pi/alat)
               b(1) = (  1.000000  0.000000  0.064492 )  
               b(2) = (  0.000000  0.783230  0.000000 )  
               b(3) = (  0.000000  0.000000  0.628829 )  


     PseudoPot. # 1 for  C read from file:
     /scratch/ahofstet/pseudo/C.pbe-n-kjpaw_psl.0.1.UPF
     MD5 check sum: 430fe95172b1e11ef3f8ed03bac87931
     Pseudo is Projector augmented-wave + core cor, Zval =  4.0
     Generated using "atomic" code by A. Dal Corso  v.5.0.99 svn rev. 10869
     Shape of augmentation charge: BESSEL
     Using radial grid of 1073 points,  4 beta functions with: 
                l(1) =   0
                l(2) =   0
                l(3) =   1
                l(4) =   1
     Q(r) pseudized with 0 coefficients 


     PseudoPot. # 2 for  N read from file:
     /scratch/ahofstet/pseudo/N.pbe-n-kjpaw_psl.0.1.UPF
     MD5 check sum: f73187c8b701007e77325f868c9291d7
     Pseudo is Projector augmented-wave + core cor, Zval =  5.0
     Generated using "atomic" code by A. Dal Corso  v.5.0.99 svn rev. 10869
     Shape of augmentation charge: PSQ
     Using radial grid of 1085 points,  4 beta functions with: 
                l(1) =   0
                l(2) =   0
                l(3) =   1
                l(4) =   1
     Q(r) pseudized with 0 coefficients 


     PseudoPot. # 3 for  H read from file:
     /scratch/ahofstet/pseudo/H.pbe-kjpaw_psl.0.1.UPF
     MD5 check sum: 94e484f906d9e9773b2f6e52662335b2
     Pseudo is Projector augmented-wave, Zval =  1.0
     Generated using "atomic" code by A. Dal Corso  v.5.0.99 svn rev. 10869
     Shape of augmentation charge: PSQ
     Using radial grid of  929 points,  2 beta functions with: 
                l(1) =   0
                l(2) =   0
     Q(r) pseudized with 0 coefficients 


     PseudoPot. # 4 for  O read from file:
     /scratch/ahofstet/pseudo/O.pbe-n-kjpaw_psl.0.1.UPF
     MD5 check sum: 3f94a2996a3169367d6eb21d9b593f20
     Pseudo is Projector augmented-wave + core cor, Zval =  6.0
     Generated using "atomic" code by A. Dal Corso  v.5.0.99 svn rev. 10869
     Shape of augmentation charge: BESSEL
     Using radial grid of 1095 points,  4 beta functions with: 
                l(1) =   0
                l(2) =   0
                l(3) =   1
                l(4) =   1
     Q(r) pseudized with 0 coefficients 


     atomic species   valence    mass     pseudopotential
        C              4.00    12.01070      C( 1.00)
        N              5.00    14.00670      N( 1.00)
        H              1.00     1.00794      H( 1.00)
        O              6.00    15.99940      O( 1.00)

      2 Sym. Ops., with inversion, found
          (note:  2 additional sym.ops. were found but ignored
           their fractional translations are incommensurate with FFT grid)


   Cartesian axes

     site n.     atom                  positions (alat units)
         1           N   tau(   1) = (   0.2431093   0.0941115   0.8882897  )
         2           N   tau(   2) = (   0.1030527   0.7324934   1.4970973  )
         3           N   tau(   3) = (   0.6543320   1.1826523   0.7019683  )
         4           N   tau(   4) = (   0.7943886   0.5442704   0.0931607  )
         5           C   tau(   5) = (   0.3128593   0.2510004   0.9583244  )
         6           C   tau(   6) = (   0.0333027   0.8893823   1.4270626  )
         7           C   tau(   7) = (   0.5845820   1.0257635   0.6319336  )
         8           C   tau(   8) = (   0.8641386   0.3873816   0.1631954  )
         9           O   tau(   9) = (   0.3455540   0.2713698   1.1427143  )
        10           O   tau(  10) = (   0.0006080   0.9097517   1.2426727  )
        11           O   tau(  11) = (   0.5518874   1.0053940   0.4475437  )
        12           O   tau(  12) = (   0.8968333   0.3670121   0.3475853  )
        13           C   tau(  13) = (   0.3093571   0.1049017   1.2599307  )
        14           C   tau(  14) = (   0.0368049   0.7432836   1.1254563  )
        15           C   tau(  15) = (   0.5880842   1.1718621   0.3303273  )
        16           C   tau(  16) = (   0.8606364   0.5334802   0.4648017  )
        17           N   tau(  17) = (   0.3611901   0.4050977   0.8535972  )
        18           N   tau(  18) = (  -0.0150281   1.0434796   1.5317898  )
        19           N   tau(  19) = (   0.5362513   0.8716661   0.7366608  )
        20           N   tau(  20) = (   0.9124694   0.2332842   0.0584682  )
        21           C   tau(  21) = (   0.3333522   0.4082433   0.6581743  )
        22           C   tau(  22) = (   0.1153685   1.0466252   0.1369547  )
        23           C   tau(  23) = (   0.5640892   0.8685205   0.9320836  )
        24           C   tau(  24) = (   0.7820728   0.2301386   1.4533033  )
        25           O   tau(  25) = (   0.3758260   0.5568981   0.5670083  )
        26           O   tau(  26) = (   0.0728947   1.1952800   0.2281207  )
        27           O   tau(  27) = (   0.5216154   0.7198657   1.0232497  )
        28           O   tau(  28) = (   0.8245466   0.0814838   1.3621372  )
        29           C   tau(  29) = (   0.2586628   0.2399340   0.5783228  )
        30           C   tau(  30) = (   0.1900579   0.8783159   0.2168062  )
        31           C   tau(  31) = (   0.6387785   1.0368298   1.0119352  )
        32           C   tau(  32) = (   0.7073835   0.3984479   1.3734518  )
        33           C   tau(  33) = (   0.2173569   0.0895086   0.6975311  )
        34           C   tau(  34) = (   0.2313638   0.7278905   0.0975979  )
        35           C   tau(  35) = (   0.6800845   1.1872552   0.8927269  )
        36           C   tau(  36) = (   0.6660775   0.5488733   1.4926601  )
        37           N   tau(  37) = (   0.1446152   1.1992754   0.6232451  )
        38           N   tau(  38) = (   0.3041055   0.5608935   0.1718839  )
        39           N   tau(  39) = (   0.7528262   0.0774885   0.9670129  )
        40           N   tau(  40) = (   0.5933359   0.7158704   1.4183741  )
        41           C   tau(  41) = (   0.0913814   1.0461050   0.7302821  )
        42           C   tau(  42) = (   0.3573393   0.4077231   0.0648469  )
        43           C   tau(  43) = (   0.8060600   0.2306588   0.8599759  )
        44           C   tau(  44) = (   0.5401020   0.8690407   1.5254111  )
        45           O   tau(  45) = (   0.0237449   0.9011415   0.6614425  )
        46           O   tau(  46) = (   0.4249757   0.2627596   0.1336865  )
        47           O   tau(  47) = (   0.8736964   0.3756223   0.9288155  )
        48           O   tau(  48) = (   0.4724656   1.0140042   1.4565715  )
        49           H   tau(  49) = (   0.3512550   0.1457337   1.4036085  )
        50           H   tau(  50) = (  -0.0050929   0.7841156   0.9817785  )
        51           H   tau(  51) = (   0.5461864   1.1310301   0.1866495  )
        52           H   tau(  52) = (   0.9025343   0.4926482   0.6084795  )
        53           H   tau(  53) = (   0.3950617   1.2620618   1.2106314  )
        54           H   tau(  54) = (  -0.0488997   0.6236799   1.1747556  )
        55           H   tau(  55) = (   0.5023797   0.0147020   0.3796266  )
        56           H   tau(  56) = (   0.9463410   0.6530839   0.4155024  )
        57           H   tau(  57) = (   0.1585702   0.0683497   1.2529536  )
        58           H   tau(  58) = (   0.1875918   0.7067316   1.1324334  )
        59           H   tau(  59) = (   0.7388711   1.2084141   0.3373044  )
        60           H   tau(  60) = (   0.7098495   0.5700322   0.4578246  )
        61           H   tau(  61) = (   0.4211502   0.5248975   0.9194070  )
        62           H   tau(  62) = (  -0.0749882   1.1632794   1.4659799  )
        63           H   tau(  63) = (   0.4762911   0.7518663   0.6708510  )
        64           H   tau(  64) = (   0.9724296   0.1134844   0.1242780  )
        65           H   tau(  65) = (   0.2380886   0.2306344   0.4260715  )
        66           H   tau(  66) = (   0.2106321   0.8690163   0.3690575  )
        67           H   tau(  67) = (   0.6593527   1.0461294   1.1641865  )
        68           H   tau(  68) = (   0.6868093   0.4077475   1.2212005  )
        69           H   tau(  69) = (   0.1187694   1.1935150   0.4774350  )
        70           H   tau(  70) = (   0.3299513   0.5551331   0.3176940  )
        71           H   tau(  71) = (   0.7786720   0.0832488   1.1128229  )
        72           H   tau(  72) = (   0.5674900   0.7216307   1.2725640  )
        73           H   tau(  73) = (   0.1158486   1.0657201   0.8840111  )
        74           H   tau(  74) = (   0.2303134   0.4273382   1.5013759  )
        75           H   tau(  75) = (   0.7815927   0.2110437   0.7062469  )
        76           H   tau(  76) = (   0.6671280   0.8494256   0.0888821  )

     number of k points=     8
                       cart. coord. in units 2pi/alat
        k(    1) = (   0.0000000   0.0000000   0.0000000), wk =   0.1666667
        k(    2) = (   0.0000000   0.0000000  -0.3144144), wk =   0.1666667
        k(    3) = (   0.0000000  -0.3916151   0.0000000), wk =   0.1666667
        k(    4) = (   0.0000000  -0.3916151  -0.3144144), wk =   0.1666667
        k(    5) = (   0.3333333   0.0000000   0.0214973), wk =   0.3333333
        k(    6) = (   0.3333333   0.0000000  -0.2929171), wk =   0.3333333
        k(    7) = (   0.3333333  -0.3916151   0.0214973), wk =   0.3333333
        k(    8) = (   0.3333333  -0.3916151  -0.2929171), wk =   0.3333333

     Dense  grid:   649063 G-vectors     FFT dimensions: (  90, 120, 135)

     Estimated max dynamical RAM per process >     531.84MB

     Estimated total allocated dynamical RAM >    4254.70MB

     Check: negative/imaginary core charge=   -0.000002    0.000000

     Initial potential from superposition of free atoms

     starting charge  255.99863, renormalised to  256.00000
     Starting wfc are  220 randomized atomic wfcs
     Checking if some PAW data can be deallocated... 

     total cpu time spent up to now is       32.0 secs

     per-process dynamical memory:   371.7 Mb

     Self-consistent Calculation

     iteration #  1     ecut=   100.00 Ry     beta=0.50
     Davidson diagonalization with overlap
     ethr =  1.00E-02,  avg # of iterations =  3.0

     total cpu time spent up to now is      115.5 secs

     total energy              =   -1313.22856468 Ry
     Harris-Foulkes estimate   =   -1317.28042270 Ry
     estimated scf accuracy    <       7.70283697 Ry

     iteration #  2     ecut=   100.00 Ry     beta=0.50
     Davidson diagonalization with overlap
     ethr =  3.01E-03,  avg # of iterations =  2.0

     total cpu time spent up to now is      160.8 secs

     total energy              =   -1314.12406040 Ry
     Harris-Foulkes estimate   =   -1314.62829691 Ry
     estimated scf accuracy    <       1.08437385 Ry

     iteration #  3     ecut=   100.00 Ry     beta=0.50
     Davidson diagonalization with overlap
     ethr =  4.24E-04,  avg # of iterations =  7.4

     total cpu time spent up to now is      251.9 secs

     total energy              =   -1314.60842578 Ry
     Harris-Foulkes estimate   =   -1314.84599857 Ry
     estimated scf accuracy    <       0.58462717 Ry

     iteration #  4     ecut=   100.00 Ry     beta=0.50
     Davidson diagonalization with overlap
     ethr =  2.28E-04,  avg # of iterations =  2.5

     total cpu time spent up to now is      295.1 secs

     total energy              =   -1314.65088455 Ry
     Harris-Foulkes estimate   =   -1314.69082668 Ry
     estimated scf accuracy    <       0.09232559 Ry

     iteration #  5     ecut=   100.00 Ry     beta=0.50
     Davidson diagonalization with overlap
     ethr =  3.61E-05,  avg # of iterations =  6.6

     total cpu time spent up to now is      382.1 secs

     total energy              =   -1314.69817931 Ry
     Harris-Foulkes estimate   =   -1314.71722280 Ry
     estimated scf accuracy    <       0.05577768 Ry

     iteration #  6     ecut=   100.00 Ry     beta=0.50
     Davidson diagonalization with overlap
     ethr =  2.18E-05,  avg # of iterations =  1.0

     total cpu time spent up to now is      422.3 secs

     total energy              =   -1314.69408791 Ry
     Harris-Foulkes estimate   =   -1314.70170185 Ry
     estimated scf accuracy    <       0.01657871 Ry

     iteration #  7     ecut=   100.00 Ry     beta=0.50
     Davidson diagonalization with overlap
     ethr =  6.48E-06,  avg # of iterations =  6.1

     total cpu time spent up to now is      501.1 secs

     total energy              =   -1314.70192294 Ry
     Harris-Foulkes estimate   =   -1314.70270853 Ry
     estimated scf accuracy    <       0.00265838 Ry

     iteration #  8     ecut=   100.00 Ry     beta=0.50
     Davidson diagonalization with overlap
     ethr =  1.04E-06,  avg # of iterations =  1.6

     total cpu time spent up to now is      541.8 secs

     total energy              =   -1314.70159459 Ry
     Harris-Foulkes estimate   =   -1314.70206748 Ry
     estimated scf accuracy    <       0.00105509 Ry

     iteration #  9     ecut=   100.00 Ry     beta=0.50
     Davidson diagonalization with overlap
     ethr =  4.12E-07,  avg # of iterations =  4.0

     total cpu time spent up to now is      607.6 secs

     total energy              =   -1314.70200713 Ry
     Harris-Foulkes estimate   =   -1314.70206420 Ry
     estimated scf accuracy    <       0.00018081 Ry

     iteration # 10     ecut=   100.00 Ry     beta=0.50
     Davidson diagonalization with overlap
     ethr =  7.06E-08,  avg # of iterations =  2.0

     total cpu time spent up to now is      649.5 secs

     total energy              =   -1314.70198663 Ry
     Harris-Foulkes estimate   =   -1314.70202101 Ry
     estimated scf accuracy    <       0.00006040 Ry

     iteration # 11     ecut=   100.00 Ry     beta=0.50
     Davidson diagonalization with overlap
     ethr =  2.36E-08,  avg # of iterations =  3.6

     total cpu time spent up to now is      723.1 secs

     total energy              =   -1314.70201659 Ry
     Harris-Foulkes estimate   =   -1314.70202509 Ry
     estimated scf accuracy    <       0.00002429 Ry

     iteration # 12     ecut=   100.00 Ry     beta=0.50
     Davidson diagonalization with overlap
     ethr =  9.49E-09,  avg # of iterations =  1.0

     total cpu time spent up to now is      763.0 secs

     total energy              =   -1314.70201433 Ry
     Harris-Foulkes estimate   =   -1314.70201789 Ry
     estimated scf accuracy    <       0.00000669 Ry

     iteration # 13     ecut=   100.00 Ry     beta=0.50
     Davidson diagonalization with overlap
     ethr =  2.61E-09,  avg # of iterations =  3.8

     total cpu time spent up to now is      837.9 secs

     total energy              =   -1314.70201835 Ry
     Harris-Foulkes estimate   =   -1314.70201888 Ry
     estimated scf accuracy    <       0.00000222 Ry

     iteration # 14     ecut=   100.00 Ry     beta=0.50
     Davidson diagonalization with overlap
     ethr =  8.66E-10,  avg # of iterations =  1.0

     total cpu time spent up to now is      877.7 secs

     total energy              =   -1314.70201801 Ry
     Harris-Foulkes estimate   =   -1314.70201841 Ry
     estimated scf accuracy    <       0.00000107 Ry

     iteration # 15     ecut=   100.00 Ry     beta=0.50
     Davidson diagonalization with overlap
     ethr =  4.16E-10,  avg # of iterations =  3.0

     total cpu time spent up to now is      932.6 secs

     total energy              =   -1314.70201823 Ry
     Harris-Foulkes estimate   =   -1314.70201825 Ry
     estimated scf accuracy    <       0.00000005 Ry

     iteration # 16     ecut=   100.00 Ry     beta=0.50
     Davidson diagonalization with overlap
     ethr =  1.84E-11,  avg # of iterations =  4.0

     total cpu time spent up to now is     1008.8 secs

     total energy              =   -1314.70201825 Ry
     Harris-Foulkes estimate   =   -1314.70201826 Ry
     estimated scf accuracy    <       0.00000003 Ry

     iteration # 17     ecut=   100.00 Ry     beta=0.50
     Davidson diagonalization with overlap
     ethr =  1.02E-11,  avg # of iterations =  2.0

     total cpu time spent up to now is     1050.4 secs

     End of self-consistent calculation

          k = 0.0000 0.0000 0.0000 ( 81111 PWs)   bands (ev):

   -20.8552 -20.8438 -20.8321 -20.8302 -19.3645 -19.3243 -19.2552 -19.2324
   -19.2079 -19.1780 -19.1542 -19.1305 -17.8183 -17.8012 -17.7618 -17.7504
   -16.8228 -16.7673 -16.7388 -16.6573 -15.4113 -15.3660 -15.3443 -15.2899
   -12.5511 -12.5132 -12.5044 -12.4485 -11.1157 -11.0439 -11.0260 -11.0077
   -10.0078  -9.9982  -9.8394  -9.8125  -9.2248  -9.1066  -9.0140  -8.9918
    -8.5063  -8.4693  -8.2585  -8.2402  -7.2423  -7.2024  -7.1336  -7.1320
    -6.8733  -6.7572  -6.7233  -6.7111  -6.1620  -6.1148  -6.0873  -6.0083
    -5.6593  -5.5923  -5.5471  -5.5403  -5.4197  -5.3504  -5.2613  -5.0573
    -5.0130  -4.8282  -4.8023  -4.7561  -4.2888  -4.2212  -4.1340  -3.9803
    -3.9224  -3.8467  -3.8327  -3.8193  -3.7791  -3.6057  -3.5760  -3.4753
    -3.4432  -3.4286  -3.4152  -3.3700  -3.3387  -3.3081  -3.2905  -3.2546
    -3.0277  -2.9738  -2.9193  -2.8609  -2.4754  -2.4674  -2.2604  -2.0391
    -1.8914  -1.8631  -1.7295  -1.6610  -1.6594  -1.5979  -1.5465  -1.5067
    -0.4945  -0.4758  -0.3585  -0.3004  -0.2326  -0.2167  -0.1003  -0.0560
    -0.0195   0.0786   0.2089   0.2598   0.2907   0.2957   0.3327   0.4149
     0.9189   0.9862   1.0172   1.0189   1.1070   1.2032   1.2479   1.4202
     4.5448   4.6647   5.1131   5.1681   5.6649   5.6715   5.8623   5.9826
     6.4343   6.4532   6.4877   6.4930   7.3727   7.6860   7.8907   7.9031
     8.2146   8.4428   8.5855   8.7958   8.8037   8.8287   9.0363   9.2895
     9.2980

          k = 0.0000 0.0000-0.3144 ( 81158 PWs)   bands (ev):

   -20.8496 -20.8496 -20.8310 -20.8310 -19.3525 -19.3525 -19.2313 -19.2313
   -19.2025 -19.2025 -19.1366 -19.1366 -17.8141 -17.8141 -17.7523 -17.7523
   -16.8096 -16.8096 -16.6837 -16.6837 -15.3955 -15.3955 -15.3101 -15.3101
   -12.5325 -12.5325 -12.4781 -12.4781 -11.0696 -11.0696 -11.0181 -11.0181
   -10.0036 -10.0036  -9.8269  -9.8269  -9.2215  -9.2215  -8.9601  -8.9601
    -8.5362  -8.5362  -8.1834  -8.1834  -7.1994  -7.1994  -7.1511  -7.1511
    -6.8967  -6.8967  -6.6162  -6.6162  -6.1307  -6.1307  -6.0558  -6.0558
    -5.6310  -5.6310  -5.5267  -5.5267  -5.4297  -5.4297  -5.1469  -5.1469
    -5.0245  -5.0245  -4.7871  -4.7871  -4.1871  -4.1871  -4.0191  -4.0191
    -3.9517  -3.9517  -3.7348  -3.7348  -3.6509  -3.6509  -3.6334  -3.6334
    -3.4622  -3.4622  -3.4078  -3.4078  -3.2963  -3.2963  -3.1345  -3.1345
    -3.0100  -3.0100  -2.9662  -2.9662  -2.3859  -2.3859  -2.2208  -2.2208
    -1.8807  -1.8806  -1.7162  -1.7162  -1.6508  -1.6508  -1.5178  -1.5178
    -0.4657  -0.4657  -0.2883  -0.2883  -0.2459  -0.2459  -0.0978  -0.0978
     0.0240   0.0240   0.2439   0.2439   0.2946   0.2946   0.3484   0.3484
     0.9711   0.9711   1.0061   1.0061   1.1748   1.1748   1.3267   1.3267
     4.6066   4.6066   5.1412   5.1413   5.6578   5.6578   5.9304   5.9304
     6.4436   6.4436   6.4894   6.4894   7.4252   7.4252   7.9806   7.9806
     8.4158   8.4158   8.6461   8.6461   8.8963   8.8963   9.0992   9.0993
     9.2100

          k = 0.0000-0.3916 0.0000 ( 81098 PWs)   bands (ev):

   -20.8437 -20.8437 -20.8369 -20.8369 -19.3337 -19.3337 -19.2539 -19.2539
   -19.2078 -19.2078 -19.1310 -19.1310 -17.8090 -17.8090 -17.7487 -17.7487
   -16.8018 -16.8018 -16.6995 -16.6995 -15.3787 -15.3787 -15.3236 -15.3236
   -12.5339 -12.5339 -12.4778 -12.4778 -11.0869 -11.0869 -11.0072 -11.0072
   -10.0419 -10.0419  -9.7827  -9.7827  -9.1520  -9.1520  -9.0382  -9.0382
    -8.3920  -8.3920  -8.3177  -8.3177  -7.2110  -7.2110  -7.1421  -7.1421
    -6.8560  -6.8560  -6.7172  -6.7172  -6.1065  -6.1065  -6.0376  -6.0376
    -5.5992  -5.5992  -5.5717  -5.5717  -5.4521  -5.4521  -5.1215  -5.1215
    -4.8563  -4.8563  -4.8364  -4.8364  -4.1860  -4.1860  -4.1202  -4.1202
    -3.8973  -3.8973  -3.8352  -3.8352  -3.7087  -3.7087  -3.5095  -3.5095
    -3.4477  -3.4477  -3.3542  -3.3542  -3.3183  -3.3183  -3.2347  -3.2347
    -3.0397  -3.0397  -2.8369  -2.8369  -2.5431  -2.5431  -2.1743  -2.1743
    -1.8865  -1.8864  -1.7049  -1.7049  -1.5879  -1.5879  -1.5446  -1.5446
    -0.3943  -0.3943  -0.3253  -0.3253  -0.2718  -0.2718  -0.0766  -0.0766
    -0.0028  -0.0028   0.2285   0.2285   0.3016   0.3016   0.3362   0.3362
     0.9507   0.9507   1.0181   1.0181   1.1958   1.1958   1.3828   1.3828
     4.6922   4.6922   4.9500   4.9500   5.6595   5.6595   5.8856   5.8856
     6.4165   6.4165   6.6388   6.6388   7.6009   7.6009   7.9721   7.9721
     8.2106   8.2106   8.6245   8.6245   9.0459   9.0459   9.0666   9.0666
     9.2422

          k = 0.0000-0.3916-0.3144 ( 81164 PWs)   bands (ev):

   -20.8413 -20.8412 -20.8393 -20.8393 -19.3342 -19.3342 -19.2669 -19.2669
   -19.1906 -19.1906 -19.1341 -19.1341 -17.8093 -17.8093 -17.7493 -17.7493
   -16.8017 -16.8017 -16.6997 -16.6997 -15.3784 -15.3784 -15.3236 -15.3235
   -12.5279 -12.5279 -12.4855 -12.4855 -11.0811 -11.0811 -11.0058 -11.0058
   -10.0434 -10.0434  -9.7793  -9.7793  -9.1618  -9.1618  -9.0587  -9.0587
    -8.3711  -8.3711  -8.3260  -8.3260  -7.2108  -7.2108  -7.1399  -7.1399
    -6.8191  -6.8191  -6.6930  -6.6930  -6.1075  -6.1075  -6.0726  -6.0726
    -5.6454  -5.6454  -5.4763  -5.4763  -5.4635  -5.4635  -5.1641  -5.1641
    -4.9178  -4.9178  -4.9073  -4.9073  -4.1031  -4.1031  -4.0388  -4.0388
    -3.9353  -3.9353  -3.8495  -3.8495  -3.6055  -3.6055  -3.5362  -3.5362
    -3.4723  -3.4723  -3.4275  -3.4275  -3.2709  -3.2709  -3.2413  -3.2413
    -2.9873  -2.9873  -2.9332  -2.9332  -2.4095  -2.4095  -2.2589  -2.2589
    -1.8775  -1.8775  -1.7267  -1.7267  -1.6164  -1.6164  -1.5253  -1.5253
    -0.3958  -0.3958  -0.3357  -0.3357  -0.2195  -0.2195  -0.1498  -0.1498
     0.0300   0.0300   0.2608   0.2608   0.2686   0.2686   0.3277   0.3277
     0.9485   0.9485   1.0274   1.0274   1.2419   1.2419   1.3437   1.3438
     4.7019   4.7019   4.9379   4.9379   5.6620   5.6620   5.8795   5.8795
     6.4214   6.4215   6.6357   6.6357   7.6766   7.6766   7.7172   7.7172
     8.4995   8.4995   8.6270   8.6270   8.9369   8.9369   9.1734   9.1734
     9.3057

          k = 0.3333 0.0000 0.0215 ( 81125 PWs)   bands (ev):

   -20.8513 -20.8455 -20.8318 -20.8310 -19.3540 -19.3314 -19.2539 -19.2200
   -19.2159 -19.2105 -19.1345 -19.1285 -17.8149 -17.8065 -17.7587 -17.7531
   -16.8276 -16.8111 -16.6890 -16.6595 -15.4012 -15.3800 -15.3276 -15.3018
   -12.5428 -12.5236 -12.4894 -12.4618 -11.0963 -11.0534 -11.0321 -11.0122
   -10.0249 -10.0204  -9.8127  -9.7986  -9.1986  -9.1396  -9.0067  -8.9959
    -8.4982  -8.4796  -8.2549  -8.2459  -7.2187  -7.1750  -7.1606  -7.1441
    -6.8687  -6.8201  -6.7050  -6.7016  -6.1544  -6.1144  -6.0670  -6.0175
    -5.6456  -5.6085  -5.4741  -5.4306  -5.4062  -5.3271  -5.1989  -5.0836
    -4.9810  -4.8778  -4.7854  -4.7651  -4.2543  -4.2217  -4.0955  -4.0453
    -3.9554  -3.9028  -3.8347  -3.7763  -3.7061  -3.6640  -3.6311  -3.5643
    -3.5538  -3.5397  -3.3765  -3.3705  -3.3104  -3.3032  -3.2415  -3.2159
    -3.1251  -3.0379  -2.8214  -2.8041  -2.5640  -2.4455  -2.3250  -2.0879
    -2.0035  -1.9488  -1.6844  -1.6497  -1.5903  -1.5499  -1.5160  -1.4773
    -0.4480  -0.4008  -0.3898  -0.2496  -0.2474  -0.2091  -0.1654  -0.1283
     0.0127   0.0702   0.2454   0.2638   0.2884   0.3306   0.3620   0.3949
     0.9111   0.9557   1.0087   1.0282   1.0989   1.1556   1.2740   1.3904
     4.6980   4.7709   4.9903   5.0027   5.7060   5.7811   5.8193   5.9521
     6.3238   6.3340   6.6171   6.6354   7.7413   7.8635   7.9456   8.0950
     8.4592   8.5529   8.6494   8.6651   8.8796   8.9886   9.1615   9.2791
     9.2823

          k = 0.3333 0.0000-0.2929 ( 81102 PWs)   bands (ev):

   -20.8488 -20.8476 -20.8339 -20.8291 -19.3559 -19.3298 -19.2760 -19.2286
   -19.2041 -19.1783 -19.1561 -19.1186 -17.8220 -17.8055 -17.7571 -17.7497
   -16.8502 -16.7675 -16.7335 -16.6364 -15.3985 -15.3811 -15.3298 -15.3012
   -12.5575 -12.5094 -12.5024 -12.4489 -11.0959 -11.0417 -11.0386 -11.0031
   -10.0270 -10.0197  -9.8183  -9.7972  -9.2195  -9.2147  -8.9714  -8.9533
    -8.5778  -8.4999  -8.1956  -8.1764  -7.2094  -7.1827  -7.1453  -7.1383
    -6.9808  -6.8182  -6.6777  -6.5863  -6.1923  -6.0904  -6.0902  -5.9833
    -5.6440  -5.5775  -5.4854  -5.4284  -5.4149  -5.3137  -5.2369  -5.1287
    -5.0871  -4.8885  -4.8343  -4.7426  -4.3599  -4.1515  -4.0650  -4.0300
    -4.0256  -3.8920  -3.7989  -3.7603  -3.7116  -3.6549  -3.5963  -3.5463
    -3.5324  -3.4522  -3.3962  -3.3638  -3.3147  -3.2407  -3.1652  -3.1325
    -3.0974  -2.9883  -2.9833  -2.9191  -2.5624  -2.4517  -2.2963  -2.1300
    -2.0062  -1.9244  -1.7391  -1.6448  -1.5780  -1.5553  -1.5374  -1.4819
    -0.4260  -0.4151  -0.3506  -0.3359  -0.2741  -0.1588  -0.1529  -0.0730
    -0.0281   0.0868   0.1895   0.2360   0.3122   0.3452   0.3831   0.3889
     0.9219   0.9701   0.9917   1.0119   1.1179   1.1350   1.3409   1.3589
     4.7200   4.7472   4.9908   4.9991   5.6732   5.7887   5.8223   5.9595
     6.3245   6.3448   6.5947   6.6595   7.6761   7.7587   7.9593   8.1092
     8.4784   8.5824   8.7628   8.8115   8.9164   9.0209   9.1261   9.1714
     9.2051

          k = 0.3333-0.3916 0.0215 ( 81174 PWs)   bands (ev):

   -20.8423 -20.8423 -20.8374 -20.8374 -19.3375 -19.3375 -19.2413 -19.2413
   -19.2103 -19.2103 -19.1383 -19.1383 -17.8215 -17.8215 -17.7380 -17.7380
   -16.7841 -16.7841 -16.7171 -16.7171 -15.3866 -15.3866 -15.3146 -15.3146
   -12.5284 -12.5284 -12.4847 -12.4847 -11.0846 -11.0846 -11.0104 -11.0104
   -10.0241 -10.0241  -9.8009  -9.8009  -9.1293  -9.1293  -9.0614  -9.0614
    -8.3783  -8.3783  -8.3338  -8.3338  -7.2152  -7.2152  -7.1456  -7.1456
    -6.8333  -6.8333  -6.7335  -6.7335  -6.0978  -6.0978  -6.0562  -6.0562
    -5.5792  -5.5792  -5.4876  -5.4876  -5.4345  -5.4345  -5.1155  -5.1155
    -4.8596  -4.8596  -4.8111  -4.8111  -4.1961  -4.1961  -4.0895  -4.0895
    -3.9668  -3.9668  -3.8352  -3.8352  -3.6958  -3.6958  -3.5709  -3.5709
    -3.4915  -3.4915  -3.3716  -3.3716  -3.3290  -3.3290  -3.2210  -3.2210
    -2.9951  -2.9951  -2.8579  -2.8579  -2.6157  -2.6157  -2.2344  -2.2343
    -1.9050  -1.9050  -1.6576  -1.6576  -1.6045  -1.6045  -1.5047  -1.5047
    -0.4083  -0.4083  -0.2991  -0.2991  -0.2371  -0.2371  -0.1014  -0.1014
     0.0190   0.0190   0.2545   0.2545   0.2892   0.2892   0.3285   0.3285
     0.9579   0.9579   0.9961   0.9961   1.1873   1.1874   1.3754   1.3754
     4.6843   4.6843   4.9523   4.9523   5.7354   5.7354   5.8545   5.8545
     6.4414   6.4414   6.5908   6.5908   7.8420   7.8420   8.0750   8.0750
     8.4550   8.4550   8.7196   8.7196   8.9349   8.9349   9.1027   9.1027
     9.2887

          k = 0.3333-0.3916-0.2929 ( 81174 PWs)   bands (ev):

   -20.8422 -20.8422 -20.8375 -20.8375 -19.3375 -19.3375 -19.2575 -19.2575
   -19.1925 -19.1925 -19.1394 -19.1394 -17.8222 -17.8222 -17.7381 -17.7381
   -16.7843 -16.7843 -16.7171 -16.7171 -15.3865 -15.3865 -15.3142 -15.3142
   -12.5358 -12.5358 -12.4780 -12.4780 -11.0823 -11.0823 -11.0080 -11.0080
   -10.0191 -10.0191  -9.8014  -9.8014  -9.1566  -9.1566  -9.0648  -9.0648
    -8.3724  -8.3724  -8.3268  -8.3268  -7.2139  -7.2139  -7.1481  -7.1481
    -6.8065  -6.8065  -6.7009  -6.7009  -6.1125  -6.1125  -6.0532  -6.0532
    -5.5963  -5.5963  -5.5061  -5.5061  -5.3700  -5.3700  -5.1530  -5.1530
    -4.9472  -4.9472  -4.8695  -4.8695  -4.2074  -4.2074  -4.0273  -4.0273
    -3.9091  -3.9091  -3.8207  -3.8207  -3.6601  -3.6601  -3.5733  -3.5733
    -3.5450  -3.5450  -3.3629  -3.3629  -3.2183  -3.2183  -3.2074  -3.2074
    -3.0711  -3.0711  -2.8901  -2.8901  -2.5973  -2.5973  -2.2351  -2.2351
    -1.9120  -1.9120  -1.6718  -1.6718  -1.6230  -1.6230  -1.4913  -1.4913
    -0.4278  -0.4278  -0.2891  -0.2891  -0.2679  -0.2679  -0.0691  -0.0691
     0.0119   0.0119   0.2649   0.2649   0.2826   0.2826   0.3264   0.3264
     0.9404   0.9404   1.0104   1.0104   1.2101   1.2101   1.3710   1.3710
     4.6839   4.6839   4.9459   4.9459   5.7076   5.7076   5.8775   5.8775
     6.4416   6.4416   6.5967   6.5967   7.8400   7.8400   7.9397   7.9397
     8.5925   8.5925   8.8118   8.8118   8.9914   8.9914   9.1105   9.1105
     9.2840

     highest occupied, lowest unoccupied level (ev):     1.4202    4.5448

!    total energy              =   -1314.70201825 Ry
     Harris-Foulkes estimate   =   -1314.70201825 Ry
     estimated scf accuracy    <          3.1E-09 Ry

     total all-electron energy =     -4982.788653 Ry

     The total energy is the sum of the following terms:

     one-electron contribution =    -655.36068514 Ry
     hartree contribution      =     431.13458521 Ry
     xc contribution           =    -273.88130764 Ry
     ewald contribution        =    -443.10793575 Ry
     Dispersion Correction     =      -0.36637289 Ry
     one-center paw contrib.   =    -373.12030203 Ry

     convergence has been achieved in  17 iterations

     Forces acting on atoms (cartesian axes, Ry/au):

     atom    1 type  2   force =     0.00042581   -0.00291880   -0.00011304
     atom    2 type  2   force =    -0.00042581   -0.00291791    0.00011131
     atom    3 type  2   force =    -0.00042581    0.00291880    0.00011304
     atom    4 type  2   force =     0.00042581    0.00291791   -0.00011131
     atom    5 type  1   force =     0.00140820    0.00048162    0.00208591
     atom    6 type  1   force =    -0.00140876    0.00048314   -0.00205056
     atom    7 type  1   force =    -0.00140820   -0.00048162   -0.00208591
     atom    8 type  1   force =     0.00140876   -0.00048314    0.00205056
     atom    9 type  4   force =    -0.00031375   -0.00023512    0.00022558
     atom   10 type  4   force =     0.00031459   -0.00023427   -0.00022256
     atom   11 type  4   force =     0.00031375    0.00023512   -0.00022558
     atom   12 type  4   force =    -0.00031459    0.00023427    0.00022256
     atom   13 type  1   force =     0.00219026    0.00124181   -0.00004604
     atom   14 type  1   force =    -0.00218983    0.00124176    0.00002534
     atom   15 type  1   force =    -0.00219026   -0.00124181    0.00004604
     atom   16 type  1   force =     0.00218983   -0.00124176   -0.00002534
     atom   17 type  2   force =    -0.00052476    0.00178129   -0.00081139
     atom   18 type  2   force =     0.00052336    0.00178528    0.00080743
     atom   19 type  2   force =     0.00052476   -0.00178129    0.00081139
     atom   20 type  2   force =    -0.00052336   -0.00178528   -0.00080743
     atom   21 type  1   force =    -0.00168376   -0.00063827    0.00065946
     atom   22 type  1   force =     0.00168405   -0.00063580   -0.00069618
     atom   23 type  1   force =     0.00168376    0.00063827   -0.00065946
     atom   24 type  1   force =    -0.00168405    0.00063580    0.00069618
     atom   25 type  4   force =     0.00160634    0.00096088   -0.00199825
     atom   26 type  4   force =    -0.00160627    0.00096210    0.00199633
     atom   27 type  4   force =    -0.00160634   -0.00096088    0.00199825
     atom   28 type  4   force =     0.00160627   -0.00096210   -0.00199633
     atom   29 type  1   force =     0.00046345   -0.00115559   -0.00023605
     atom   30 type  1   force =    -0.00046451   -0.00115130    0.00025544
     atom   31 type  1   force =    -0.00046345    0.00115559    0.00023605
     atom   32 type  1   force =     0.00046451    0.00115130   -0.00025544
     atom   33 type  1   force =     0.00033644    0.00082437   -0.00032687
     atom   34 type  1   force =    -0.00033637    0.00082474    0.00033239
     atom   35 type  1   force =    -0.00033644   -0.00082437    0.00032687
     atom   36 type  1   force =     0.00033637   -0.00082474   -0.00033239
     atom   37 type  2   force =    -0.00176575    0.00160651   -0.00171446
     atom   38 type  2   force =     0.00176631    0.00160462    0.00171730
     atom   39 type  2   force =     0.00176575   -0.00160651    0.00171446
     atom   40 type  2   force =    -0.00176631   -0.00160462   -0.00171730
     atom   41 type  1   force =     0.00159013   -0.00070238    0.00121605
     atom   42 type  1   force =    -0.00158960   -0.00070533   -0.00122793
     atom   43 type  1   force =    -0.00159013    0.00070238   -0.00121605
     atom   44 type  1   force =     0.00158960    0.00070533    0.00122793
     atom   45 type  4   force =    -0.00108844   -0.00029263    0.00014852
     atom   46 type  4   force =     0.00108920   -0.00029640   -0.00015024
     atom   47 type  4   force =     0.00108844    0.00029263   -0.00014852
     atom   48 type  4   force =    -0.00108920    0.00029640    0.00015024
     atom   49 type  3   force =    -0.00003887   -0.00024367   -0.00024872
     atom   50 type  3   force =     0.00003861   -0.00024282    0.00024769
     atom   51 type  3   force =     0.00003887    0.00024367    0.00024872
     atom   52 type  3   force =    -0.00003861    0.00024282   -0.00024769
     atom   53 type  3   force =     0.00004664   -0.00022411   -0.00027305
     atom   54 type  3   force =    -0.00004656   -0.00022375    0.00027309
     atom   55 type  3   force =    -0.00004664    0.00022411    0.00027305
     atom   56 type  3   force =     0.00004656    0.00022375   -0.00027309
     atom   57 type  3   force =    -0.00164723    0.00035514    0.00097639
     atom   58 type  3   force =     0.00164698    0.00035557   -0.00097689
     atom   59 type  3   force =     0.00164723   -0.00035514   -0.00097639
     atom   60 type  3   force =    -0.00164698   -0.00035557    0.00097689
     atom   61 type  3   force =    -0.00036970    0.00059663   -0.00062078
     atom   62 type  3   force =     0.00036989    0.00059637    0.00062095
     atom   63 type  3   force =     0.00036970   -0.00059663    0.00062078
     atom   64 type  3   force =    -0.00036989   -0.00059637   -0.00062095
     atom   65 type  3   force =     0.00026615    0.00017456   -0.00027488
     atom   66 type  3   force =    -0.00026599    0.00017511    0.00027622
     atom   67 type  3   force =    -0.00026615   -0.00017456    0.00027488
     atom   68 type  3   force =     0.00026599   -0.00017511   -0.00027622
     atom   69 type  3   force =     0.00028253    0.00022062    0.00112631
     atom   70 type  3   force =    -0.00028239    0.00022036   -0.00112623
     atom   71 type  3   force =    -0.00028253   -0.00022062   -0.00112631
     atom   72 type  3   force =     0.00028239   -0.00022036    0.00112623
     atom   73 type  3   force =    -0.00055509   -0.00044769   -0.00090254
     atom   74 type  3   force =     0.00055496   -0.00044804    0.00090128
     atom   75 type  3   force =     0.00055509    0.00044769    0.00090254
     atom   76 type  3   force =    -0.00055496    0.00044804   -0.00090128

     Total force =     0.015726     Total SCF correction =     0.000092


     Computing stress (Cartesian axis) and pressure

          total   stress  (Ry/bohr**3)                   (kbar)     P=   -1.04
  -0.00001717  -0.00000000   0.00000339         -2.53     -0.00      0.50
  -0.00000000   0.00000591  -0.00000000         -0.00      0.87     -0.00
   0.00000339  -0.00000000  -0.00000996          0.50     -0.00     -1.47


     Writing output data file scf.save
 
     init_run     :     30.62s CPU     31.34s WALL (       1 calls)
     electrons    :    989.31s CPU   1018.48s WALL (       1 calls)
     forces       :     15.10s CPU     15.21s WALL (       1 calls)
     stress       :     57.26s CPU     57.45s WALL (       1 calls)

     Called by init_run:
     wfcinit      :     22.58s CPU     23.20s WALL (       1 calls)
     potinit      :      2.89s CPU      2.91s WALL (       1 calls)

     Called by electrons:
     c_bands      :    885.23s CPU    910.06s WALL (      17 calls)
     sum_band     :     92.66s CPU     96.14s WALL (      17 calls)
     v_of_rho     :      1.68s CPU      1.84s WALL (      18 calls)
     newd         :      3.68s CPU      4.38s WALL (      18 calls)
     PAW_pot      :      5.58s CPU      5.58s WALL (      18 calls)
     mix_rho      :      0.39s CPU      0.41s WALL (      17 calls)

     Called by c_bands:
     init_us_2    :      5.33s CPU      5.35s WALL (     296 calls)
     cegterg      :    864.73s CPU    889.49s WALL (     136 calls)

     Called by sum_band:
     sum_band:bec :      0.07s CPU      0.07s WALL (     136 calls)
     addusdens    :      3.64s CPU      4.32s WALL (      17 calls)

     Called by *egterg:
     h_psi        :    485.46s CPU    502.08s WALL (     581 calls)
     s_psi        :     96.99s CPU     97.00s WALL (     581 calls)
     g_psi        :      2.54s CPU      2.55s WALL (     437 calls)
     cdiaghg      :     52.21s CPU     52.20s WALL (     573 calls)

     Called by h_psi:
     h_psi:pot    :    481.62s CPU    498.18s WALL (     581 calls)
     h_psi:calbec :     96.46s CPU     96.66s WALL (     581 calls)
     vloc_psi     :    287.79s CPU    304.14s WALL (     581 calls)
     add_vuspsi   :     97.36s CPU     97.38s WALL (     581 calls)

     General routines
     calbec       :    141.44s CPU    141.73s WALL (     757 calls)
     fft          :      1.00s CPU      1.26s WALL (     258 calls)
     fftw         :    306.09s CPU    323.71s WALL (  140456 calls)
 
     Parallel routines
     fft_scatter  :     66.85s CPU     78.25s WALL (  140714 calls)
 
     PWSCF        : 18m19.53s CPU    19m26.10s WALL

 
   This run was terminated on:   3:36:54  12Dec2017            

=------------------------------------------------------------------------------=
   JOB DONE.
=------------------------------------------------------------------------------=
