
     Program PWSCF v.6.1 (svn rev. 13369) starts on  4Nov2017 at  5: 5: 5 

     This program is part of the open-source Quantum ESPRESSO suite
     for quantum simulation of materials; please cite
         "P. Giannozzi et al., J. Phys.:Condens. Matter 21 395502 (2009);
          URL http://www.quantum-espresso.org", 
     in publications or presentations arising from this work. More details at
     http://www.quantum-espresso.org/quote

     Parallel version (MPI), running on     8 processors
     R & G space division:  proc/nbgrp/npool/nimage =       8
     Waiting for input...
     Reading input from standard input

     Current dimensions of program PWSCF are:
     Max number of different atomic species (ntypx) = 10
     Max number of k-points (npk) =  40000
     Max angular momentum in pseudopotentials (lmaxx) =  3
               file C.pbe-n-kjpaw_psl.0.1.UPF: wavefunction(s)  2P renormalized
               file N.pbe-n-kjpaw_psl.0.1.UPF: wavefunction(s)  2P renormalized
               file H.pbe-kjpaw_psl.0.1.UPF: wavefunction(s)  1S renormalized
               file O.pbe-n-kjpaw_psl.0.1.UPF: wavefunction(s)  2P renormalized

     -------------------------------------
     Parameters for Dispersion Correction:
     -------------------------------------
       atom      VdW radius       C_6     

        C          2.744         60.710
        N          2.640         42.670
        H          1.892          4.857
        O          2.536         24.284

     Subspace diagonalization in iterative solution of the eigenvalue problem:
     a serial algorithm will be used

 
     Parallelization info
     --------------------
     sticks:   dense  smooth     PW     G-vecs:    dense   smooth      PW
     Min         969     969    256                92205    92205   12591
     Max         970     970    258                92210    92210   12593
     Sum        7753    7753   2051               737647   737647  100731
 


     bravais-lattice index     =            0
     lattice parameter (alat)  =      22.2345  a.u.
     unit-cell volume          =    5461.1722 (a.u.)^3
     number of atoms/cell      =           80
     number of atomic types    =            4
     number of electrons       =       280.00
     number of Kohn-Sham states=          168
     kinetic-energy cutoff     =     100.0000  Ry
     charge density cutoff     =     400.0000  Ry
     convergence threshold     =      1.0E-08
     mixing beta               =       0.5000
     number of iterations used =            8  plain     mixing
     Exchange-correlation      =  SLA  PW   PBX  PBC ( 1  4  3  4 0 0)

     celldm(1)=  22.234518  celldm(2)=   0.000000  celldm(3)=   0.000000
     celldm(4)=   0.000000  celldm(5)=   0.000000  celldm(6)=   0.000000

     crystal axes: (cart. coord. in units of alat)
               a(1) = (   1.000000   0.000000   0.000000 )  
               a(2) = (   0.000000   0.493770   0.000000 )  
               a(3) = (  -0.310312   0.000000   1.006185 )  

     reciprocal axes: (cart. coord. in units 2 pi/alat)
               b(1) = (  1.000000  0.000000  0.308405 )  
               b(2) = (  0.000000  2.025234  0.000000 )  
               b(3) = (  0.000000  0.000000  0.993853 )  


     PseudoPot. # 1 for  C read from file:
     /scratch/ahofstet/pseudo/C.pbe-n-kjpaw_psl.0.1.UPF
     MD5 check sum: 430fe95172b1e11ef3f8ed03bac87931
     Pseudo is Projector augmented-wave + core cor, Zval =  4.0
     Generated using "atomic" code by A. Dal Corso  v.5.0.99 svn rev. 10869
     Shape of augmentation charge: BESSEL
     Using radial grid of 1073 points,  4 beta functions with: 
                l(1) =   0
                l(2) =   0
                l(3) =   1
                l(4) =   1
     Q(r) pseudized with 0 coefficients 


     PseudoPot. # 2 for  N read from file:
     /scratch/ahofstet/pseudo/N.pbe-n-kjpaw_psl.0.1.UPF
     MD5 check sum: f73187c8b701007e77325f868c9291d7
     Pseudo is Projector augmented-wave + core cor, Zval =  5.0
     Generated using "atomic" code by A. Dal Corso  v.5.0.99 svn rev. 10869
     Shape of augmentation charge: PSQ
     Using radial grid of 1085 points,  4 beta functions with: 
                l(1) =   0
                l(2) =   0
                l(3) =   1
                l(4) =   1
     Q(r) pseudized with 0 coefficients 


     PseudoPot. # 3 for  H read from file:
     /scratch/ahofstet/pseudo/H.pbe-kjpaw_psl.0.1.UPF
     MD5 check sum: 94e484f906d9e9773b2f6e52662335b2
     Pseudo is Projector augmented-wave, Zval =  1.0
     Generated using "atomic" code by A. Dal Corso  v.5.0.99 svn rev. 10869
     Shape of augmentation charge: PSQ
     Using radial grid of  929 points,  2 beta functions with: 
                l(1) =   0
                l(2) =   0
     Q(r) pseudized with 0 coefficients 


     PseudoPot. # 4 for  O read from file:
     /scratch/ahofstet/pseudo/O.pbe-n-kjpaw_psl.0.1.UPF
     MD5 check sum: 3f94a2996a3169367d6eb21d9b593f20
     Pseudo is Projector augmented-wave + core cor, Zval =  6.0
     Generated using "atomic" code by A. Dal Corso  v.5.0.99 svn rev. 10869
     Shape of augmentation charge: BESSEL
     Using radial grid of 1095 points,  4 beta functions with: 
                l(1) =   0
                l(2) =   0
                l(3) =   1
                l(4) =   1
     Q(r) pseudized with 0 coefficients 


     atomic species   valence    mass     pseudopotential
        C              4.00    12.01070      C( 1.00)
        N              5.00    14.00670      N( 1.00)
        H              1.00     1.00794      H( 1.00)
        O              6.00    15.99940      O( 1.00)

      4 Sym. Ops., with inversion, found ( 2 have fractional translation)



   Cartesian axes

     site n.     atom                  positions (alat units)
         1           N   tau(   1) = (   0.2009855   0.0927555   0.1480560  )
         2           N   tau(   2) = (   0.1438585   0.3396406   0.3550366  )
         3           N   tau(   3) = (   0.4887025   0.4010147   0.8581291  )
         4           N   tau(   4) = (   0.5458295   0.1541296   0.6511485  )
         5           N   tau(   5) = (   0.2465029   0.0331229   0.0644490  )
         6           N   tau(   6) = (   0.0983411   0.2800080   0.4386435  )
         7           N   tau(   7) = (   0.4431851   0.4606473   0.9417361  )
         8           N   tau(   8) = (   0.5913469   0.2137622   0.5675415  )
         9           N   tau(   9) = (   0.1018767   0.3839295   0.0404173  )
        10           N   tau(  10) = (   0.2429673   0.1370444   0.4626752  )
        11           N   tau(  11) = (   0.5878113   0.1098407   0.9657678  )
        12           N   tau(  12) = (   0.4467207   0.3567258   0.5435098  )
        13           N   tau(  13) = (   0.0350165   0.0881697   0.2624744  )
        14           N   tau(  14) = (   0.3098275   0.3350548   0.2406181  )
        15           N   tau(  15) = (   0.6546715   0.4056005   0.7437107  )
        16           N   tau(  16) = (   0.3798605   0.1587154   0.7655669  )
        17           N   tau(  17) = (  -0.0534208   0.0144682   0.2620989  )
        18           N   tau(  18) = (   0.3982647   0.2613533   0.2409936  )
        19           N   tau(  19) = (   0.7431087   0.4793020   0.7440862  )
        20           N   tau(  20) = (   0.2914232   0.2324169   0.7651914  )
        21           N   tau(  21) = (  -0.0353410   0.4003808   0.9346514  )
        22           N   tau(  22) = (   0.0698730   0.1534957   0.5746262  )
        23           N   tau(  23) = (   0.7250290   0.0933894   0.0715337  )
        24           N   tau(  24) = (   0.6198150   0.3402745   0.4315589  )
        25           N   tau(  25) = (   0.0510212   0.4743190   0.9421778  )
        26           N   tau(  26) = (  -0.0164893   0.2274339   0.5670998  )
        27           N   tau(  27) = (   0.6386667   0.0194512   0.0640073  )
        28           N   tau(  28) = (   0.7061772   0.2663363   0.4390853  )
        29           N   tau(  29) = (   0.3477436   0.0576802   0.0168124  )
        30           N   tau(  30) = (  -0.0028996   0.3045652   0.4862801  )
        31           N   tau(  31) = (   0.3419444   0.4360900   0.9893727  )
        32           N   tau(  32) = (   0.6925876   0.1892049   0.5199049  )
        33           C   tau(  33) = (   0.2007598   0.4303093   0.0103832  )
        34           C   tau(  34) = (   0.1440842   0.1834242   0.4927094  )
        35           C   tau(  35) = (   0.4889282   0.0634609   0.9958019  )
        36           C   tau(  36) = (   0.5456038   0.3103460   0.5134757  )
        37           C   tau(  37) = (   0.0535819   0.4389530   0.1269252  )
        38           C   tau(  38) = (   0.2912621   0.1920679   0.3761673  )
        39           C   tau(  39) = (   0.6361061   0.0548172   0.8792599  )
        40           C   tau(  40) = (   0.3984258   0.3017023   0.6300177  )
        41           C   tau(  41) = (   0.1023531   0.0467547   0.1795879  )
        42           C   tau(  42) = (   0.2424909   0.2936398   0.3235046  )
        43           C   tau(  43) = (   0.5873349   0.4470155   0.8265972  )
        44           C   tau(  44) = (   0.4471971   0.2001304   0.6826804  )
        45           C   tau(  45) = (  -0.0491314   0.4214605   0.1866957  )
        46           C   tau(  46) = (   0.3939754   0.1745754   0.3163968  )
        47           C   tau(  47) = (   0.7388194   0.0723097   0.8194894  )
        48           C   tau(  48) = (   0.2957125   0.3191948   0.6897882  )
        49           C   tau(  49) = (   0.8610639   0.3333023   0.1786793  )
        50           C   tau(  50) = (   0.4837801   0.0864172   0.3244132  )
        51           C   tau(  51) = (  -0.1713760   0.1604679   0.8275058  )
        52           C   tau(  52) = (   0.2059079   0.4073530   0.6817718  )
        53           H   tau(  53) = (   0.7784146   0.3707525   0.1560473  )
        54           H   tau(  54) = (   0.5664294   0.1238674   0.3470452  )
        55           H   tau(  55) = (  -0.0887267   0.1230177   0.8501378  )
        56           H   tau(  56) = (   0.1232586   0.3699028   0.6591398  )
        57           H   tau(  57) = (   0.8840842   0.2694771   0.1147874  )
        58           H   tau(  58) = (   0.4607598   0.0225920   0.3883052  )
        59           H   tau(  59) = (  -0.1943963   0.2242931   0.8913977  )
        60           H   tau(  60) = (   0.2289282   0.4711782   0.6178799  )
        61           H   tau(  61) = (   0.8492511   0.2914093   0.2615223  )
        62           H   tau(  62) = (   0.4955928   0.0445242   0.2415703  )
        63           H   tau(  63) = (  -0.1595632   0.2023609   0.7446628  )
        64           H   tau(  64) = (   0.1940951   0.4492459   0.7646148  )
        65           C   tau(  65) = (   0.8525279   0.0307093   0.3409780  )
        66           C   tau(  66) = (   0.4923160   0.2775944   0.1621146  )
        67           C   tau(  67) = (  -0.1628400   0.4630609   0.6652071  )
        68           C   tau(  68) = (   0.1973719   0.2161758   0.8440705  )
        69           H   tau(  69) = (   0.8373200   0.4439614   0.3858005  )
        70           H   tau(  70) = (   0.5075240   0.1970763   0.1172920  )
        71           H   tau(  71) = (  -0.1476321   0.0498088   0.6203846  )
        72           H   tau(  72) = (   0.1821640   0.2966939   0.8888930  )
        73           H   tau(  73) = (   0.7764881   0.0537964   0.2919315  )
        74           H   tau(  74) = (   0.5683559   0.3006815   0.2111611  )
        75           H   tau(  75) = (  -0.0868002   0.4399737   0.7142536  )
        76           H   tau(  76) = (   0.1213321   0.1930887   0.7950240  )
        77           H   tau(  77) = (   0.8742272   0.0988162   0.4003439  )
        78           H   tau(  78) = (   0.4706168   0.3457013   0.1027486  )
        79           H   tau(  79) = (  -0.1845392   0.3949540   0.6058411  )
        80           H   tau(  80) = (   0.2190712   0.1480689   0.9034365  )

     number of k points=     8
                       cart. coord. in units 2pi/alat
        k(    1) = (   0.0000000   0.0000000   0.0000000), wk =   0.1666667
        k(    2) = (   0.0000000   0.0000000  -0.4969265), wk =   0.1666667
        k(    3) = (   0.0000000   0.6750779   0.0000000), wk =   0.3333333
        k(    4) = (   0.0000000   0.6750779  -0.4969265), wk =   0.3333333
        k(    5) = (  -0.5000000   0.0000000  -0.1542023), wk =   0.1666667
        k(    6) = (  -0.5000000   0.0000000  -0.6511287), wk =   0.1666667
        k(    7) = (  -0.5000000   0.6750779  -0.1542023), wk =   0.3333333
        k(    8) = (  -0.5000000   0.6750779  -0.6511287), wk =   0.3333333

     Dense  grid:   737647 G-vectors     FFT dimensions: ( 144,  72, 150)

     Estimated max dynamical RAM per process >     659.31MB

     Estimated total allocated dynamical RAM >    5274.49MB

     Check: negative/imaginary core charge=   -0.000002    0.000000

     Initial potential from superposition of free atoms

     starting charge  279.99854, renormalised to  280.00000
     Starting wfc are  248 randomized atomic wfcs
     Checking if some PAW data can be deallocated... 

     total cpu time spent up to now is       35.7 secs

     per-process dynamical memory:   488.8 Mb

     Self-consistent Calculation

     iteration #  1     ecut=   100.00 Ry     beta=0.50
     Davidson diagonalization with overlap
     ethr =  1.00E-02,  avg # of iterations =  3.0

     total cpu time spent up to now is      118.7 secs

     total energy              =   -1371.97517098 Ry
     Harris-Foulkes estimate   =   -1375.49518676 Ry
     estimated scf accuracy    <       7.00717203 Ry

     iteration #  2     ecut=   100.00 Ry     beta=0.50
     Davidson diagonalization with overlap
     ethr =  2.50E-03,  avg # of iterations =  2.0

     total cpu time spent up to now is      165.2 secs

     total energy              =   -1372.29433900 Ry
     Harris-Foulkes estimate   =   -1372.89005855 Ry
     estimated scf accuracy    <       1.21467729 Ry

     iteration #  3     ecut=   100.00 Ry     beta=0.50
     Davidson diagonalization with overlap
     ethr =  4.34E-04,  avg # of iterations =  6.5

     total cpu time spent up to now is      253.9 secs

     total energy              =   -1372.93043493 Ry
     Harris-Foulkes estimate   =   -1373.34556863 Ry
     estimated scf accuracy    <       1.15437673 Ry

     iteration #  4     ecut=   100.00 Ry     beta=0.50
     Davidson diagonalization with overlap
     ethr =  4.12E-04,  avg # of iterations =  1.2

     total cpu time spent up to now is      297.1 secs

     total energy              =   -1372.95209824 Ry
     Harris-Foulkes estimate   =   -1373.05678437 Ry
     estimated scf accuracy    <       0.23446604 Ry

     iteration #  5     ecut=   100.00 Ry     beta=0.50
     Davidson diagonalization with overlap
     ethr =  8.37E-05,  avg # of iterations =  6.0

     total cpu time spent up to now is      375.5 secs

     total energy              =   -1373.07082689 Ry
     Harris-Foulkes estimate   =   -1373.08226454 Ry
     estimated scf accuracy    <       0.05739709 Ry

     iteration #  6     ecut=   100.00 Ry     beta=0.50
     Davidson diagonalization with overlap
     c_bands:  1 eigenvalues not converged
     ethr =  2.05E-05,  avg # of iterations =  4.4

     total cpu time spent up to now is      424.0 secs

     total energy              =   -1373.06555779 Ry
     Harris-Foulkes estimate   =   -1373.07663424 Ry
     estimated scf accuracy    <       0.02685387 Ry

     iteration #  7     ecut=   100.00 Ry     beta=0.50
     Davidson diagonalization with overlap
     ethr =  9.59E-06,  avg # of iterations =  6.0

     total cpu time spent up to now is      474.8 secs

     total energy              =   -1373.06417048 Ry
     Harris-Foulkes estimate   =   -1373.06790319 Ry
     estimated scf accuracy    <       0.00679889 Ry

     iteration #  8     ecut=   100.00 Ry     beta=0.50
     Davidson diagonalization with overlap
     ethr =  2.43E-06,  avg # of iterations =  8.4

     total cpu time spent up to now is      576.5 secs

     total energy              =   -1373.07028364 Ry
     Harris-Foulkes estimate   =   -1373.07175170 Ry
     estimated scf accuracy    <       0.00528142 Ry

     iteration #  9     ecut=   100.00 Ry     beta=0.50
     Davidson diagonalization with overlap
     ethr =  1.89E-06,  avg # of iterations =  1.0

     total cpu time spent up to now is      619.3 secs

     total energy              =   -1373.06876028 Ry
     Harris-Foulkes estimate   =   -1373.07039009 Ry
     estimated scf accuracy    <       0.00268866 Ry

     iteration # 10     ecut=   100.00 Ry     beta=0.50
     Davidson diagonalization with overlap
     ethr =  9.60E-07,  avg # of iterations =  4.5

     total cpu time spent up to now is      686.3 secs

     total energy              =   -1373.07009433 Ry
     Harris-Foulkes estimate   =   -1373.07033387 Ry
     estimated scf accuracy    <       0.00084723 Ry

     iteration # 11     ecut=   100.00 Ry     beta=0.50
     Davidson diagonalization with overlap
     ethr =  3.03E-07,  avg # of iterations =  1.0

     total cpu time spent up to now is      729.2 secs

     total energy              =   -1373.06992544 Ry
     Harris-Foulkes estimate   =   -1373.07011558 Ry
     estimated scf accuracy    <       0.00043062 Ry

     iteration # 12     ecut=   100.00 Ry     beta=0.50
     Davidson diagonalization with overlap
     ethr =  1.54E-07,  avg # of iterations =  3.9

     total cpu time spent up to now is      789.1 secs

     total energy              =   -1373.07007229 Ry
     Harris-Foulkes estimate   =   -1373.07007602 Ry
     estimated scf accuracy    <       0.00000902 Ry

     iteration # 13     ecut=   100.00 Ry     beta=0.50
     Davidson diagonalization with overlap
     ethr =  3.22E-09,  avg # of iterations =  4.0

     total cpu time spent up to now is      861.9 secs

     total energy              =   -1373.07007529 Ry
     Harris-Foulkes estimate   =   -1373.07007597 Ry
     estimated scf accuracy    <       0.00000152 Ry

     iteration # 14     ecut=   100.00 Ry     beta=0.50
     Davidson diagonalization with overlap
     ethr =  5.43E-10,  avg # of iterations =  4.0

     total cpu time spent up to now is      937.3 secs

     total energy              =   -1373.07007565 Ry
     Harris-Foulkes estimate   =   -1373.07007628 Ry
     estimated scf accuracy    <       0.00000180 Ry

     iteration # 15     ecut=   100.00 Ry     beta=0.50
     Davidson diagonalization with overlap
     ethr =  5.43E-10,  avg # of iterations =  2.0

     total cpu time spent up to now is      981.8 secs

     total energy              =   -1373.07007535 Ry
     Harris-Foulkes estimate   =   -1373.07007571 Ry
     estimated scf accuracy    <       0.00000069 Ry

     iteration # 16     ecut=   100.00 Ry     beta=0.50
     Davidson diagonalization with overlap
     ethr =  2.48E-10,  avg # of iterations =  4.0

     total cpu time spent up to now is     1049.4 secs

     total energy              =   -1373.07007572 Ry
     Harris-Foulkes estimate   =   -1373.07007576 Ry
     estimated scf accuracy    <       0.00000013 Ry

     iteration # 17     ecut=   100.00 Ry     beta=0.50
     Davidson diagonalization with overlap
     ethr =  4.72E-11,  avg # of iterations =  2.0

     total cpu time spent up to now is     1094.0 secs

     total energy              =   -1373.07007570 Ry
     Harris-Foulkes estimate   =   -1373.07007572 Ry
     estimated scf accuracy    <       0.00000005 Ry

     iteration # 18     ecut=   100.00 Ry     beta=0.50
     Davidson diagonalization with overlap
     ethr =  1.79E-11,  avg # of iterations =  4.0

     total cpu time spent up to now is     1157.5 secs

     End of self-consistent calculation

          k = 0.0000 0.0000 0.0000 ( 92265 PWs)   bands (ev):

   -22.0912 -22.0849 -22.0829 -22.0775 -20.0941 -20.0920 -20.0659 -20.0622
   -19.1570 -19.1508 -19.1494 -19.1349 -17.4777 -17.4672 -17.4335 -17.4231
   -15.5983 -15.5765 -15.5763 -15.5663 -14.6795 -14.6617 -14.6304 -14.6137
   -13.8155 -13.8115 -13.7958 -13.7547 -12.7698 -12.7531 -12.7365 -12.7090
   -10.7793 -10.7576 -10.7493 -10.7150 -10.3023 -10.2818 -10.2745 -10.2627
    -9.8645  -9.7945  -9.7937  -9.7714  -9.5467  -9.5376  -9.5126  -9.4950
    -7.7536  -7.6789  -7.6378  -7.5927  -7.5084  -7.5029  -7.4745  -7.4486
    -6.7232  -6.6926  -6.6677  -6.6401  -6.2996  -6.1524  -6.0786  -6.0111
    -5.4741  -5.4404  -5.3910  -5.3683  -5.2764  -5.2451  -5.1788  -5.0333
    -4.6839  -4.6806  -4.5979  -4.4992  -3.8793  -3.5931  -3.5702  -3.5366
    -3.5233  -3.4697  -3.3951  -3.3895  -3.2446  -3.1924  -3.0935  -3.0392
    -2.8483  -2.8161  -2.8101  -2.7993  -2.7992  -2.7896  -2.7229  -2.6952
    -2.6797  -2.6048  -2.5537  -2.5375  -2.4988  -2.4270  -2.4003  -2.3136
    -2.1719  -2.0858  -2.0856  -1.9387  -1.6424  -1.6114  -1.5602  -1.5442
    -1.0379  -1.0084  -1.0029  -0.9304  -0.5422  -0.4210  -0.4144  -0.3903
    -0.3004  -0.2961  -0.2934  -0.2639  -0.0793  -0.0256   0.0077   0.0129
     0.0658   0.0898   0.1510   0.2146   0.6011   0.7038   0.7215   0.7485
     1.2404   1.2447   1.4889   1.5872   3.1114   3.2069   3.2385   3.4955
     5.4338   5.4427   5.4564   5.5005   6.1518   6.2676   6.2801   6.3259
     6.3965   6.4025   6.5582   6.6470   7.5190   7.9909   8.0612   8.1305
     8.3342   8.6814   8.7545   8.8001   8.8475   8.9131   9.0495   9.0611

          k = 0.0000 0.0000-0.4969 ( 92306 PWs)   bands (ev):

   -22.0889 -22.0889 -22.0793 -22.0793 -20.0930 -20.0930 -20.0641 -20.0641
   -19.1560 -19.1560 -19.1400 -19.1400 -17.4731 -17.4731 -17.4277 -17.4277
   -15.5905 -15.5905 -15.5682 -15.5682 -14.6686 -14.6686 -14.6244 -14.6244
   -13.8160 -13.8160 -13.7726 -13.7726 -12.7548 -12.7548 -12.7296 -12.7296
   -10.7635 -10.7635 -10.7378 -10.7378 -10.2909 -10.2909 -10.2677 -10.2677
    -9.8199  -9.8199  -9.7937  -9.7937  -9.5435  -9.5435  -9.5036  -9.5036
    -7.6734  -7.6734  -7.6583  -7.6583  -7.4905  -7.4905  -7.4777  -7.4777
    -6.7125  -6.7125  -6.6461  -6.6461  -6.2458  -6.2458  -6.0280  -6.0280
    -5.4321  -5.4321  -5.4149  -5.4149  -5.2724  -5.2724  -5.0690  -5.0690
    -4.6809  -4.6809  -4.5721  -4.5721  -3.7120  -3.7120  -3.5757  -3.5757
    -3.4787  -3.4787  -3.3497  -3.3497  -3.2940  -3.2940  -3.0697  -3.0697
    -2.8839  -2.8839  -2.8051  -2.8051  -2.7605  -2.7605  -2.6883  -2.6883
    -2.6299  -2.6299  -2.5298  -2.5298  -2.4575  -2.4575  -2.3812  -2.3812
    -2.1573  -2.1573  -1.9653  -1.9653  -1.6030  -1.6030  -1.5772  -1.5772
    -1.0478  -1.0478  -0.9462  -0.9462  -0.4826  -0.4826  -0.3740  -0.3740
    -0.3145  -0.3145  -0.2786  -0.2786  -0.0609  -0.0609   0.0153   0.0153
     0.0712   0.0712   0.1818   0.1818   0.6265   0.6265   0.7604   0.7604
     1.2447   1.2447   1.5382   1.5382   3.1198   3.1198   3.4043   3.4043
     5.4436   5.4436   5.4695   5.4695   6.1458   6.1458   6.3376   6.3376
     6.4715   6.4715   6.5633   6.5633   7.7029   7.7029   8.1460   8.1460
     8.5278   8.5278   8.7212   8.7212   8.8688   8.8688   8.9729   8.9729

          k = 0.0000 0.6751 0.0000 ( 92209 PWs)   bands (ev):

   -22.0880 -22.0839 -22.0821 -22.0784 -20.0848 -20.0842 -20.0712 -20.0688
   -19.1550 -19.1519 -19.1457 -19.1384 -17.4759 -17.4706 -17.4355 -17.4303
   -15.5970 -15.5861 -15.5770 -15.5719 -14.6739 -14.6664 -14.6246 -14.6178
   -13.8153 -13.8075 -13.8059 -13.7785 -12.7708 -12.7673 -12.7414 -12.7234
   -10.7590 -10.7479 -10.7198 -10.7037 -10.3059 -10.3041 -10.2645 -10.2520
    -9.8639  -9.8337  -9.7530  -9.7383  -9.5446  -9.5391  -9.4880  -9.4786
    -7.7361  -7.7164  -7.6075  -7.6010  -7.5104  -7.5046  -7.4595  -7.4472
    -6.7220  -6.6796  -6.6755  -6.6560  -6.3127  -6.2353  -6.0678  -6.0394
    -5.4576  -5.4510  -5.4150  -5.4130  -5.3365  -5.3140  -5.1808  -5.1262
    -4.6360  -4.5976  -4.5852  -4.5069  -3.8048  -3.6384  -3.6252  -3.5806
    -3.5296  -3.5209  -3.3865  -3.2918  -3.2439  -3.1171  -3.0921  -3.0689
    -2.9506  -2.9208  -2.8708  -2.8254  -2.7707  -2.7156  -2.6438  -2.6233
    -2.5658  -2.5275  -2.4964  -2.4913  -2.4019  -2.3947  -2.3319  -2.3213
    -2.1102  -2.0916  -2.0501  -1.9795  -1.6556  -1.6520  -1.6270  -1.6024
    -1.0158  -0.9856  -0.9254  -0.9071  -0.5018  -0.5011  -0.4018  -0.3302
    -0.3121  -0.3119  -0.2945  -0.2639  -0.0894  -0.0463   0.0451   0.0505
     0.0812   0.1057   0.1293   0.1973   0.6947   0.6968   0.7551   0.7949
     1.2825   1.3280   1.4113   1.4981   3.0866   3.1504   3.2215   3.3620
     5.3934   5.3997   5.4291   5.4530   6.0698   6.1016   6.2396   6.2727
     6.3471   6.4151   6.4803   6.6178   7.8296   8.3603   8.4124   8.4953
     8.5001   8.6405   8.7384   8.7804   8.8951   8.9067   9.0202   9.0477

          k = 0.0000 0.6751-0.4969 ( 92172 PWs)   bands (ev):

   -22.0866 -22.0866 -22.0797 -22.0797 -20.0845 -20.0845 -20.0700 -20.0700
   -19.1541 -19.1541 -19.1415 -19.1415 -17.4734 -17.4734 -17.4327 -17.4327
   -15.5917 -15.5917 -15.5744 -15.5744 -14.6663 -14.6663 -14.6251 -14.6251
   -13.8140 -13.8140 -13.7895 -13.7895 -12.7577 -12.7577 -12.7439 -12.7439
   -10.7438 -10.7438 -10.7209 -10.7209 -10.3160 -10.3160 -10.2484 -10.2484
    -9.8047  -9.8047  -9.7909  -9.7909  -9.5419  -9.5419  -9.4830  -9.4830
    -7.6816  -7.6816  -7.6511  -7.6511  -7.4848  -7.4848  -7.4735  -7.4735
    -6.7119  -6.7119  -6.6565  -6.6565  -6.2753  -6.2753  -6.0515  -6.0515
    -5.4435  -5.4435  -5.4275  -5.4275  -5.3361  -5.3361  -5.1158  -5.1158
    -4.6434  -4.6434  -4.5509  -4.5509  -3.6935  -3.6935  -3.5911  -3.5911
    -3.5538  -3.5538  -3.3346  -3.3346  -3.1749  -3.1749  -3.1190  -3.1190
    -2.9731  -2.9731  -2.7727  -2.7727  -2.7143  -2.7143  -2.6606  -2.6606
    -2.5539  -2.5539  -2.5036  -2.5036  -2.3765  -2.3765  -2.3317  -2.3317
    -2.1960  -2.1960  -1.9384  -1.9384  -1.6495  -1.6495  -1.6071  -1.6071
    -1.0034  -1.0034  -0.9185  -0.9185  -0.4914  -0.4914  -0.3807  -0.3807
    -0.3090  -0.3090  -0.2631  -0.2631  -0.0417  -0.0417   0.0202   0.0202
     0.0884   0.0884   0.1496   0.1496   0.6909   0.6909   0.7835   0.7835
     1.3020   1.3020   1.4586   1.4586   3.0947   3.0947   3.3166   3.3166
     5.3949   5.3949   5.4397   5.4397   6.0682   6.0682   6.2496   6.2496
     6.4104   6.4104   6.5481   6.5481   8.0303   8.0303   8.4640   8.4640
     8.5627   8.5627   8.8112   8.8112   8.9190   8.9190   8.9748   8.9748

          k =-0.5000 0.0000-0.1542 ( 92160 PWs)   bands (ev):

   -22.0881 -22.0881 -22.0802 -22.0802 -20.0930 -20.0930 -20.0641 -20.0641
   -19.1534 -19.1534 -19.1426 -19.1426 -17.4726 -17.4726 -17.4282 -17.4282
   -15.5894 -15.5894 -15.5693 -15.5693 -14.6614 -14.6614 -14.6316 -14.6316
   -13.8201 -13.8201 -13.7680 -13.7680 -12.7519 -12.7519 -12.7330 -12.7330
   -10.7676 -10.7676 -10.7320 -10.7320 -10.2804 -10.2804 -10.2799 -10.2799
    -9.8297  -9.8297  -9.7841  -9.7841  -9.5422  -9.5422  -9.5041  -9.5041
    -7.6798  -7.6798  -7.6524  -7.6524  -7.4955  -7.4955  -7.4722  -7.4722
    -6.6974  -6.6974  -6.6586  -6.6586  -6.2461  -6.2461  -6.0342  -6.0342
    -5.4313  -5.4313  -5.4069  -5.4069  -5.2737  -5.2737  -5.0911  -5.0911
    -4.6736  -4.6736  -4.5589  -4.5589  -3.7173  -3.7173  -3.5835  -3.5835
    -3.4595  -3.4595  -3.3767  -3.3767  -3.2636  -3.2636  -3.0228  -3.0228
    -2.8934  -2.8934  -2.8249  -2.8249  -2.7297  -2.7297  -2.6905  -2.6905
    -2.6439  -2.6439  -2.5620  -2.5620  -2.4455  -2.4455  -2.3904  -2.3904
    -2.2128  -2.2128  -1.9464  -1.9464  -1.6122  -1.6122  -1.5680  -1.5680
    -1.0518  -1.0518  -0.9238  -0.9238  -0.5046  -0.5046  -0.3950  -0.3950
    -0.2798  -0.2798  -0.2623  -0.2623  -0.0506  -0.0506   0.0325   0.0325
     0.0933   0.0933   0.1297   0.1297   0.6250   0.6250   0.7676   0.7676
     1.2477   1.2477   1.5307   1.5307   3.1155   3.1155   3.4037   3.4037
     5.3851   5.3851   5.5340   5.5340   6.1737   6.1737   6.3365   6.3365
     6.4100   6.4100   6.5969   6.5969   7.7665   7.7665   8.0571   8.0571
     8.4271   8.4271   8.8590   8.8590   8.8969   8.8969   9.0674   9.0675

          k =-0.5000 0.0000-0.6511 ( 92210 PWs)   bands (ev):

   -22.0884 -22.0874 -22.0810 -22.0797 -20.0937 -20.0923 -20.0651 -20.0630
   -19.1568 -19.1503 -19.1431 -19.1420 -17.4775 -17.4665 -17.4337 -17.4239
   -15.5900 -15.5835 -15.5816 -15.5624 -14.6668 -14.6512 -14.6431 -14.6244
   -13.8387 -13.7874 -13.7855 -13.7652 -12.7670 -12.7542 -12.7461 -12.7016
   -10.7668 -10.7613 -10.7596 -10.7135 -10.3025 -10.2816 -10.2812 -10.2560
    -9.8558  -9.8034  -9.7882  -9.7749  -9.5523  -9.5302  -9.5085  -9.5026
    -7.7405  -7.6986  -7.6333  -7.5970  -7.5158  -7.4937  -7.4646  -7.4595
    -6.7103  -6.6791  -6.6668  -6.6551  -6.2822  -6.1536  -6.0926  -6.0294
    -5.4758  -5.4502  -5.3908  -5.3855  -5.3083  -5.2235  -5.0989  -5.0427
    -4.7856  -4.5764  -4.5718  -4.5659  -3.7031  -3.6670  -3.6417  -3.5227
    -3.4690  -3.4594  -3.4415  -3.3565  -3.2265  -3.2063  -3.1549  -3.0026
    -2.9187  -2.8920  -2.8398  -2.7810  -2.7622  -2.7609  -2.7002  -2.6474
    -2.6123  -2.6088  -2.6038  -2.5442  -2.5149  -2.4771  -2.4486  -2.4070
    -2.2082  -2.0304  -1.9739  -1.9201  -1.6365  -1.5930  -1.5770  -1.5338
    -1.1211  -0.9695  -0.9668  -0.9093  -0.5357  -0.4818  -0.4435  -0.3607
    -0.3344  -0.2669  -0.2503  -0.2391  -0.1020  -0.0245   0.0024   0.0588
     0.0661   0.0943   0.1605   0.1753   0.5708   0.6810   0.6951   0.8214
     1.2502   1.2546   1.4801   1.5765   3.0122   3.2751   3.3083   3.4372
     5.3676   5.4092   5.5136   5.5376   6.1078   6.2511   6.3160   6.3756
     6.3888   6.4869   6.5029   6.6042   7.6728   7.7202   7.9916   8.4856
     8.5114   8.5863   8.7488   8.7747   8.8230   8.9111   8.9203   9.0062

          k =-0.5000 0.6751-0.1542 ( 92206 PWs)   bands (ev):

   -22.0852 -22.0852 -22.0811 -22.0811 -20.0845 -20.0845 -20.0700 -20.0700
   -19.1508 -19.1508 -19.1448 -19.1448 -17.4729 -17.4729 -17.4332 -17.4332
   -15.5898 -15.5898 -15.5763 -15.5763 -14.6590 -14.6590 -14.6323 -14.6323
   -13.8191 -13.8191 -13.7842 -13.7842 -12.7559 -12.7559 -12.7459 -12.7459
   -10.7459 -10.7459 -10.7207 -10.7207 -10.3023 -10.3023 -10.2601 -10.2601
    -9.8193  -9.8193  -9.7744  -9.7744  -9.5431  -9.5431  -9.4830  -9.4830
    -7.6818  -7.6818  -7.6556  -7.6556  -7.4811  -7.4811  -7.4735  -7.4735
    -6.7024  -6.7024  -6.6690  -6.6690  -6.2570  -6.2570  -6.0715  -6.0715
    -5.4389  -5.4389  -5.4296  -5.4296  -5.3211  -5.3211  -5.1352  -5.1352
    -4.6252  -4.6252  -4.5519  -4.5519  -3.7532  -3.7532  -3.5845  -3.5845
    -3.5156  -3.5156  -3.3740  -3.3740  -3.1781  -3.1781  -3.0718  -3.0718
    -2.9106  -2.9106  -2.8405  -2.8405  -2.6892  -2.6892  -2.6602  -2.6602
    -2.5521  -2.5521  -2.4896  -2.4896  -2.3951  -2.3951  -2.3504  -2.3504
    -2.1490  -2.1490  -1.9803  -1.9803  -1.6507  -1.6507  -1.6235  -1.6235
    -0.9950  -0.9950  -0.9289  -0.9289  -0.4792  -0.4792  -0.3717  -0.3717
    -0.3139  -0.3139  -0.2951  -0.2951  -0.0256  -0.0256   0.0207   0.0207
     0.0864   0.0864   0.1790   0.1790   0.6987   0.6987   0.7709   0.7709
     1.3007   1.3007   1.4554   1.4554   3.0910   3.0910   3.3146   3.3146
     5.3501   5.3501   5.4899   5.4899   6.0851   6.0851   6.2350   6.2350
     6.4046   6.4046   6.5457   6.5457   8.0548   8.0548   8.3916   8.3916
     8.6378   8.6378   8.8159   8.8159   8.9030   8.9030   8.9833   8.9833

          k =-0.5000 0.6751-0.6511 ( 92190 PWs)   bands (ev):

   -22.0856 -22.0845 -22.0818 -22.0806 -20.0848 -20.0842 -20.0707 -20.0693
   -19.1529 -19.1482 -19.1455 -19.1446 -17.4755 -17.4699 -17.4359 -17.4309
   -15.5923 -15.5880 -15.5811 -15.5707 -14.6628 -14.6580 -14.6340 -14.6277
   -13.8310 -13.8041 -13.7904 -13.7812 -12.7719 -12.7712 -12.7385 -12.7216
   -10.7544 -10.7493 -10.7287 -10.7013 -10.3129 -10.3108 -10.2525 -10.2438
    -9.8463  -9.8331  -9.7652  -9.7462  -9.5450  -9.5424  -9.4834  -9.4809
    -7.7410  -7.7073  -7.6221  -7.5901  -7.5189  -7.5049  -7.4529  -7.4496
    -6.7156  -6.7041  -6.6689  -6.6471  -6.2826  -6.2234  -6.0908  -6.0601
    -5.4660  -5.4566  -5.4187  -5.4145  -5.3517  -5.3230  -5.1140  -5.0947
    -4.6911  -4.5826  -4.5492  -4.5418  -3.7531  -3.7388  -3.6040  -3.5691
    -3.4992  -3.4747  -3.4502  -3.3570  -3.1824  -3.1382  -3.1010  -3.0530
    -3.0359  -2.9457  -2.7819  -2.7246  -2.7212  -2.7141  -2.6723  -2.6233
    -2.5621  -2.5273  -2.5176  -2.4995  -2.4253  -2.3898  -2.3577  -2.3378
    -2.2686  -2.1289  -1.9254  -1.9068  -1.6510  -1.6462  -1.6253  -1.6092
    -1.0299  -0.9588  -0.9338  -0.9271  -0.5156  -0.4619  -0.4093  -0.3647
    -0.3268  -0.3015  -0.3002  -0.2375  -0.0407  -0.0078   0.0022   0.0306
     0.0306   0.1022   0.1830   0.1993   0.7008   0.7045   0.7198   0.8093
     1.2885   1.3298   1.4002   1.4957   3.0261   3.1555   3.2837   3.3455
     5.3452   5.3531   5.4862   5.4915   6.0418   6.0923   6.2588   6.2880
     6.3508   6.3968   6.5311   6.5875   8.0320   8.0537   8.2335   8.5159
     8.6561   8.7201   8.8203   8.8762   8.8813   8.9235   8.9800   8.9813

     highest occupied, lowest unoccupied level (ev):     1.5872    3.0122

!    total energy              =   -1373.07007573 Ry
     Harris-Foulkes estimate   =   -1373.07007573 Ry
     estimated scf accuracy    <          1.6E-09 Ry

     total all-electron energy =     -5360.970041 Ry

     The total energy is the sum of the following terms:

     one-electron contribution =    -807.25945441 Ry
     hartree contribution      =     510.87336841 Ry
     xc contribution           =    -289.19133414 Ry
     ewald contribution        =    -362.44988579 Ry
     Dispersion Correction     =      -0.39577751 Ry
     one-center paw contrib.   =    -424.64699228 Ry

     convergence has been achieved in  18 iterations

     Forces acting on atoms (cartesian axes, Ry/au):

     atom    1 type  2   force =    -0.00064677   -0.00154954    0.00043513
     atom    2 type  2   force =     0.00064677   -0.00154954   -0.00043513
     atom    3 type  2   force =     0.00064677    0.00154954   -0.00043513
     atom    4 type  2   force =    -0.00064677    0.00154954    0.00043513
     atom    5 type  2   force =     0.00205968   -0.00140484    0.00019872
     atom    6 type  2   force =    -0.00205968   -0.00140484   -0.00019872
     atom    7 type  2   force =    -0.00205968    0.00140484   -0.00019872
     atom    8 type  2   force =     0.00205968    0.00140484    0.00019872
     atom    9 type  2   force =    -0.00000963    0.00164779    0.00151792
     atom   10 type  2   force =     0.00000963    0.00164779   -0.00151792
     atom   11 type  2   force =     0.00000963   -0.00164779   -0.00151792
     atom   12 type  2   force =    -0.00000963   -0.00164779    0.00151792
     atom   13 type  2   force =    -0.00329170   -0.00013690    0.00037905
     atom   14 type  2   force =     0.00329170   -0.00013690   -0.00037905
     atom   15 type  2   force =     0.00329170    0.00013690   -0.00037905
     atom   16 type  2   force =    -0.00329170    0.00013690    0.00037905
     atom   17 type  2   force =    -0.00018427   -0.00330819    0.00201405
     atom   18 type  2   force =     0.00018427   -0.00330819   -0.00201405
     atom   19 type  2   force =     0.00018427    0.00330819   -0.00201405
     atom   20 type  2   force =    -0.00018427    0.00330819    0.00201405
     atom   21 type  2   force =     0.00079906    0.00140514    0.00287638
     atom   22 type  2   force =    -0.00079906    0.00140514   -0.00287638
     atom   23 type  2   force =    -0.00079906   -0.00140514   -0.00287638
     atom   24 type  2   force =     0.00079906   -0.00140514    0.00287638
     atom   25 type  2   force =    -0.00063538   -0.00155275    0.00069761
     atom   26 type  2   force =     0.00063538   -0.00155275   -0.00069761
     atom   27 type  2   force =     0.00063538    0.00155275   -0.00069761
     atom   28 type  2   force =    -0.00063538    0.00155275    0.00069761
     atom   29 type  2   force =    -0.00252667   -0.00084177   -0.00186251
     atom   30 type  2   force =     0.00252667   -0.00084177    0.00186251
     atom   31 type  2   force =     0.00252667    0.00084177    0.00186251
     atom   32 type  2   force =    -0.00252667    0.00084177   -0.00186251
     atom   33 type  1   force =     0.00052641    0.00108007   -0.00005007
     atom   34 type  1   force =    -0.00052641    0.00108007    0.00005007
     atom   35 type  1   force =    -0.00052641   -0.00108007    0.00005007
     atom   36 type  1   force =     0.00052641   -0.00108007   -0.00005007
     atom   37 type  1   force =    -0.00195727   -0.00055645    0.00019678
     atom   38 type  1   force =     0.00195727   -0.00055645   -0.00019678
     atom   39 type  1   force =     0.00195727    0.00055645   -0.00019678
     atom   40 type  1   force =    -0.00195727    0.00055645    0.00019678
     atom   41 type  1   force =     0.00111363    0.00194370    0.00025577
     atom   42 type  1   force =    -0.00111363    0.00194370   -0.00025577
     atom   43 type  1   force =    -0.00111363   -0.00194370   -0.00025577
     atom   44 type  1   force =     0.00111363   -0.00194370    0.00025577
     atom   45 type  1   force =    -0.00285070    0.00184807   -0.00101218
     atom   46 type  1   force =     0.00285070    0.00184807    0.00101218
     atom   47 type  1   force =     0.00285070   -0.00184807    0.00101218
     atom   48 type  1   force =    -0.00285070   -0.00184807   -0.00101218
     atom   49 type  1   force =     0.00440790    0.00001910   -0.00074411
     atom   50 type  1   force =    -0.00440790    0.00001910    0.00074411
     atom   51 type  1   force =    -0.00440790   -0.00001910    0.00074411
     atom   52 type  1   force =     0.00440790   -0.00001910   -0.00074411
     atom   53 type  3   force =     0.00089393   -0.00096550   -0.00039840
     atom   54 type  3   force =    -0.00089393   -0.00096550    0.00039840
     atom   55 type  3   force =    -0.00089393    0.00096550    0.00039840
     atom   56 type  3   force =     0.00089393    0.00096550   -0.00039840
     atom   57 type  3   force =     0.00004620    0.00111944    0.00055464
     atom   58 type  3   force =    -0.00004620    0.00111944   -0.00055464
     atom   59 type  3   force =    -0.00004620   -0.00111944   -0.00055464
     atom   60 type  3   force =     0.00004620   -0.00111944    0.00055464
     atom   61 type  3   force =     0.00003372   -0.00150931   -0.00074573
     atom   62 type  3   force =    -0.00003372   -0.00150931    0.00074573
     atom   63 type  3   force =    -0.00003372    0.00150931    0.00074573
     atom   64 type  3   force =     0.00003372    0.00150931   -0.00074573
     atom   65 type  1   force =     0.00334076   -0.00071101   -0.00043714
     atom   66 type  1   force =    -0.00334076   -0.00071101    0.00043714
     atom   67 type  1   force =    -0.00334076    0.00071101    0.00043714
     atom   68 type  1   force =     0.00334076    0.00071101   -0.00043714
     atom   69 type  3   force =     0.00017200    0.00249453    0.00025281
     atom   70 type  3   force =    -0.00017200    0.00249453   -0.00025281
     atom   71 type  3   force =    -0.00017200   -0.00249453   -0.00025281
     atom   72 type  3   force =     0.00017200   -0.00249453    0.00025281
     atom   73 type  3   force =    -0.00030123    0.00074202    0.00003706
     atom   74 type  3   force =     0.00030123    0.00074202   -0.00003706
     atom   75 type  3   force =     0.00030123   -0.00074202   -0.00003706
     atom   76 type  3   force =    -0.00030123   -0.00074202    0.00003706
     atom   77 type  3   force =     0.00055576   -0.00087398   -0.00141791
     atom   78 type  3   force =    -0.00055576   -0.00087398    0.00141791
     atom   79 type  3   force =    -0.00055576    0.00087398    0.00141791
     atom   80 type  3   force =     0.00055576    0.00087398   -0.00141791

     Total force =     0.023368     Total SCF correction =     0.000078


     Computing stress (Cartesian axis) and pressure

          total   stress  (Ry/bohr**3)                   (kbar)     P=   -8.65
  -0.00006036   0.00000000   0.00001910         -8.88      0.00      2.81
   0.00000000  -0.00005699   0.00000000          0.00     -8.38      0.00
   0.00001910   0.00000000  -0.00005907          2.81      0.00     -8.69


     Writing output data file scf.save
 
     init_run     :     33.61s CPU     35.07s WALL (       1 calls)
     electrons    :   1066.83s CPU   1121.93s WALL (       1 calls)
     forces       :     17.09s CPU     17.26s WALL (       1 calls)
     stress       :     97.04s CPU     97.34s WALL (       1 calls)

     Called by init_run:
     wfcinit      :     23.21s CPU     24.52s WALL (       1 calls)
     potinit      :      3.64s CPU      3.70s WALL (       1 calls)

     Called by electrons:
     c_bands      :    945.52s CPU    992.51s WALL (      18 calls)
     sum_band     :    107.74s CPU    114.37s WALL (      18 calls)
     v_of_rho     :      2.00s CPU      2.20s WALL (      19 calls)
     newd         :      4.46s CPU      5.57s WALL (      19 calls)
     PAW_pot      :      6.50s CPU      6.50s WALL (      19 calls)
     mix_rho      :      0.52s CPU      0.62s WALL (      18 calls)

     Called by c_bands:
     init_us_2    :      8.74s CPU      8.76s WALL (     312 calls)
     cegterg      :    913.54s CPU    960.48s WALL (     144 calls)

     Called by sum_band:
     sum_band:bec :      0.09s CPU      0.09s WALL (     144 calls)
     addusdens    :      4.75s CPU      5.80s WALL (      18 calls)

     Called by *egterg:
     h_psi        :    540.44s CPU    576.79s WALL (     695 calls)
     s_psi        :     95.15s CPU     95.15s WALL (     695 calls)
     g_psi        :      4.08s CPU      4.08s WALL (     543 calls)
     cdiaghg      :     62.34s CPU     62.33s WALL (     687 calls)

     Called by h_psi:
     h_psi:pot    :    535.72s CPU    571.98s WALL (     695 calls)
     h_psi:calbec :     89.53s CPU     89.79s WALL (     695 calls)
     vloc_psi     :    351.09s CPU    387.08s WALL (     695 calls)
     add_vuspsi   :     95.09s CPU     95.11s WALL (     695 calls)

     General routines
     calbec       :    129.27s CPU    129.63s WALL (     879 calls)
     fft          :      1.18s CPU      1.52s WALL (     271 calls)
     fftw         :    378.40s CPU    416.26s WALL (  159684 calls)
 
     Parallel routines
     fft_scatter  :     81.49s CPU    111.29s WALL (  159955 calls)
 
     PWSCF        : 20m23.41s CPU    22m 0.49s WALL

 
   This run was terminated on:   5:27: 5   4Nov2017            

=------------------------------------------------------------------------------=
   JOB DONE.
=------------------------------------------------------------------------------=
