
     Program PWSCF v.6.1 (svn rev. 13369) starts on  7Dec2017 at 16:40: 9 

     This program is part of the open-source Quantum ESPRESSO suite
     for quantum simulation of materials; please cite
         "P. Giannozzi et al., J. Phys.:Condens. Matter 21 395502 (2009);
          URL http://www.quantum-espresso.org", 
     in publications or presentations arising from this work. More details at
     http://www.quantum-espresso.org/quote

     Parallel version (MPI), running on     8 processors
     R & G space division:  proc/nbgrp/npool/nimage =       8
     Waiting for input...
     Reading input from standard input

     Current dimensions of program PWSCF are:
     Max number of different atomic species (ntypx) = 10
     Max number of k-points (npk) =  40000
     Max angular momentum in pseudopotentials (lmaxx) =  3
               file C.pbe-n-kjpaw_psl.0.1.UPF: wavefunction(s)  2P renormalized
               file N.pbe-n-kjpaw_psl.0.1.UPF: wavefunction(s)  2P renormalized
               file H.pbe-kjpaw_psl.0.1.UPF: wavefunction(s)  1S renormalized
               file O.pbe-n-kjpaw_psl.0.1.UPF: wavefunction(s)  2P renormalized

     -------------------------------------
     Parameters for Dispersion Correction:
     -------------------------------------
       atom      VdW radius       C_6     

        C          2.744         60.710
        N          2.640         42.670
        H          1.892          4.857
        O          2.536         24.284

     Subspace diagonalization in iterative solution of the eigenvalue problem:
     a serial algorithm will be used

 
     Parallelization info
     --------------------
     sticks:   dense  smooth     PW     G-vecs:    dense   smooth      PW
     Min         732     732    196                51636    51636    7200
     Max         733     733    197                51639    51639    7204
     Sum        5863    5863   1573               413105   413105   57617
 


     bravais-lattice index     =            0
     lattice parameter (alat)  =      16.1987  a.u.
     unit-cell volume          =    3057.7459 (a.u.)^3
     number of atoms/cell      =           56
     number of atomic types    =            4
     number of electrons       =       144.00
     number of Kohn-Sham states=           86
     kinetic-energy cutoff     =     100.0000  Ry
     charge density cutoff     =     400.0000  Ry
     convergence threshold     =      1.0E-08
     mixing beta               =       0.5000
     number of iterations used =            8  plain     mixing
     Exchange-correlation      =  SLA  PW   PBX  PBC ( 1  4  3  4 0 0)

     celldm(1)=  16.198732  celldm(2)=   0.000000  celldm(3)=   0.000000
     celldm(4)=   0.000000  celldm(5)=   0.000000  celldm(6)=   0.000000

     crystal axes: (cart. coord. in units of alat)
               a(1) = (   1.000000   0.000000   0.000000 )  
               a(2) = (   0.000000   0.702287   0.000000 )  
               a(3) = (  -0.346720   0.000000   1.024340 )  

     reciprocal axes: (cart. coord. in units 2 pi/alat)
               b(1) = (  1.000000  0.000000  0.338481 )  
               b(2) = (  0.000000  1.423920  0.000000 )  
               b(3) = (  0.000000  0.000000  0.976239 )  


     PseudoPot. # 1 for  C read from file:
     /scratch/ahofstet/pseudo/C.pbe-n-kjpaw_psl.0.1.UPF
     MD5 check sum: 430fe95172b1e11ef3f8ed03bac87931
     Pseudo is Projector augmented-wave + core cor, Zval =  4.0
     Generated using "atomic" code by A. Dal Corso  v.5.0.99 svn rev. 10869
     Shape of augmentation charge: BESSEL
     Using radial grid of 1073 points,  4 beta functions with: 
                l(1) =   0
                l(2) =   0
                l(3) =   1
                l(4) =   1
     Q(r) pseudized with 0 coefficients 


     PseudoPot. # 2 for  N read from file:
     /scratch/ahofstet/pseudo/N.pbe-n-kjpaw_psl.0.1.UPF
     MD5 check sum: f73187c8b701007e77325f868c9291d7
     Pseudo is Projector augmented-wave + core cor, Zval =  5.0
     Generated using "atomic" code by A. Dal Corso  v.5.0.99 svn rev. 10869
     Shape of augmentation charge: PSQ
     Using radial grid of 1085 points,  4 beta functions with: 
                l(1) =   0
                l(2) =   0
                l(3) =   1
                l(4) =   1
     Q(r) pseudized with 0 coefficients 


     PseudoPot. # 3 for  H read from file:
     /scratch/ahofstet/pseudo/H.pbe-kjpaw_psl.0.1.UPF
     MD5 check sum: 94e484f906d9e9773b2f6e52662335b2
     Pseudo is Projector augmented-wave, Zval =  1.0
     Generated using "atomic" code by A. Dal Corso  v.5.0.99 svn rev. 10869
     Shape of augmentation charge: PSQ
     Using radial grid of  929 points,  2 beta functions with: 
                l(1) =   0
                l(2) =   0
     Q(r) pseudized with 0 coefficients 


     PseudoPot. # 4 for  O read from file:
     /scratch/ahofstet/pseudo/O.pbe-n-kjpaw_psl.0.1.UPF
     MD5 check sum: 3f94a2996a3169367d6eb21d9b593f20
     Pseudo is Projector augmented-wave + core cor, Zval =  6.0
     Generated using "atomic" code by A. Dal Corso  v.5.0.99 svn rev. 10869
     Shape of augmentation charge: BESSEL
     Using radial grid of 1095 points,  4 beta functions with: 
                l(1) =   0
                l(2) =   0
                l(3) =   1
                l(4) =   1
     Q(r) pseudized with 0 coefficients 


     atomic species   valence    mass     pseudopotential
        C              4.00    12.01070      C( 1.00)
        N              5.00    14.00670      N( 1.00)
        H              1.00     1.00794      H( 1.00)
        O              6.00    15.99940      O( 1.00)

      2 Sym. Ops., with inversion, found
          (note:  2 additional sym.ops. were found but ignored
           their fractional translations are incommensurate with FFT grid)


   Cartesian axes

     site n.     atom                  positions (alat units)
         1           O   tau(   1) = (   0.4846481   0.1431976   0.5550193  )
         2           O   tau(   2) = (   0.4952722   0.4943409   0.9814901  )
         3           O   tau(   3) = (   0.1686321   0.5590889   0.4693203  )
         4           O   tau(   4) = (   0.1580080   0.2079456   0.0428495  )
         5           N   tau(   5) = (   0.3159422   0.1365937   0.3494191  )
         6           N   tau(   6) = (   0.0106979   0.4877369   0.1627507  )
         7           N   tau(   7) = (   0.3373380   0.5656928   0.6749205  )
         8           N   tau(   8) = (   0.6425823   0.2145496   0.8615889  )
         9           N   tau(   9) = (   0.5155252   0.3211898   0.3560012  )
        10           N   tau(  10) = (   0.8111149   0.6723331   0.1561686  )
        11           N   tau(  11) = (   0.1377550   0.3810967   0.6683384  )
        12           N   tau(  12) = (  -0.1578347   0.0299534   0.8681710  )
        13           C   tau(  13) = (   0.4401552   0.1984430   0.4258833  )
        14           C   tau(  14) = (   0.8864849   0.5495862   0.0862866  )
        15           C   tau(  15) = (   0.2131250   0.5038436   0.5984564  )
        16           C   tau(  16) = (  -0.2332047   0.1527003   0.9380531  )
        17           C   tau(  17) = (   0.4614240   0.3866758   0.2086571  )
        18           C   tau(  18) = (   0.8652161   0.0355325   0.3035127  )
        19           C   tau(  19) = (   0.1918562   0.3156108   0.8156825  )
        20           C   tau(  20) = (  -0.2119359   0.6667540   0.7208270  )
        21           C   tau(  21) = (   0.6433698   0.4010322   0.4337471  )
        22           C   tau(  22) = (   0.6832703   0.0498890   0.0784227  )
        23           C   tau(  23) = (   0.0099104   0.3012543   0.5905925  )
        24           C   tau(  24) = (  -0.0299901   0.6523975   0.9459170  )
        25           H   tau(  25) = (   0.2757378   0.1751832   0.2443631  )
        26           H   tau(  26) = (   0.0509023   0.5263264   0.2678067  )
        27           H   tau(  27) = (   0.3775424   0.5271033   0.7799765  )
        28           H   tau(  28) = (   0.6023778   0.1759601   0.7565330  )
        29           H   tau(  29) = (   0.2661202   0.0374998   0.3958718  )
        30           H   tau(  30) = (   0.0605198   0.3886431   0.1162980  )
        31           H   tau(  31) = (   0.3871599   0.6647867   0.6284678  )
        32           H   tau(  32) = (   0.5927603   0.3136434   0.9080416  )
        33           H   tau(  33) = (   0.3488303   0.4470842   0.2219959  )
        34           H   tau(  34) = (  -0.0221902   0.0959410   0.2901739  )
        35           H   tau(  35) = (   0.3044499   0.2552023   0.8023437  )
        36           H   tau(  36) = (   0.6754704   0.6063455   0.7341658  )
        37           H   tau(  37) = (   0.5489951   0.4702535   0.1668325  )
        38           H   tau(  38) = (   0.7776449   0.1191102   0.3453373  )
        39           H   tau(  39) = (   0.1042850   0.2320330   0.8575071  )
        40           H   tau(  40) = (  -0.1243648   0.5831763   0.6790023  )
        41           H   tau(  41) = (   0.4482168   0.2952674   0.1196386  )
        42           H   tau(  42) = (  -0.1215768   0.6464107   0.3925312  )
        43           H   tau(  43) = (   0.2050633   0.4070191   0.9047011  )
        44           H   tau(  44) = (   0.7748569   0.0558758   0.6318084  )
        45           H   tau(  45) = (   0.7491277   0.3979714   0.3604199  )
        46           H   tau(  46) = (   0.5775124   0.0468282   0.1517499  )
        47           H   tau(  47) = (  -0.0958475   0.3043151   0.6639198  )
        48           H   tau(  48) = (   0.0757678   0.6554584   0.8725897  )
        49           H   tau(  49) = (   0.6676945   0.3435864   0.5450347  )
        50           H   tau(  50) = (   0.3122257  -0.0075569   0.9914747  )
        51           H   tau(  51) = (  -0.0144143   0.3587001   0.4793049  )
        52           H   tau(  52) = (   0.3410544   0.7098434   0.0328649  )
        53           H   tau(  53) = (   0.6133177   0.5235881   0.4564064  )
        54           H   tau(  54) = (   0.7133224   0.1724449   0.0557634  )
        55           H   tau(  55) = (   0.0399625   0.1786984   0.5679332  )
        56           H   tau(  56) = (  -0.0600422   0.5298417   0.9685762  )

     number of k points=     8
                       cart. coord. in units 2pi/alat
        k(    1) = (   0.0000000   0.0000000   0.0000000), wk =   0.1666667
        k(    2) = (   0.0000000   0.0000000  -0.4881194), wk =   0.1666667
        k(    3) = (   0.0000000   0.4746401   0.0000000), wk =   0.3333333
        k(    4) = (   0.0000000   0.4746401  -0.4881194), wk =   0.3333333
        k(    5) = (  -0.5000000   0.0000000  -0.1692407), wk =   0.1666667
        k(    6) = (  -0.5000000   0.0000000  -0.6573600), wk =   0.1666667
        k(    7) = (  -0.5000000   0.4746401  -0.1692407), wk =   0.3333333
        k(    8) = (  -0.5000000   0.4746401  -0.6573600), wk =   0.3333333

     Dense  grid:   413105 G-vectors     FFT dimensions: ( 108,  75, 120)

     Estimated max dynamical RAM per process >     204.53MB

     Estimated total allocated dynamical RAM >    1636.21MB

     Check: negative/imaginary core charge=   -0.000002    0.000000

     Initial potential from superposition of free atoms

     starting charge  143.99913, renormalised to  144.00000
     Starting wfc are  128 randomized atomic wfcs
     Checking if some PAW data can be deallocated... 

     total cpu time spent up to now is       12.8 secs

     per-process dynamical memory:   191.7 Mb

     Self-consistent Calculation

     iteration #  1     ecut=   100.00 Ry     beta=0.50
     Davidson diagonalization with overlap
     ethr =  1.00E-02,  avg # of iterations =  4.1

     total cpu time spent up to now is       37.5 secs

     total energy              =    -651.00066934 Ry
     Harris-Foulkes estimate   =    -654.02661207 Ry
     estimated scf accuracy    <       5.78426397 Ry

     iteration #  2     ecut=   100.00 Ry     beta=0.50
     Davidson diagonalization with overlap
     ethr =  4.02E-03,  avg # of iterations =  2.2

     total cpu time spent up to now is       51.5 secs

     total energy              =    -651.75640953 Ry
     Harris-Foulkes estimate   =    -651.96278442 Ry
     estimated scf accuracy    <       0.51449732 Ry

     iteration #  3     ecut=   100.00 Ry     beta=0.50
     Davidson diagonalization with overlap
     ethr =  3.57E-04,  avg # of iterations =  5.6

     total cpu time spent up to now is       78.6 secs

     total energy              =    -652.08964683 Ry
     Harris-Foulkes estimate   =    -652.23374667 Ry
     estimated scf accuracy    <       0.38554554 Ry

     iteration #  4     ecut=   100.00 Ry     beta=0.50
     Davidson diagonalization with overlap
     ethr =  2.68E-04,  avg # of iterations =  1.4

     total cpu time spent up to now is       90.8 secs

     total energy              =    -652.05356634 Ry
     Harris-Foulkes estimate   =    -652.11419201 Ry
     estimated scf accuracy    <       0.11133880 Ry

     iteration #  5     ecut=   100.00 Ry     beta=0.50
     Davidson diagonalization with overlap
     ethr =  7.73E-05,  avg # of iterations =  5.6

     total cpu time spent up to now is      115.5 secs

     total energy              =    -652.11964711 Ry
     Harris-Foulkes estimate   =    -652.16337087 Ry
     estimated scf accuracy    <       0.13086152 Ry

     iteration #  6     ecut=   100.00 Ry     beta=0.50
     Davidson diagonalization with overlap
     ethr =  7.73E-05,  avg # of iterations =  1.1

     total cpu time spent up to now is      127.6 secs

     total energy              =    -652.09967652 Ry
     Harris-Foulkes estimate   =    -652.12389516 Ry
     estimated scf accuracy    <       0.05082841 Ry

     iteration #  7     ecut=   100.00 Ry     beta=0.50
     Davidson diagonalization with overlap
     ethr =  3.53E-05,  avg # of iterations =  4.0

     total cpu time spent up to now is      146.6 secs

     total energy              =    -652.12241618 Ry
     Harris-Foulkes estimate   =    -652.12302775 Ry
     estimated scf accuracy    <       0.00421399 Ry

     iteration #  8     ecut=   100.00 Ry     beta=0.50
     Davidson diagonalization with overlap
     ethr =  2.93E-06,  avg # of iterations =  5.8

     total cpu time spent up to now is      161.4 secs

     total energy              =    -652.12076646 Ry
     Harris-Foulkes estimate   =    -652.12264435 Ry
     estimated scf accuracy    <       0.00309221 Ry

     iteration #  9     ecut=   100.00 Ry     beta=0.50
     Davidson diagonalization with overlap
     ethr =  2.15E-06,  avg # of iterations =  3.9

     total cpu time spent up to now is      179.6 secs

     total energy              =    -652.12186236 Ry
     Harris-Foulkes estimate   =    -652.12201483 Ry
     estimated scf accuracy    <       0.00049473 Ry

     iteration # 10     ecut=   100.00 Ry     beta=0.50
     Davidson diagonalization with overlap
     ethr =  3.44E-07,  avg # of iterations =  1.0

     total cpu time spent up to now is      191.4 secs

     total energy              =    -652.12172273 Ry
     Harris-Foulkes estimate   =    -652.12187833 Ry
     estimated scf accuracy    <       0.00022377 Ry

     iteration # 11     ecut=   100.00 Ry     beta=0.50
     Davidson diagonalization with overlap
     ethr =  1.55E-07,  avg # of iterations =  4.0

     total cpu time spent up to now is      212.0 secs

     total energy              =    -652.12183627 Ry
     Harris-Foulkes estimate   =    -652.12191941 Ry
     estimated scf accuracy    <       0.00018277 Ry

     iteration # 12     ecut=   100.00 Ry     beta=0.50
     Davidson diagonalization with overlap
     ethr =  1.27E-07,  avg # of iterations =  2.0

     total cpu time spent up to now is      224.3 secs

     total energy              =    -652.12182413 Ry
     Harris-Foulkes estimate   =    -652.12184719 Ry
     estimated scf accuracy    <       0.00003671 Ry

     iteration # 13     ecut=   100.00 Ry     beta=0.50
     Davidson diagonalization with overlap
     ethr =  2.55E-08,  avg # of iterations =  4.0

     total cpu time spent up to now is      246.2 secs

     total energy              =    -652.12186196 Ry
     Harris-Foulkes estimate   =    -652.12187572 Ry
     estimated scf accuracy    <       0.00004310 Ry

     iteration # 14     ecut=   100.00 Ry     beta=0.50
     Davidson diagonalization with overlap
     ethr =  2.55E-08,  avg # of iterations =  1.0

     total cpu time spent up to now is      257.9 secs

     total energy              =    -652.12185448 Ry
     Harris-Foulkes estimate   =    -652.12186298 Ry
     estimated scf accuracy    <       0.00001812 Ry

     iteration # 15     ecut=   100.00 Ry     beta=0.50
     Davidson diagonalization with overlap
     ethr =  1.26E-08,  avg # of iterations =  3.0

     total cpu time spent up to now is      276.4 secs

     total energy              =    -652.12186226 Ry
     Harris-Foulkes estimate   =    -652.12186235 Ry
     estimated scf accuracy    <       0.00000097 Ry

     iteration # 16     ecut=   100.00 Ry     beta=0.50
     Davidson diagonalization with overlap
     ethr =  6.77E-10,  avg # of iterations =  1.8

     total cpu time spent up to now is      288.6 secs

     total energy              =    -652.12186199 Ry
     Harris-Foulkes estimate   =    -652.12186228 Ry
     estimated scf accuracy    <       0.00000078 Ry

     iteration # 17     ecut=   100.00 Ry     beta=0.50
     Davidson diagonalization with overlap
     ethr =  5.39E-10,  avg # of iterations =  2.5

     total cpu time spent up to now is      302.0 secs

     total energy              =    -652.12186208 Ry
     Harris-Foulkes estimate   =    -652.12186207 Ry
     estimated scf accuracy    <       0.00000011 Ry

     iteration # 18     ecut=   100.00 Ry     beta=0.50
     Davidson diagonalization with overlap
     ethr =  7.82E-11,  avg # of iterations =  4.0

     total cpu time spent up to now is      315.7 secs

     total energy              =    -652.12186207 Ry
     Harris-Foulkes estimate   =    -652.12186209 Ry
     estimated scf accuracy    <       0.00000012 Ry

     iteration # 19     ecut=   100.00 Ry     beta=0.50
     Davidson diagonalization with overlap
     ethr =  7.82E-11,  avg # of iterations =  2.0

     total cpu time spent up to now is      328.1 secs

     total energy              =    -652.12186206 Ry
     Harris-Foulkes estimate   =    -652.12186207 Ry
     estimated scf accuracy    <       0.00000006 Ry

     iteration # 20     ecut=   100.00 Ry     beta=0.50
     Davidson diagonalization with overlap
     ethr =  4.05E-11,  avg # of iterations =  3.1

     total cpu time spent up to now is      344.5 secs

     End of self-consistent calculation

          k = 0.0000 0.0000 0.0000 ( 51657 PWs)   bands (ev):

   -19.8333 -19.7790 -19.7051 -19.6742 -17.1933 -17.1236 -17.1156 -17.1010
   -15.8075 -15.7283 -15.6917 -15.6275 -11.8967 -11.5982 -11.5399 -11.5134
   -11.2796 -10.9624 -10.8734 -10.8109  -8.1198  -7.9082  -7.7709  -7.6198
    -7.6122  -7.2230  -7.0217  -6.8520  -6.3986  -6.2661  -5.8695  -5.8608
    -5.7197  -5.4662  -5.4064  -5.3403  -5.1814  -5.0007  -4.7790  -4.5689
    -4.4464  -4.1119  -4.0490  -3.8817  -3.7995  -3.7266  -3.6862  -3.6522
    -3.6232  -3.5071  -3.4781  -3.4678  -3.3671  -3.3001  -3.2228  -3.1375
    -2.9482  -2.9322  -2.9037  -2.7957  -0.4156  -0.1494  -0.1310  -0.0561
    -0.0336   0.0046   0.0122   0.0560   0.5723   0.7239   0.7506   0.8398
     5.7753   5.9743   6.3186   6.4008   6.6879   6.9762   7.0982   7.3868
     7.4403   7.5156   7.6807   7.8717   8.0764   8.2120

          k = 0.0000 0.0000-0.4881 ( 51662 PWs)   bands (ev):

   -19.8065 -19.8065 -19.6899 -19.6899 -17.1593 -17.1593 -17.1058 -17.1058
   -15.7519 -15.7519 -15.6790 -15.6790 -11.7780 -11.7780 -11.5272 -11.5272
   -11.0700 -11.0700 -10.8633 -10.8633  -7.9078  -7.9078  -7.7465  -7.7465
    -7.3652  -7.3652  -7.1177  -7.1177  -6.4175  -6.4175  -5.7714  -5.7714
    -5.5790  -5.5790  -5.3051  -5.3051  -5.1670  -5.1670  -4.6770  -4.6770
    -4.1391  -4.1391  -3.9012  -3.9012  -3.8099  -3.8099  -3.7690  -3.7690
    -3.5333  -3.5333  -3.4149  -3.4148  -3.3825  -3.3825  -3.1967  -3.1967
    -2.9292  -2.9292  -2.8523  -2.8523  -0.2769  -0.2769  -0.1316  -0.1315
    -0.0163  -0.0163   0.0399   0.0399   0.6828   0.6828   0.7314   0.7314
     6.0733   6.0733   6.3783   6.3784   6.6569   6.6569   7.1662   7.1662
     7.2512   7.2512   8.0696   8.0696   8.2375   8.2375

          k = 0.0000 0.4746 0.0000 ( 51632 PWs)   bands (ev):

   -19.8048 -19.7678 -19.7197 -19.6945 -17.1800 -17.1414 -17.1160 -17.1051
   -15.7929 -15.7526 -15.6752 -15.6433 -11.8424 -11.6697 -11.5531 -11.5076
   -11.1165 -10.9972 -10.9014 -10.8761  -8.0110  -8.0098  -7.7704  -7.7626
    -7.3805  -7.2708  -7.0142  -6.9890  -6.3880  -6.2541  -5.9084  -5.7545
    -5.7358  -5.6303  -5.3102  -5.2826  -5.2107  -5.1284  -4.8896  -4.7076
    -4.4053  -4.2302  -3.9000  -3.8562  -3.7705  -3.7232  -3.6033  -3.5950
    -3.4935  -3.4641  -3.4391  -3.3732  -3.3332  -3.2226  -3.2130  -3.1792
    -2.9670  -2.9028  -2.8227  -2.8112  -0.3793  -0.2431  -0.1677  -0.1251
     0.0026   0.0100   0.1174   0.1209   0.4414   0.5410   0.7097   0.7870
     6.1391   6.1999   6.4062   6.5981   6.7236   7.0615   7.2073   7.4914
     7.5869   7.6397   7.6748   7.8450   8.0174   8.0896

          k = 0.0000 0.4746-0.4881 ( 51654 PWs)   bands (ev):

   -19.7839 -19.7839 -19.7100 -19.7100 -17.1483 -17.1483 -17.1217 -17.1217
   -15.7381 -15.7381 -15.6966 -15.6966 -11.7223 -11.7223 -11.5895 -11.5895
   -11.0232 -11.0232 -10.8919 -10.8919  -7.9390  -7.9390  -7.7729  -7.7728
    -7.2892  -7.2892  -7.1505  -7.1505  -6.3499  -6.3499  -5.8737  -5.8737
    -5.6496  -5.6496  -5.3887  -5.3887  -5.0808  -5.0808  -4.7633  -4.7633
    -4.0862  -4.0862  -3.9865  -3.9865  -3.6587  -3.6587  -3.6176  -3.6176
    -3.4894  -3.4894  -3.4179  -3.4179  -3.3582  -3.3582  -3.2110  -3.2110
    -2.9227  -2.9227  -2.8441  -2.8441  -0.2746  -0.2746  -0.1471  -0.1471
    -0.0786  -0.0786   0.1318   0.1318   0.5703   0.5703   0.6750   0.6750
     6.2835   6.2835   6.6257   6.6257   6.7279   6.7279   7.3223   7.3223
     7.5315   7.5315   7.6644   7.6644   8.0984   8.0984

          k =-0.5000 0.0000-0.1692 ( 51572 PWs)   bands (ev):

   -19.8061 -19.8061 -19.6903 -19.6903 -17.1596 -17.1596 -17.1053 -17.1053
   -15.7555 -15.7555 -15.6759 -15.6759 -11.7572 -11.7572 -11.5431 -11.5431
   -11.0609 -11.0609 -10.8831 -10.8831  -7.8611  -7.8611  -7.8036  -7.8036
    -7.3377  -7.3377  -7.1223  -7.1223  -6.3545  -6.3545  -5.8688  -5.8688
    -5.6114  -5.6114  -5.2912  -5.2912  -5.0765  -5.0765  -4.7427  -4.7427
    -4.1086  -4.1086  -3.9011  -3.9011  -3.8794  -3.8794  -3.6264  -3.6264
    -3.5210  -3.5209  -3.4620  -3.4620  -3.3786  -3.3786  -3.2943  -3.2943
    -2.9545  -2.9545  -2.7964  -2.7964  -0.2924  -0.2924  -0.1345  -0.1345
     0.0107   0.0107   0.0626   0.0626   0.6400   0.6400   0.7722   0.7722
     6.1401   6.1401   6.2798   6.2798   6.6071   6.6071   7.1208   7.1208
     7.3367   7.3367   8.0452   8.0452   8.2627   8.2627

          k =-0.5000 0.0000-0.6574 ( 51578 PWs)   bands (ev):

   -19.8246 -19.7864 -19.7143 -19.6664 -17.1598 -17.1512 -17.1490 -17.0736
   -15.8068 -15.7269 -15.6979 -15.6243 -11.8774 -11.5842 -11.5541 -11.5333
   -11.0955 -11.0852 -10.9646 -10.8102  -8.0142  -8.0017  -7.7021  -7.6575
    -7.4603  -7.3229  -6.9758  -6.9461  -6.4794  -6.2889  -5.8119  -5.7728
    -5.6219  -5.4522  -5.4516  -5.3020  -5.2433  -4.9575  -4.9471  -4.6688
    -4.3569  -4.2585  -3.9508  -3.8954  -3.7517  -3.6819  -3.6601  -3.6402
    -3.6255  -3.5366  -3.5293  -3.5217  -3.4747  -3.2669  -3.1746  -3.1166
    -3.0043  -2.8607  -2.7996  -2.7974  -0.3781  -0.1789  -0.0844  -0.0822
    -0.0680   0.0190   0.0588   0.0625   0.6394   0.6533   0.6595   0.8635
     5.9245   6.3161   6.3163   6.3185   6.5407   6.7310   6.7795   6.8765
     7.6352   7.6932   7.7016   7.9016   8.2532   8.3737

          k =-0.5000 0.4746-0.1692 ( 51636 PWs)   bands (ev):

   -19.7839 -19.7839 -19.7100 -19.7100 -17.1487 -17.1487 -17.1214 -17.1214
   -15.7389 -15.7389 -15.6963 -15.6963 -11.7096 -11.7096 -11.6000 -11.6000
   -11.0166 -11.0166 -10.8995 -10.8995  -7.9660  -7.9660  -7.7433  -7.7433
    -7.3042  -7.3042  -7.1359  -7.1359  -6.3838  -6.3838  -5.8259  -5.8259
    -5.6606  -5.6606  -5.4149  -5.4149  -5.0575  -5.0575  -4.7414  -4.7414
    -4.0595  -4.0595  -3.9450  -3.9450  -3.7367  -3.7367  -3.6351  -3.6351
    -3.5313  -3.5313  -3.3871  -3.3871  -3.3263  -3.3263  -3.2344  -3.2344
    -2.9287  -2.9287  -2.8491  -2.8491  -0.3036  -0.3036  -0.1237  -0.1237
    -0.0486  -0.0486   0.1445   0.1445   0.5048   0.5048   0.7182   0.7182
     6.2952   6.2952   6.6315   6.6315   6.7710   6.7710   7.4263   7.4263
     7.4869   7.4869   7.7444   7.7444   8.0902   8.0902

          k =-0.5000 0.4746-0.6574 ( 51688 PWs)   bands (ev):

   -19.8004 -19.7722 -19.7235 -19.6905 -17.1626 -17.1593 -17.1294 -17.0921
   -15.7919 -15.7512 -15.6786 -15.6421 -11.8030 -11.6693 -11.5788 -11.5248
   -11.1108 -11.0137 -10.8998 -10.8595  -8.1060  -8.0003  -7.7618  -7.7525
    -7.3531  -7.2891  -6.9863  -6.9239  -6.3836  -6.2154  -5.9504  -5.7505
    -5.6135  -5.5241  -5.4612  -5.4455  -5.2395  -5.1291  -4.9219  -4.6101
    -4.3193  -4.1876  -3.9597  -3.8833  -3.8687  -3.7966  -3.6547  -3.5644
    -3.5537  -3.4848  -3.4016  -3.3352  -3.3252  -3.2041  -3.1861  -3.1288
    -2.9151  -2.8886  -2.8524  -2.7936  -0.3522  -0.2573  -0.1371  -0.1044
    -0.0142  -0.0044   0.1308   0.1339   0.5072   0.6207   0.6331   0.6511
     6.2483   6.3842   6.5181   6.6102   6.6969   6.9239   7.2683   7.3527
     7.4876   7.6739   7.6973   7.7412   7.9100   8.0689

     highest occupied, lowest unoccupied level (ev):     0.8635    5.7753

!    total energy              =    -652.12186207 Ry
     Harris-Foulkes estimate   =    -652.12186207 Ry
     estimated scf accuracy    <          5.6E-09 Ry

     total all-electron energy =     -2431.068919 Ry

     The total energy is the sum of the following terms:

     one-electron contribution =    -333.95707304 Ry
     hartree contribution      =     220.94606889 Ry
     xc contribution           =    -146.38373860 Ry
     ewald contribution        =    -208.46544510 Ry
     Dispersion Correction     =      -0.25319124 Ry
     one-center paw contrib.   =    -184.00848297 Ry

     convergence has been achieved in  20 iterations

     Forces acting on atoms (cartesian axes, Ry/au):

     atom    1 type  4   force =     0.00146735   -0.00194484    0.00029629
     atom    2 type  4   force =    -0.00146735   -0.00194570   -0.00029590
     atom    3 type  4   force =    -0.00146735    0.00194484   -0.00029629
     atom    4 type  4   force =     0.00146735    0.00194570    0.00029590
     atom    5 type  2   force =     0.00168772   -0.00266703    0.00067478
     atom    6 type  2   force =    -0.00168754   -0.00266704   -0.00067462
     atom    7 type  2   force =    -0.00168772    0.00266703   -0.00067478
     atom    8 type  2   force =     0.00168754    0.00266704    0.00067462
     atom    9 type  2   force =     0.00092801   -0.00151558    0.00005213
     atom   10 type  2   force =    -0.00092749   -0.00151581   -0.00005241
     atom   11 type  2   force =    -0.00092801    0.00151558   -0.00005213
     atom   12 type  2   force =     0.00092749    0.00151581    0.00005241
     atom   13 type  1   force =    -0.00051007    0.00287297   -0.00194169
     atom   14 type  1   force =     0.00050995    0.00286491    0.00194175
     atom   15 type  1   force =     0.00051007   -0.00287297    0.00194169
     atom   16 type  1   force =    -0.00050995   -0.00286491   -0.00194175
     atom   17 type  1   force =     0.00239677   -0.00079875    0.00216789
     atom   18 type  1   force =    -0.00239669   -0.00080845   -0.00216828
     atom   19 type  1   force =    -0.00239677    0.00079875   -0.00216789
     atom   20 type  1   force =     0.00239669    0.00080845    0.00216828
     atom   21 type  1   force =    -0.00122326   -0.00274759   -0.00180685
     atom   22 type  1   force =     0.00122287   -0.00273458    0.00180698
     atom   23 type  1   force =     0.00122326    0.00274759    0.00180685
     atom   24 type  1   force =    -0.00122287    0.00273458   -0.00180698
     atom   25 type  3   force =    -0.00082988   -0.00002347   -0.00212336
     atom   26 type  3   force =     0.00082986   -0.00002362    0.00212334
     atom   27 type  3   force =     0.00082988    0.00002347    0.00212336
     atom   28 type  3   force =    -0.00082986    0.00002362   -0.00212334
     atom   29 type  3   force =    -0.00067892   -0.00014158    0.00041667
     atom   30 type  3   force =     0.00067896   -0.00014153   -0.00041666
     atom   31 type  3   force =     0.00067892    0.00014158   -0.00041667
     atom   32 type  3   force =    -0.00067896    0.00014153    0.00041666
     atom   33 type  3   force =     0.00001752    0.00123359    0.00107385
     atom   34 type  3   force =    -0.00001785    0.00123327   -0.00107381
     atom   35 type  3   force =    -0.00001752   -0.00123359   -0.00107385
     atom   36 type  3   force =     0.00001785   -0.00123327    0.00107381
     atom   37 type  3   force =    -0.00096151   -0.00128142    0.00084685
     atom   38 type  3   force =     0.00096169   -0.00128148   -0.00084696
     atom   39 type  3   force =     0.00096151    0.00128142   -0.00084685
     atom   40 type  3   force =    -0.00096169    0.00128148    0.00084696
     atom   41 type  3   force =    -0.00097219    0.00097345    0.00025140
     atom   42 type  3   force =     0.00097223    0.00097336   -0.00025131
     atom   43 type  3   force =     0.00097219   -0.00097345   -0.00025140
     atom   44 type  3   force =    -0.00097223   -0.00097336    0.00025131
     atom   45 type  3   force =    -0.00166825    0.00027156    0.00000665
     atom   46 type  3   force =     0.00166829    0.00027159   -0.00000665
     atom   47 type  3   force =     0.00166825   -0.00027156   -0.00000665
     atom   48 type  3   force =    -0.00166829   -0.00027159    0.00000665
     atom   49 type  3   force =    -0.00060248   -0.00016771    0.00052123
     atom   50 type  3   force =     0.00060249   -0.00016788   -0.00052118
     atom   51 type  3   force =     0.00060248    0.00016771   -0.00052123
     atom   52 type  3   force =    -0.00060249    0.00016788    0.00052118
     atom   53 type  3   force =    -0.00210179    0.00321067    0.00080525
     atom   54 type  3   force =     0.00210191    0.00321116   -0.00080532
     atom   55 type  3   force =     0.00210179   -0.00321067   -0.00080525
     atom   56 type  3   force =    -0.00210191   -0.00321116    0.00080532

     Total force =     0.018750     Total SCF correction =     0.000126


     Computing stress (Cartesian axis) and pressure

          total   stress  (Ry/bohr**3)                   (kbar)     P=   -9.96
  -0.00007003   0.00000000   0.00000599        -10.30      0.00      0.88
   0.00000000  -0.00005658  -0.00000000          0.00     -8.32     -0.00
   0.00000599  -0.00000000  -0.00007645          0.88     -0.00    -11.25


     Writing output data file scf.save
 
     init_run     :     11.85s CPU     12.13s WALL (       1 calls)
     electrons    :    324.02s CPU    331.83s WALL (       1 calls)
     forces       :      6.45s CPU      6.49s WALL (       1 calls)
     stress       :     16.06s CPU     16.08s WALL (       1 calls)

     Called by init_run:
     wfcinit      :      6.77s CPU      6.99s WALL (       1 calls)
     potinit      :      1.85s CPU      1.86s WALL (       1 calls)

     Called by electrons:
     c_bands      :    278.28s CPU    285.26s WALL (      20 calls)
     sum_band     :     36.81s CPU     37.42s WALL (      20 calls)
     v_of_rho     :      1.30s CPU      1.42s WALL (      21 calls)
     newd         :      2.56s CPU      2.60s WALL (      21 calls)
     PAW_pot      :      4.57s CPU      4.58s WALL (      21 calls)
     mix_rho      :      0.31s CPU      0.33s WALL (      20 calls)

     Called by c_bands:
     init_us_2    :      2.57s CPU      2.59s WALL (     344 calls)
     cegterg      :    269.45s CPU    276.31s WALL (     160 calls)

     Called by sum_band:
     sum_band:bec :      0.03s CPU      0.03s WALL (     160 calls)
     addusdens    :      2.50s CPU      2.54s WALL (      20 calls)

     Called by *egterg:
     h_psi        :    174.77s CPU    179.10s WALL (     665 calls)
     s_psi        :     23.90s CPU     23.91s WALL (     665 calls)
     g_psi        :      0.96s CPU      0.96s WALL (     497 calls)
     cdiaghg      :     11.61s CPU     11.62s WALL (     657 calls)

     Called by h_psi:
     h_psi:pot    :    173.74s CPU    178.03s WALL (     665 calls)
     h_psi:calbec :     24.36s CPU     24.49s WALL (     665 calls)
     vloc_psi     :    125.53s CPU    129.69s WALL (     665 calls)
     add_vuspsi   :     23.84s CPU     23.85s WALL (     665 calls)

     General routines
     calbec       :     36.98s CPU     37.14s WALL (     865 calls)
     fft          :      1.36s CPU      1.53s WALL (     297 calls)
     fftw         :    136.85s CPU    141.25s WALL (   89358 calls)
 
     Parallel routines
     fft_scatter  :     39.86s CPU     42.56s WALL (   89655 calls)
 
     PWSCF        :  6m 1.42s CPU     6m11.05s WALL

 
   This run was terminated on:  16:46:20   7Dec2017            

=------------------------------------------------------------------------------=
   JOB DONE.
=------------------------------------------------------------------------------=
