
     Program PWSCF v.6.1 (svn rev. 13369) starts on  7Dec2017 at 17:39:19 

     This program is part of the open-source Quantum ESPRESSO suite
     for quantum simulation of materials; please cite
         "P. Giannozzi et al., J. Phys.:Condens. Matter 21 395502 (2009);
          URL http://www.quantum-espresso.org", 
     in publications or presentations arising from this work. More details at
     http://www.quantum-espresso.org/quote

     Parallel version (MPI), running on     8 processors
     R & G space division:  proc/nbgrp/npool/nimage =       8
     Waiting for input...
     Reading input from standard input

     Current dimensions of program PWSCF are:
     Max number of different atomic species (ntypx) = 10
     Max number of k-points (npk) =  40000
     Max angular momentum in pseudopotentials (lmaxx) =  3
               file C.pbe-n-kjpaw_psl.0.1.UPF: wavefunction(s)  2P renormalized
               file N.pbe-n-kjpaw_psl.0.1.UPF: wavefunction(s)  2P renormalized
               file H.pbe-kjpaw_psl.0.1.UPF: wavefunction(s)  1S renormalized
               file O.pbe-n-kjpaw_psl.0.1.UPF: wavefunction(s)  2P renormalized

     -------------------------------------
     Parameters for Dispersion Correction:
     -------------------------------------
       atom      VdW radius       C_6     

        C          2.744         60.710
        N          2.640         42.670
        H          1.892          4.857
        O          2.536         24.284

     Subspace diagonalization in iterative solution of the eigenvalue problem:
     a serial algorithm will be used

 
     Parallelization info
     --------------------
     sticks:   dense  smooth     PW     G-vecs:    dense   smooth      PW
     Min         763     763    205                72249    72249   10085
     Max         764     764    207                72250    72250   10087
     Sum        6107    6107   1643               577995   577995   80687
 


     bravais-lattice index     =            0
     lattice parameter (alat)  =      10.3750  a.u.
     unit-cell volume          =    4279.0352 (a.u.)^3
     number of atoms/cell      =           60
     number of atomic types    =            4
     number of electrons       =       256.00
     number of Kohn-Sham states=          153
     kinetic-energy cutoff     =     100.0000  Ry
     charge density cutoff     =     400.0000  Ry
     convergence threshold     =      1.0E-08
     mixing beta               =       0.5000
     number of iterations used =            8  plain     mixing
     Exchange-correlation      =  SLA  PW   PBX  PBC ( 1  4  3  4 0 0)

     celldm(1)=  10.374974  celldm(2)=   0.000000  celldm(3)=   0.000000
     celldm(4)=   0.000000  celldm(5)=   0.000000  celldm(6)=   0.000000

     crystal axes: (cart. coord. in units of alat)
               a(1) = (   1.000000   0.000000   0.000000 )  
               a(2) = (   0.000000   1.784234   0.000000 )  
               a(3) = (   0.000000   0.000000   2.147499 )  

     reciprocal axes: (cart. coord. in units 2 pi/alat)
               b(1) = (  1.000000  0.000000  0.000000 )  
               b(2) = (  0.000000  0.560465  0.000000 )  
               b(3) = (  0.000000  0.000000  0.465658 )  


     PseudoPot. # 1 for  C read from file:
     /scratch/ahofstet/pseudo/C.pbe-n-kjpaw_psl.0.1.UPF
     MD5 check sum: 430fe95172b1e11ef3f8ed03bac87931
     Pseudo is Projector augmented-wave + core cor, Zval =  4.0
     Generated using "atomic" code by A. Dal Corso  v.5.0.99 svn rev. 10869
     Shape of augmentation charge: BESSEL
     Using radial grid of 1073 points,  4 beta functions with: 
                l(1) =   0
                l(2) =   0
                l(3) =   1
                l(4) =   1
     Q(r) pseudized with 0 coefficients 


     PseudoPot. # 2 for  N read from file:
     /scratch/ahofstet/pseudo/N.pbe-n-kjpaw_psl.0.1.UPF
     MD5 check sum: f73187c8b701007e77325f868c9291d7
     Pseudo is Projector augmented-wave + core cor, Zval =  5.0
     Generated using "atomic" code by A. Dal Corso  v.5.0.99 svn rev. 10869
     Shape of augmentation charge: PSQ
     Using radial grid of 1085 points,  4 beta functions with: 
                l(1) =   0
                l(2) =   0
                l(3) =   1
                l(4) =   1
     Q(r) pseudized with 0 coefficients 


     PseudoPot. # 3 for  H read from file:
     /scratch/ahofstet/pseudo/H.pbe-kjpaw_psl.0.1.UPF
     MD5 check sum: 94e484f906d9e9773b2f6e52662335b2
     Pseudo is Projector augmented-wave, Zval =  1.0
     Generated using "atomic" code by A. Dal Corso  v.5.0.99 svn rev. 10869
     Shape of augmentation charge: PSQ
     Using radial grid of  929 points,  2 beta functions with: 
                l(1) =   0
                l(2) =   0
     Q(r) pseudized with 0 coefficients 


     PseudoPot. # 4 for  O read from file:
     /scratch/ahofstet/pseudo/O.pbe-n-kjpaw_psl.0.1.UPF
     MD5 check sum: 3f94a2996a3169367d6eb21d9b593f20
     Pseudo is Projector augmented-wave + core cor, Zval =  6.0
     Generated using "atomic" code by A. Dal Corso  v.5.0.99 svn rev. 10869
     Shape of augmentation charge: BESSEL
     Using radial grid of 1095 points,  4 beta functions with: 
                l(1) =   0
                l(2) =   0
                l(3) =   1
                l(4) =   1
     Q(r) pseudized with 0 coefficients 


     atomic species   valence    mass     pseudopotential
        C              4.00    12.01070      C( 1.00)
        N              5.00    14.00670      N( 1.00)
        H              1.00     1.00794      H( 1.00)
        O              6.00    15.99940      O( 1.00)

      4 Sym. Ops. (no inversion) found ( 3 have fractional translation)



   Cartesian axes

     site n.     atom                  positions (alat units)
         1           C   tau(   1) = (   0.1434392   0.8963571   1.1341661  )
         2           C   tau(   2) = (   0.3565608   0.8878766   0.0604165  )
         3           C   tau(   3) = (   0.6434392  -0.0042403   1.0133331  )
         4           C   tau(   4) = (   0.8565608   1.7884740   2.0870827  )
         5           C   tau(   5) = (   0.9385916   0.8709830   1.2815858  )
         6           C   tau(   6) = (   0.5614084   0.9132507   0.2078362  )
         7           C   tau(   7) = (   0.4385916   0.0211339   0.8659134  )
         8           C   tau(   8) = (   0.0614084   1.7630999   1.9396630  )
         9           H   tau(   9) = (   0.8227401   0.7129582   1.3058585  )
        10           H   tau(  10) = (   0.6772599   1.0712755   0.2321089  )
        11           H   tau(  11) = (   0.3227401   0.1791587   0.8416406  )
        12           H   tau(  12) = (   0.1772599   1.6050751   1.9153902  )
        13           C   tau(  13) = (   0.9213946   1.0981310   1.3909835  )
        14           C   tau(  14) = (   0.5786054   0.6861027   0.3172339  )
        15           C   tau(  15) = (   0.4213946   1.5782195   0.7565157  )
        16           C   tau(  16) = (   0.0786054   0.2060142   1.8302653  )
        17           N   tau(  17) = (   0.2478933   1.1200105   1.1469761  )
        18           N   tau(  18) = (   0.2521067   0.6642232   0.0732265  )
        19           N   tau(  19) = (   0.7478933   1.5563400   1.0005231  )
        20           N   tau(  20) = (   0.7521067   0.2278937   2.0742727  )
        21           N   tau(  21) = (   0.1116571   1.2393098   1.3070378  )
        22           N   tau(  22) = (   0.3883429   0.5449239   0.2332882  )
        23           N   tau(  23) = (   0.6116571   1.4370408   0.8404614  )
        24           N   tau(  24) = (   0.8883429   0.3471930   1.9142110  )
        25           N   tau(  25) = (   0.1777860   1.4641960   1.3916485  )
        26           N   tau(  26) = (   0.3222140   0.3200377   0.3178989  )
        27           N   tau(  27) = (   0.6777860   1.2121546   0.7558507  )
        28           N   tau(  28) = (   0.8222140   0.5720792   1.8296003  )
        29           H   tau(  29) = (   0.3467327   1.5044153   1.3252055  )
        30           H   tau(  30) = (   0.1532673   0.2798184   0.2514559  )
        31           H   tau(  31) = (   0.8467327   1.1719353   0.8222937  )
        32           H   tau(  32) = (   0.6532673   0.6122984   1.8960433  )
        33           H   tau(  33) = (   0.0505189   1.5948509   1.3455048  )
        34           H   tau(  34) = (   0.4494811   0.1893828   0.2717552  )
        35           H   tau(  35) = (   0.5505189   1.0814997   0.8019944  )
        36           H   tau(  36) = (   0.9494811   0.7027341   1.8757440  )
        37           N   tau(  37) = (   0.7395366   1.1830045   1.5592129  )
        38           N   tau(  38) = (   0.7604634   0.6012292   0.4854633  )
        39           N   tau(  39) = (   0.2395366   1.4933461   0.5882863  )
        40           N   tau(  40) = (   0.2604634   0.2908876   1.6620358  )
        41           N   tau(  41) = (   0.2462813   0.7120418   0.9813879  )
        42           N   tau(  42) = (   0.2537187   1.0721919   2.0551375  )
        43           N   tau(  43) = (   0.7462813   0.1800750   1.1661113  )
        44           N   tau(  44) = (   0.7537187   1.6041587   0.0923617  )
        45           O   tau(  45) = (   0.7280582   1.4042026   1.6001015  )
        46           O   tau(  46) = (   0.7719418   0.3800311   0.5263520  )
        47           O   tau(  47) = (   0.2280582   1.2721480   0.5473976  )
        48           O   tau(  48) = (   0.2719418   0.5120858   1.6211472  )
        49           O   tau(  49) = (   0.6049260   1.0255753   1.6473493  )
        50           O   tau(  50) = (   0.8950740   0.7586584   0.5735997  )
        51           O   tau(  51) = (   0.1049260   1.6507753   0.5001499  )
        52           O   tau(  52) = (   0.3950740   0.1334584   1.5738995  )
        53           O   tau(  53) = (   0.1485357   0.5106487   0.9849740  )
        54           O   tau(  54) = (   0.3514643   1.2735850   2.0587236  )
        55           O   tau(  55) = (   0.6485357   0.3814682   1.1625252  )
        56           O   tau(  56) = (   0.8514643   1.4027656   0.0887756  )
        57           O   tau(  57) = (   0.4263128   0.7656908   0.8536952  )
        58           O   tau(  58) = (   0.0736872   1.0185429   1.9274448  )
        59           O   tau(  59) = (   0.9263128   0.1264260   1.2938040  )
        60           O   tau(  60) = (   0.5736872   1.6578077   0.2200544  )

     number of k points=    12
                       cart. coord. in units 2pi/alat
        k(    1) = (   0.0000000   0.0000000   0.0000000), wk =   0.1250000
        k(    2) = (   0.0000000   0.0000000  -0.2328290), wk =   0.1250000
        k(    3) = (   0.0000000  -0.2802323   0.0000000), wk =   0.1250000
        k(    4) = (   0.0000000  -0.2802323  -0.2328290), wk =   0.1250000
        k(    5) = (   0.2500000   0.0000000   0.0000000), wk =   0.2500000
        k(    6) = (   0.2500000   0.0000000  -0.2328290), wk =   0.2500000
        k(    7) = (   0.2500000  -0.2802323   0.0000000), wk =   0.2500000
        k(    8) = (   0.2500000  -0.2802323  -0.2328290), wk =   0.2500000
        k(    9) = (  -0.5000000   0.0000000   0.0000000), wk =   0.1250000
        k(   10) = (  -0.5000000   0.0000000  -0.2328290), wk =   0.1250000
        k(   11) = (  -0.5000000  -0.2802323   0.0000000), wk =   0.1250000
        k(   12) = (  -0.5000000  -0.2802323  -0.2328290), wk =   0.1250000

     Dense  grid:   577995 G-vectors     FFT dimensions: (  72, 120, 144)

     Estimated max dynamical RAM per process >     554.34MB

     Estimated total allocated dynamical RAM >    4434.75MB

     Check: negative/imaginary core charge=   -0.000002    0.000000

     Initial potential from superposition of free atoms

     starting charge  255.99922, renormalised to  256.00000
     Starting wfc are  204 randomized atomic wfcs
     Checking if some PAW data can be deallocated... 

     total cpu time spent up to now is       31.8 secs

     per-process dynamical memory:   412.9 Mb

     Self-consistent Calculation

     iteration #  1     ecut=   100.00 Ry     beta=0.50
     Davidson diagonalization with overlap
     ethr =  1.00E-02,  avg # of iterations =  3.0

     total cpu time spent up to now is      129.9 secs

     total energy              =   -1462.73295663 Ry
     Harris-Foulkes estimate   =   -1466.34037770 Ry
     estimated scf accuracy    <       6.38237721 Ry

     iteration #  2     ecut=   100.00 Ry     beta=0.50
     Davidson diagonalization with overlap
     ethr =  2.49E-03,  avg # of iterations =  3.0

     total cpu time spent up to now is      205.9 secs

     total energy              =   -1463.96621202 Ry
     Harris-Foulkes estimate   =   -1464.95678848 Ry
     estimated scf accuracy    <       2.18130509 Ry

     iteration #  3     ecut=   100.00 Ry     beta=0.50
     Davidson diagonalization with overlap
     ethr =  8.52E-04,  avg # of iterations =  3.0

     total cpu time spent up to now is      266.0 secs

     total energy              =   -1464.35238545 Ry
     Harris-Foulkes estimate   =   -1464.43518331 Ry
     estimated scf accuracy    <       0.20621375 Ry

     iteration #  4     ecut=   100.00 Ry     beta=0.50
     Davidson diagonalization with overlap
     ethr =  8.06E-05,  avg # of iterations =  6.9

     total cpu time spent up to now is      374.0 secs

     total energy              =   -1464.40057555 Ry
     Harris-Foulkes estimate   =   -1464.46493211 Ry
     estimated scf accuracy    <       0.18054786 Ry

     iteration #  5     ecut=   100.00 Ry     beta=0.50
     Davidson diagonalization with overlap
     ethr =  7.05E-05,  avg # of iterations =  2.1

     total cpu time spent up to now is      429.0 secs

     total energy              =   -1464.42594652 Ry
     Harris-Foulkes estimate   =   -1464.43431239 Ry
     estimated scf accuracy    <       0.02381093 Ry

     iteration #  6     ecut=   100.00 Ry     beta=0.50
     Davidson diagonalization with overlap
     ethr =  9.30E-06,  avg # of iterations =  7.0

     total cpu time spent up to now is      509.3 secs

     total energy              =   -1464.43182009 Ry
     Harris-Foulkes estimate   =   -1464.43284886 Ry
     estimated scf accuracy    <       0.00334221 Ry

     iteration #  7     ecut=   100.00 Ry     beta=0.50
     Davidson diagonalization with overlap
     ethr =  1.31E-06,  avg # of iterations =  4.1

     total cpu time spent up to now is      574.8 secs

     total energy              =   -1464.43234071 Ry
     Harris-Foulkes estimate   =   -1464.43256661 Ry
     estimated scf accuracy    <       0.00061715 Ry

     iteration #  8     ecut=   100.00 Ry     beta=0.50
     Davidson diagonalization with overlap
     ethr =  2.41E-07,  avg # of iterations =  3.0

     total cpu time spent up to now is      643.0 secs

     total energy              =   -1464.43246231 Ry
     Harris-Foulkes estimate   =   -1464.43254046 Ry
     estimated scf accuracy    <       0.00021731 Ry

     iteration #  9     ecut=   100.00 Ry     beta=0.50
     Davidson diagonalization with overlap
     ethr =  8.49E-08,  avg # of iterations =  2.0

     total cpu time spent up to now is      700.2 secs

     total energy              =   -1464.43250332 Ry
     Harris-Foulkes estimate   =   -1464.43251201 Ry
     estimated scf accuracy    <       0.00002768 Ry

     iteration # 10     ecut=   100.00 Ry     beta=0.50
     Davidson diagonalization with overlap
     ethr =  1.08E-08,  avg # of iterations =  3.0

     total cpu time spent up to now is      775.8 secs

     total energy              =   -1464.43250959 Ry
     Harris-Foulkes estimate   =   -1464.43251291 Ry
     estimated scf accuracy    <       0.00000981 Ry

     iteration # 11     ecut=   100.00 Ry     beta=0.50
     Davidson diagonalization with overlap
     ethr =  3.83E-09,  avg # of iterations =  2.0

     total cpu time spent up to now is      828.7 secs

     total energy              =   -1464.43251069 Ry
     Harris-Foulkes estimate   =   -1464.43251093 Ry
     estimated scf accuracy    <       0.00000075 Ry

     iteration # 12     ecut=   100.00 Ry     beta=0.50
     Davidson diagonalization with overlap
     ethr =  2.92E-10,  avg # of iterations =  4.0

     total cpu time spent up to now is      933.8 secs

     total energy              =   -1464.43251126 Ry
     Harris-Foulkes estimate   =   -1464.43251135 Ry
     estimated scf accuracy    <       0.00000032 Ry

     iteration # 13     ecut=   100.00 Ry     beta=0.50
     Davidson diagonalization with overlap
     ethr =  1.24E-10,  avg # of iterations =  1.0

     total cpu time spent up to now is      984.4 secs

     total energy              =   -1464.43251125 Ry
     Harris-Foulkes estimate   =   -1464.43251128 Ry
     estimated scf accuracy    <       0.00000007 Ry

     iteration # 14     ecut=   100.00 Ry     beta=0.50
     Davidson diagonalization with overlap
     ethr =  2.69E-11,  avg # of iterations =  3.0

     total cpu time spent up to now is     1072.6 secs

     total energy              =   -1464.43251128 Ry
     Harris-Foulkes estimate   =   -1464.43251129 Ry
     estimated scf accuracy    <       0.00000003 Ry

     iteration # 15     ecut=   100.00 Ry     beta=0.50
     Davidson diagonalization with overlap
     ethr =  1.31E-11,  avg # of iterations =  1.0

     total cpu time spent up to now is     1123.5 secs

     End of self-consistent calculation

          k = 0.0000 0.0000 0.0000 ( 72317 PWs)   bands (ev):

   -23.6382 -23.6245 -23.6240 -23.6226 -23.5182 -23.5066 -23.4693 -23.4655
   -20.9839 -20.9822 -20.9243 -20.9231 -19.1892 -19.1864 -19.1748 -19.1730
   -19.0420 -19.0401 -19.0380 -19.0361 -16.6676 -16.6653 -16.5976 -16.5975
   -14.1979 -14.1849 -14.1708 -14.1578 -13.1942 -13.1731 -13.1482 -13.1473
   -11.1292 -11.1023 -11.0837 -11.0460 -10.7417 -10.7255 -10.5508 -10.5370
    -8.4636  -8.4588  -8.4332  -8.4252  -7.5539  -7.5490  -7.2380  -7.1836
    -6.7804  -6.7676  -6.7533  -6.6967  -6.6111  -6.4819  -6.2620  -6.2055
    -6.1842  -6.1652  -6.1017  -6.0780  -5.9932  -5.9793  -5.9275  -5.8486
    -5.6384  -5.6180  -5.5941  -5.5750  -5.4782  -5.4302  -5.3297  -5.2894
    -5.2309  -5.1811  -5.1102  -5.0840  -4.6815  -4.6663  -4.5672  -4.5664
    -4.1363  -4.1291  -4.0592  -4.0416  -3.6967  -3.6644  -3.5798  -3.5173
    -1.3462  -1.2572  -1.2196  -1.0870  -0.9685  -0.9333  -0.9157  -0.7139
    -0.6350  -0.5817  -0.4897  -0.4054  -0.3858  -0.3566  -0.3184  -0.3133
    -0.2295  -0.1789  -0.1694  -0.0236   0.0110   0.0623   0.0663   0.0766
     0.1655   0.1902   0.2488   0.3805   0.4479   0.4537   0.5160   0.5208
     0.5267   0.5357   0.5684   0.5914   1.1975   1.3117   1.3415   1.4424
     3.7523   3.7654   3.8664   3.9421   3.9934   4.0583   4.1083   4.1279
     6.6524   6.6833   6.7376   6.9215   7.6289   7.7314   7.8005   7.8458
     7.9441   8.2348   8.3945   8.6562   8.9706   9.0955   9.1372   9.1447
     9.4630

          k = 0.0000 0.0000-0.2328 ( 72330 PWs)   bands (ev):

   -23.6320 -23.6320 -23.6230 -23.6230 -23.5121 -23.5121 -23.4674 -23.4674
   -20.9831 -20.9831 -20.9237 -20.9237 -19.1880 -19.1880 -19.1737 -19.1737
   -19.0411 -19.0411 -19.0370 -19.0370 -16.6665 -16.6665 -16.5975 -16.5975
   -14.1914 -14.1914 -14.1644 -14.1644 -13.1845 -13.1845 -13.1468 -13.1468
   -11.1208 -11.1208 -11.0595 -11.0595 -10.7341 -10.7341 -10.5436 -10.5436
    -8.4612  -8.4612  -8.4293  -8.4293  -7.5511  -7.5511  -7.2096  -7.2096
    -6.7721  -6.7721  -6.7386  -6.7386  -6.5426  -6.5426  -6.2454  -6.2454
    -6.1803  -6.1803  -6.0605  -6.0605  -5.9786  -5.9786  -5.8881  -5.8881
    -5.6799  -5.6799  -5.5518  -5.5518  -5.4349  -5.4349  -5.3171  -5.3171
    -5.2368  -5.2368  -5.0675  -5.0675  -4.6733  -4.6733  -4.5728  -4.5728
    -4.1336  -4.1336  -4.0490  -4.0490  -3.6855  -3.6855  -3.5438  -3.5438
    -1.2705  -1.2705  -1.2229  -1.2229  -0.9377  -0.9377  -0.7451  -0.7451
    -0.6583  -0.6583  -0.4662  -0.4662  -0.4122  -0.4122  -0.2724  -0.2724
    -0.2016  -0.2016  -0.1064  -0.1064   0.0435   0.0435   0.1271   0.1271
     0.1871   0.1871   0.2651   0.2651   0.4569   0.4569   0.5072   0.5072
     0.5459   0.5459   0.5802   0.5802   1.2290   1.2290   1.4154   1.4154
     3.7262   3.7262   3.9406   3.9406   4.0429   4.0429   4.0940   4.0940
     6.6974   6.6974   6.7976   6.7976   7.7547   7.7547   7.8504   7.8504
     7.9643   7.9643   8.5281   8.5281   9.0144   9.0145   9.1481   9.1482
     9.2537

          k = 0.0000-0.2802 0.0000 ( 72214 PWs)   bands (ev):

   -23.6318 -23.6318 -23.6228 -23.6228 -23.5126 -23.5126 -23.4673 -23.4673
   -20.9828 -20.9828 -20.9239 -20.9239 -19.1820 -19.1820 -19.1795 -19.1795
   -19.0419 -19.0419 -19.0363 -19.0363 -16.6653 -16.6653 -16.5990 -16.5990
   -14.1958 -14.1958 -14.1603 -14.1603 -13.1744 -13.1744 -13.1576 -13.1576
   -11.0943 -11.0943 -11.0757 -11.0757 -10.6845 -10.6845 -10.6040 -10.6040
    -8.5292  -8.5292  -8.3654  -8.3654  -7.6316  -7.6316  -7.0705  -7.0705
    -6.8032  -6.8032  -6.7165  -6.7165  -6.5420  -6.5420  -6.2311  -6.2311
    -6.1528  -6.1528  -6.0681  -6.0681  -5.9144  -5.9144  -5.8268  -5.8268
    -5.7512  -5.7512  -5.7231  -5.7231  -5.4296  -5.4296  -5.4160  -5.4160
    -5.2348  -5.2348  -5.0338  -5.0338  -4.6582  -4.6582  -4.5424  -4.5424
    -4.0617  -4.0617  -3.9452  -3.9452  -3.7851  -3.7851  -3.5617  -3.5617
    -1.2673  -1.2673  -1.1960  -1.1960  -0.9192  -0.9192  -0.7523  -0.7523
    -0.6737  -0.6737  -0.4619  -0.4619  -0.3712  -0.3712  -0.2871  -0.2871
    -0.2391  -0.2391  -0.1225  -0.1225   0.0078   0.0078   0.0508   0.0508
     0.2206   0.2206   0.3013   0.3013   0.3691   0.3691   0.5287   0.5287
     0.5322   0.5322   0.6034   0.6034   1.3480   1.3480   1.4042   1.4042
     3.7897   3.7897   3.8542   3.8542   4.0098   4.0098   4.1285   4.1285
     6.6544   6.6544   6.8628   6.8628   7.7023   7.7023   7.8561   7.8561
     7.9448   7.9448   8.5550   8.5550   8.8786   8.8786   9.2352   9.2352
     9.3942

          k = 0.0000-0.2802-0.2328 ( 72268 PWs)   bands (ev):

   -23.6291 -23.6291 -23.6258 -23.6258 -23.5121 -23.5121 -23.4675 -23.4675
   -20.9828 -20.9828 -20.9239 -20.9239 -19.1824 -19.1824 -19.1791 -19.1791
   -19.0417 -19.0417 -19.0365 -19.0365 -16.6653 -16.6653 -16.5990 -16.5990
   -14.1946 -14.1946 -14.1615 -14.1615 -13.1724 -13.1724 -13.1596 -13.1596
   -11.0922 -11.0922 -11.0780 -11.0780 -10.6844 -10.6844 -10.6038 -10.6038
    -8.5298  -8.5298  -8.3647  -8.3647  -7.6324  -7.6324  -7.0737  -7.0737
    -6.7656  -6.7656  -6.7390  -6.7390  -6.5597  -6.5597  -6.2639  -6.2639
    -6.1007  -6.1007  -6.0688  -6.0688  -5.8802  -5.8802  -5.8711  -5.8711
    -5.7398  -5.7398  -5.7377  -5.7377  -5.4358  -5.4358  -5.4294  -5.4294
    -5.1936  -5.1936  -5.0525  -5.0525  -4.6563  -4.6563  -4.5483  -4.5483
    -4.0528  -4.0528  -3.9509  -3.9509  -3.7883  -3.7883  -3.5596  -3.5596
    -1.2419  -1.2419  -1.2260  -1.2260  -0.9081  -0.9081  -0.7807  -0.7807
    -0.6494  -0.6494  -0.4381  -0.4381  -0.4179  -0.4179  -0.2725  -0.2725
    -0.2430  -0.2430  -0.1539  -0.1539   0.0740   0.0740   0.0903   0.0903
     0.2172   0.2172   0.2212   0.2212   0.3926   0.3926   0.5136   0.5136
     0.5419   0.5419   0.6037   0.6037   1.3544   1.3544   1.3998   1.3998
     3.7584   3.7584   3.8806   3.8806   4.0238   4.0238   4.1158   4.1158
     6.7215   6.7215   6.7891   6.7891   7.7084   7.7084   7.8989   7.8989
     8.0160   8.0160   8.3897   8.3897   8.8079   8.8079   9.3153   9.3153
     9.4253

          k = 0.2500 0.0000 0.0000 ( 72263 PWs)   bands (ev):

   -23.6296 -23.6220 -23.6192 -23.6191 -23.5129 -23.5051 -23.4781 -23.4752
   -20.9787 -20.9766 -20.9366 -20.9349 -19.1860 -19.1854 -19.1766 -19.1737
   -19.0425 -19.0393 -19.0391 -19.0368 -16.6593 -16.6565 -16.6101 -16.6081
   -14.1943 -14.1780 -14.1726 -14.1621 -13.1909 -13.1712 -13.1602 -13.1524
   -11.1198 -11.0945 -11.0704 -11.0559 -10.7148 -10.6994 -10.5800 -10.5633
    -8.4692  -8.4646  -8.4331  -8.4287  -7.5139  -7.4819  -7.2565  -7.2320
    -6.8602  -6.8425  -6.7356  -6.6491  -6.5948  -6.4058  -6.3873  -6.3726
    -6.3450  -6.2203  -6.0888  -6.0793  -5.9633  -5.9606  -5.8895  -5.7644
    -5.6910  -5.5605  -5.5575  -5.5040  -5.4847  -5.3712  -5.3550  -5.2902
    -5.2438  -5.1225  -5.1148  -5.0814  -4.6317  -4.6082  -4.5492  -4.5011
    -4.1231  -4.1075  -4.0319  -4.0284  -3.6927  -3.6408  -3.5917  -3.5379
    -1.3111  -1.3028  -1.2412  -1.1084  -1.0077  -0.9469  -0.8846  -0.6605
    -0.6150  -0.5316  -0.4792  -0.3885  -0.3697  -0.3516  -0.3191  -0.2305
    -0.2055  -0.1882  -0.1684  -0.0271   0.0119   0.0144   0.0367   0.0926
     0.1484   0.1637   0.2044   0.3064   0.4719   0.4794   0.4951   0.4989
     0.5246   0.5277   0.5820   0.5827   1.2413   1.3074   1.4008   1.4650
     3.7273   3.7720   3.8851   3.9754   3.9757   3.9906   4.0666   4.0975
     6.5795   6.6113   6.6519   6.7906   7.7980   7.8215   7.8548   7.8684
     8.0843   8.4064   8.4561   8.6508   8.9475   8.9756   9.1198   9.1770
     9.4224

          k = 0.2500 0.0000-0.2328 ( 72274 PWs)   bands (ev):

   -23.6255 -23.6255 -23.6196 -23.6196 -23.5089 -23.5089 -23.4766 -23.4766
   -20.9777 -20.9777 -20.9357 -20.9357 -19.1857 -19.1857 -19.1751 -19.1751
   -19.0410 -19.0410 -19.0378 -19.0378 -16.6579 -16.6579 -16.6091 -16.6091
   -14.1863 -14.1863 -14.1673 -14.1673 -13.1822 -13.1822 -13.1550 -13.1550
   -11.1081 -11.1081 -11.0622 -11.0622 -10.7075 -10.7075 -10.5711 -10.5711
    -8.4667  -8.4667  -8.4312  -8.4312  -7.4988  -7.4988  -7.2444  -7.2444
    -6.8578  -6.8578  -6.6790  -6.6790  -6.5230  -6.5230  -6.4047  -6.4047
    -6.2427  -6.2427  -6.0650  -6.0650  -5.9971  -5.9971  -5.8041  -5.8041
    -5.6353  -5.6353  -5.5563  -5.5563  -5.4217  -5.4217  -5.2936  -5.2936
    -5.2021  -5.2021  -5.0839  -5.0839  -4.6212  -4.6212  -4.5239  -4.5239
    -4.1117  -4.1117  -4.0339  -4.0339  -3.6740  -3.6740  -3.5579  -3.5579
    -1.2912  -1.2912  -1.2168  -1.2168  -0.9700  -0.9700  -0.7368  -0.7368
    -0.5906  -0.5906  -0.4589  -0.4589  -0.3758  -0.3758  -0.2531  -0.2531
    -0.1996  -0.1996  -0.1160  -0.1160   0.0269   0.0269   0.1206   0.1206
     0.1581   0.1581   0.2290   0.2290   0.4786   0.4786   0.4948   0.4948
     0.5222   0.5222   0.5815   0.5815   1.2661   1.2661   1.4403   1.4403
     3.7419   3.7419   3.9225   3.9225   4.0162   4.0162   4.0631   4.0631
     6.6162   6.6162   6.6997   6.6997   7.7892   7.7892   7.9204   7.9204
     8.1597   8.1597   8.5767   8.5767   8.9707   8.9707   9.2217   9.2220
     9.3484

          k = 0.2500-0.2802 0.0000 ( 72266 PWs)   bands (ev):

   -23.6253 -23.6253 -23.6195 -23.6195 -23.5092 -23.5092 -23.4766 -23.4766
   -20.9775 -20.9775 -20.9359 -20.9359 -19.1813 -19.1813 -19.1793 -19.1793
   -19.0415 -19.0415 -19.0372 -19.0372 -16.6575 -16.6575 -16.6105 -16.6105
   -14.1903 -14.1903 -14.1638 -14.1638 -13.1744 -13.1744 -13.1603 -13.1603
   -11.0933 -11.0933 -11.0707 -11.0707 -10.6732 -10.6732 -10.6154 -10.6154
    -8.5151  -8.5151  -8.4047  -8.4047  -7.5405  -7.5405  -7.1367  -7.1367
    -6.7947  -6.7947  -6.7629  -6.7629  -6.5531  -6.5531  -6.3444  -6.3444
    -6.1668  -6.1668  -6.0943  -6.0943  -5.9683  -5.9683  -5.9137  -5.9137
    -5.6062  -5.6062  -5.5401  -5.5401  -5.4444  -5.4444  -5.3819  -5.3819
    -5.2332  -5.2332  -5.0614  -5.0614  -4.6357  -4.6357  -4.5418  -4.5418
    -4.0216  -4.0216  -3.9358  -3.9358  -3.7473  -3.7473  -3.5837  -3.5837
    -1.2755  -1.2755  -1.1877  -1.1877  -0.9611  -0.9611  -0.7749  -0.7749
    -0.5855  -0.5855  -0.4462  -0.4462  -0.3620  -0.3620  -0.2667  -0.2667
    -0.2223  -0.2223  -0.1115  -0.1115  -0.0273  -0.0273   0.0789   0.0789
     0.1891   0.1891   0.2634   0.2634   0.3857   0.3857   0.5313   0.5313
     0.5464   0.5464   0.5870   0.5870   1.3570   1.3570   1.4018   1.4018
     3.7685   3.7685   3.8889   3.8889   3.9792   3.9792   4.0951   4.0951
     6.5845   6.5845   6.7392   6.7392   7.7732   7.7732   7.9131   7.9131
     8.1905   8.1905   8.5611   8.5611   8.9237   8.9237   9.1972   9.1972
     9.3697

          k = 0.2500-0.2802-0.2328 ( 72248 PWs)   bands (ev):

   -23.6233 -23.6233 -23.6217 -23.6217 -23.5089 -23.5089 -23.4767 -23.4767
   -20.9775 -20.9775 -20.9359 -20.9359 -19.1813 -19.1813 -19.1792 -19.1792
   -19.0413 -19.0413 -19.0375 -19.0375 -16.6575 -16.6575 -16.6105 -16.6105
   -14.1886 -14.1886 -14.1656 -14.1656 -13.1720 -13.1720 -13.1626 -13.1626
   -11.0878 -11.0878 -11.0763 -11.0763 -10.6727 -10.6727 -10.6157 -10.6157
    -8.5154  -8.5154  -8.4044  -8.4044  -7.5409  -7.5409  -7.1387  -7.1387
    -6.7860  -6.7860  -6.7591  -6.7591  -6.5581  -6.5581  -6.3753  -6.3753
    -6.1349  -6.1349  -6.0894  -6.0894  -5.9539  -5.9539  -5.9292  -5.9292
    -5.6188  -5.6188  -5.5813  -5.5813  -5.3897  -5.3897  -5.3858  -5.3858
    -5.2176  -5.2176  -5.0895  -5.0895  -4.6150  -4.6150  -4.5561  -4.5561
    -4.0191  -4.0191  -3.9388  -3.9388  -3.7492  -3.7492  -3.5823  -3.5823
    -1.2655  -1.2655  -1.2029  -1.2029  -0.9505  -0.9505  -0.7838  -0.7838
    -0.5755  -0.5755  -0.4291  -0.4291  -0.4077  -0.4077  -0.2655  -0.2655
    -0.1970  -0.1970  -0.1530  -0.1530   0.0574   0.0574   0.0706   0.0706
     0.1939   0.1939   0.2036   0.2036   0.4060   0.4060   0.5289   0.5289
     0.5499   0.5499   0.5809   0.5809   1.3668   1.3668   1.3930   1.3930
     3.7707   3.7707   3.8663   3.8663   4.0182   4.0182   4.0751   4.0751
     6.6362   6.6362   6.6827   6.6827   7.7894   7.7894   7.9183   7.9183
     8.2326   8.2326   8.4933   8.4933   8.8970   8.8970   9.1892   9.1893
     9.4624

          k =-0.5000 0.0000 0.0000 ( 72262 PWs)   bands (ev):

   -23.6180 -23.6180 -23.6167 -23.6167 -23.4968 -23.4968 -23.4952 -23.4952
   -20.9612 -20.9612 -20.9588 -20.9588 -19.1825 -19.1825 -19.1775 -19.1775
   -19.0415 -19.0415 -19.0380 -19.0380 -16.6365 -16.6365 -16.6335 -16.6335
   -14.1831 -14.1831 -14.1683 -14.1683 -13.1791 -13.1791 -13.1640 -13.1640
   -11.0975 -11.0975 -11.0620 -11.0620 -10.6488 -10.6488 -10.6320 -10.6320
    -8.4724  -8.4724  -8.4330  -8.4330  -7.3814  -7.3814  -7.3456  -7.3456
    -6.9042  -6.9042  -6.6477  -6.6477  -6.5345  -6.5345  -6.5143  -6.5143
    -6.2202  -6.2202  -6.1171  -6.1171  -5.9804  -5.9804  -5.8788  -5.8788
    -5.5789  -5.5789  -5.4807  -5.4807  -5.4393  -5.4393  -5.2910  -5.2910
    -5.1441  -5.1441  -5.0959  -5.0959  -4.5661  -4.5661  -4.4988  -4.4988
    -4.0845  -4.0845  -4.0073  -4.0073  -3.6447  -3.6447  -3.5955  -3.5955
    -1.3359  -1.3359  -1.2085  -1.2085  -0.9605  -0.9605  -0.7524  -0.7524
    -0.4625  -0.4625  -0.4297  -0.4297  -0.3546  -0.3546  -0.2974  -0.2974
    -0.1901  -0.1901  -0.0867  -0.0867  -0.0125  -0.0125   0.0711   0.0711
     0.1213   0.1213   0.2168   0.2168   0.4617   0.4617   0.4906   0.4906
     0.5560   0.5560   0.5660   0.5660   1.2928   1.2928   1.4716   1.4716
     3.7321   3.7321   3.9133   3.9133   3.9946   3.9946   4.0397   4.0397
     6.5423   6.5423   6.6152   6.6152   7.8480   7.8480   7.8974   7.8974
     8.3991   8.3991   8.6066   8.6066   9.1259   9.1259   9.1804   9.1805
     9.3836

          k =-0.5000 0.0000-0.2328 ( 72208 PWs)   bands (ev):

   -23.6177 -23.6177 -23.6170 -23.6170 -23.4961 -23.4961 -23.4958 -23.4958
   -20.9608 -20.9608 -20.9592 -20.9592 -19.1824 -19.1824 -19.1777 -19.1777
   -19.0407 -19.0407 -19.0387 -19.0387 -16.6359 -16.6359 -16.6342 -16.6342
   -14.1781 -14.1781 -14.1734 -14.1734 -13.1769 -13.1769 -13.1662 -13.1662
   -11.0893 -11.0893 -11.0708 -11.0708 -10.6469 -10.6469 -10.6333 -10.6333
    -8.4723  -8.4723  -8.4329  -8.4329  -7.3739  -7.3739  -7.3560  -7.3560
    -6.9057  -6.9057  -6.6549  -6.6549  -6.5095  -6.5095  -6.4843  -6.4843
    -6.3078  -6.3078  -6.0622  -6.0622  -5.9804  -5.9804  -5.9090  -5.9090
    -5.5278  -5.5278  -5.4718  -5.4718  -5.4614  -5.4614  -5.2923  -5.2923
    -5.1798  -5.1798  -5.0862  -5.0862  -4.5398  -4.5398  -4.5139  -4.5139
    -4.0803  -4.0803  -4.0137  -4.0137  -3.6481  -3.6481  -3.5925  -3.5925
    -1.2906  -1.2906  -1.2707  -1.2707  -0.9418  -0.9418  -0.7392  -0.7392
    -0.4566  -0.4566  -0.4544  -0.4544  -0.3422  -0.3422  -0.3107  -0.3107
    -0.1746  -0.1746  -0.1598  -0.1598   0.0599   0.0599   0.0817   0.0817
     0.1501   0.1501   0.1711   0.1711   0.4727   0.4727   0.4787   0.4787
     0.5557   0.5557   0.5638   0.5638   1.2953   1.2953   1.4679   1.4679
     3.7469   3.7469   3.9005   3.9005   4.0071   4.0071   4.0265   4.0265
     6.5453   6.5453   6.6097   6.6097   7.8087   7.8087   7.9675   7.9675
     8.3662   8.3662   8.5929   8.5929   9.1130   9.1130   9.2444   9.2451
     9.3850

          k =-0.5000-0.2802 0.0000 ( 72220 PWs)   bands (ev):

   -23.6177 -23.6177 -23.6170 -23.6170 -23.4966 -23.4966 -23.4954 -23.4954
   -20.9609 -20.9609 -20.9593 -20.9593 -19.1803 -19.1803 -19.1792 -19.1792
   -19.0407 -19.0407 -19.0384 -19.0384 -16.6373 -16.6373 -16.6345 -16.6345
   -14.1829 -14.1829 -14.1692 -14.1692 -13.1737 -13.1737 -13.1635 -13.1635
   -11.0914 -11.0914 -11.0659 -11.0659 -10.6518 -10.6518 -10.6378 -10.6378
    -8.4751  -8.4751  -8.4674  -8.4674  -7.3426  -7.3426  -7.3201  -7.3201
    -6.8094  -6.8094  -6.7775  -6.7775  -6.5159  -6.5159  -6.4986  -6.4986
    -6.1580  -6.1580  -6.1333  -6.1333  -5.9628  -5.9628  -5.9024  -5.9024
    -5.6034  -5.6034  -5.4875  -5.4875  -5.4179  -5.4179  -5.3044  -5.3044
    -5.1600  -5.1600  -5.1570  -5.1570  -4.6195  -4.6195  -4.5230  -4.5230
    -3.9575  -3.9575  -3.9515  -3.9515  -3.6654  -3.6654  -3.6510  -3.6510
    -1.2633  -1.2633  -1.2526  -1.2526  -0.8891  -0.8891  -0.8396  -0.8396
    -0.4592  -0.4592  -0.4194  -0.4194  -0.3430  -0.3430  -0.3327  -0.3327
    -0.1873  -0.1873  -0.1067  -0.1067  -0.0175  -0.0175   0.0678   0.0678
     0.1651   0.1651   0.1877   0.1877   0.4557   0.4557   0.4884   0.4884
     0.5658   0.5658   0.5802   0.5802   1.3595   1.3595   1.4058   1.4058
     3.7634   3.7634   3.8689   3.8689   3.9865   3.9865   4.0585   4.0585
     6.5623   6.5623   6.5955   6.5955   7.8653   7.8653   7.8719   7.8719
     8.4446   8.4446   8.5827   8.5827   9.1305   9.1306   9.2310   9.2310
     9.3260

          k =-0.5000-0.2802-0.2328 ( 72176 PWs)   bands (ev):

   -23.6173 -23.6173 -23.6173 -23.6173 -23.4960 -23.4960 -23.4960 -23.4960
   -20.9601 -20.9601 -20.9601 -20.9601 -19.1798 -19.1798 -19.1798 -19.1798
   -19.0396 -19.0396 -19.0396 -19.0396 -16.6359 -16.6359 -16.6359 -16.6359
   -14.1761 -14.1761 -14.1761 -14.1761 -13.1685 -13.1685 -13.1685 -13.1685
   -11.0788 -11.0788 -11.0788 -11.0788 -10.6447 -10.6447 -10.6447 -10.6447
    -8.4711  -8.4711  -8.4711  -8.4711  -7.3316  -7.3316  -7.3316  -7.3316
    -6.7984  -6.7984  -6.7984  -6.7984  -6.4913  -6.4913  -6.4913  -6.4913
    -6.1631  -6.1631  -6.1631  -6.1631  -5.9388  -5.9388  -5.9388  -5.9388
    -5.5212  -5.5212  -5.5212  -5.5212  -5.3717  -5.3717  -5.3717  -5.3717
    -5.1649  -5.1649  -5.1649  -5.1649  -4.5647  -4.5647  -4.5647  -4.5647
    -3.9556  -3.9556  -3.9556  -3.9556  -3.6583  -3.6583  -3.6583  -3.6583
    -1.2562  -1.2562  -1.2562  -1.2562  -0.8679  -0.8679  -0.8679  -0.8679
    -0.4288  -0.4288  -0.4288  -0.4288  -0.3456  -0.3456  -0.3456  -0.3456
    -0.1763  -0.1763  -0.1763  -0.1763   0.0803   0.0803   0.0803   0.0803
     0.1500   0.1500   0.1500   0.1500   0.4704   0.4704   0.4704   0.4704
     0.5742   0.5742   0.5742   0.5742   1.3823   1.3823   1.3823   1.3823
     3.8106   3.8106   3.8106   3.8106   4.0288   4.0288   4.0288   4.0288
     6.5761   6.5761   6.5761   6.5761   7.8814   7.8814   7.8814   7.8814
     8.4963   8.4963   8.4963   8.4963   9.1667   9.1668   9.1668   9.1668
     9.4483

     highest occupied, lowest unoccupied level (ev):     1.4716    3.7262

!    total energy              =   -1464.43251128 Ry
     Harris-Foulkes estimate   =   -1464.43251128 Ry
     estimated scf accuracy    <          5.8E-09 Ry

     total all-electron energy =     -5525.127977 Ry

     The total energy is the sum of the following terms:

     one-electron contribution =    -709.23784240 Ry
     hartree contribution      =     461.05547430 Ry
     xc contribution           =    -283.99913239 Ry
     ewald contribution        =    -534.20243477 Ry
     Dispersion Correction     =      -0.28061167 Ry
     one-center paw contrib.   =    -397.76796435 Ry

     convergence has been achieved in  15 iterations

     Forces acting on atoms (cartesian axes, Ry/au):

     atom    1 type  1   force =    -0.00128487    0.00139226    0.00424722
     atom    2 type  1   force =     0.00128487   -0.00139226    0.00424722
     atom    3 type  1   force =    -0.00128487   -0.00139226   -0.00424722
     atom    4 type  1   force =     0.00128487    0.00139226   -0.00424722
     atom    5 type  1   force =     0.00009073    0.00210206    0.00027557
     atom    6 type  1   force =    -0.00009073   -0.00210206    0.00027557
     atom    7 type  1   force =     0.00009073   -0.00210206   -0.00027557
     atom    8 type  1   force =    -0.00009073    0.00210206   -0.00027557
     atom    9 type  3   force =    -0.00076680    0.00021623    0.00033433
     atom   10 type  3   force =     0.00076680   -0.00021623    0.00033433
     atom   11 type  3   force =    -0.00076680   -0.00021623   -0.00033433
     atom   12 type  3   force =     0.00076680    0.00021623   -0.00033433
     atom   13 type  1   force =    -0.00243517   -0.00069511    0.00168274
     atom   14 type  1   force =     0.00243517    0.00069511    0.00168274
     atom   15 type  1   force =    -0.00243517    0.00069511   -0.00168274
     atom   16 type  1   force =     0.00243517   -0.00069511   -0.00168274
     atom   17 type  2   force =    -0.00135381   -0.00001507    0.00702963
     atom   18 type  2   force =     0.00135381    0.00001507    0.00702963
     atom   19 type  2   force =    -0.00135381    0.00001507   -0.00702963
     atom   20 type  2   force =     0.00135381   -0.00001507   -0.00702963
     atom   21 type  2   force =    -0.00163894    0.00156493   -0.00285704
     atom   22 type  2   force =     0.00163894   -0.00156493   -0.00285704
     atom   23 type  2   force =    -0.00163894   -0.00156493    0.00285704
     atom   24 type  2   force =     0.00163894    0.00156493    0.00285704
     atom   25 type  2   force =     0.00206443   -0.00352666   -0.00090020
     atom   26 type  2   force =    -0.00206443    0.00352666   -0.00090020
     atom   27 type  2   force =     0.00206443    0.00352666    0.00090020
     atom   28 type  2   force =    -0.00206443   -0.00352666    0.00090020
     atom   29 type  3   force =     0.00036352    0.00085990    0.00076490
     atom   30 type  3   force =    -0.00036352   -0.00085990    0.00076490
     atom   31 type  3   force =     0.00036352   -0.00085990   -0.00076490
     atom   32 type  3   force =    -0.00036352    0.00085990   -0.00076490
     atom   33 type  3   force =     0.00056962   -0.00035535    0.00127825
     atom   34 type  3   force =    -0.00056962    0.00035535    0.00127825
     atom   35 type  3   force =     0.00056962    0.00035535   -0.00127825
     atom   36 type  3   force =    -0.00056962   -0.00035535   -0.00127825
     atom   37 type  2   force =     0.00654440   -0.00292434   -0.00490869
     atom   38 type  2   force =    -0.00654440    0.00292434   -0.00490869
     atom   39 type  2   force =     0.00654440    0.00292434    0.00490869
     atom   40 type  2   force =    -0.00654440   -0.00292434    0.00490869
     atom   41 type  2   force =     0.00317446   -0.00248575   -0.00414994
     atom   42 type  2   force =    -0.00317446    0.00248575   -0.00414994
     atom   43 type  2   force =     0.00317446    0.00248575    0.00414994
     atom   44 type  2   force =    -0.00317446   -0.00248575    0.00414994
     atom   45 type  4   force =    -0.00241834    0.00166329   -0.00098527
     atom   46 type  4   force =     0.00241834   -0.00166329   -0.00098527
     atom   47 type  4   force =    -0.00241834   -0.00166329    0.00098527
     atom   48 type  4   force =     0.00241834    0.00166329    0.00098527
     atom   49 type  4   force =    -0.00158994    0.00031581   -0.00211218
     atom   50 type  4   force =     0.00158994   -0.00031581   -0.00211218
     atom   51 type  4   force =    -0.00158994   -0.00031581    0.00211218
     atom   52 type  4   force =     0.00158994    0.00031581    0.00211218
     atom   53 type  4   force =     0.00099362    0.00142584   -0.00063303
     atom   54 type  4   force =    -0.00099362   -0.00142584   -0.00063303
     atom   55 type  4   force =     0.00099362   -0.00142584    0.00063303
     atom   56 type  4   force =    -0.00099362    0.00142584    0.00063303
     atom   57 type  4   force =    -0.00494881   -0.00162412    0.00088280
     atom   58 type  4   force =     0.00494881    0.00162412    0.00088280
     atom   59 type  4   force =    -0.00494881    0.00162412   -0.00088280
     atom   60 type  4   force =     0.00494881   -0.00162412   -0.00088280

     Total force =     0.033387     Total SCF correction =     0.000175


     Computing stress (Cartesian axis) and pressure

          total   stress  (Ry/bohr**3)                   (kbar)     P=   -0.86
   0.00000135   0.00000000   0.00000000          0.20      0.00      0.00
   0.00000000   0.00002237   0.00000000          0.00      3.29      0.00
   0.00000000   0.00000000  -0.00004117          0.00      0.00     -6.06


     Writing output data file scf.save
 
     init_run     :     30.32s CPU     31.11s WALL (       1 calls)
     electrons    :   1059.97s CPU   1091.88s WALL (       1 calls)
     forces       :     14.03s CPU     14.11s WALL (       1 calls)
     stress       :     56.00s CPU     56.17s WALL (       1 calls)

     Called by init_run:
     wfcinit      :     26.36s CPU     27.08s WALL (       1 calls)
     potinit      :      1.40s CPU      1.42s WALL (       1 calls)

     Called by electrons:
     c_bands      :    950.63s CPU    978.41s WALL (      15 calls)
     sum_band     :    101.52s CPU    105.04s WALL (      15 calls)
     v_of_rho     :      1.26s CPU      1.38s WALL (      16 calls)
     newd         :      2.27s CPU      2.71s WALL (      16 calls)
     PAW_pot      :      3.97s CPU      3.97s WALL (      16 calls)
     mix_rho      :      0.28s CPU      0.31s WALL (      15 calls)

     Called by c_bands:
     init_us_2    :      6.07s CPU      6.08s WALL (     396 calls)
     cegterg      :    925.85s CPU    953.52s WALL (     180 calls)

     Called by sum_band:
     sum_band:bec :      0.08s CPU      0.08s WALL (     180 calls)
     addusdens    :      2.28s CPU      2.72s WALL (      15 calls)

     Called by *egterg:
     h_psi        :    517.40s CPU    534.87s WALL (     769 calls)
     s_psi        :    101.43s CPU    101.46s WALL (     769 calls)
     g_psi        :      2.78s CPU      2.78s WALL (     577 calls)
     cdiaghg      :     55.68s CPU     55.73s WALL (     757 calls)

     Called by h_psi:
     h_psi:pot    :    513.30s CPU    530.69s WALL (     769 calls)
     h_psi:calbec :    103.27s CPU    103.52s WALL (     769 calls)
     vloc_psi     :    308.39s CPU    325.48s WALL (     769 calls)
     add_vuspsi   :    101.64s CPU    101.68s WALL (     769 calls)

     General routines
     calbec       :    152.80s CPU    153.14s WALL (    1009 calls)
     fft          :      0.92s CPU      1.12s WALL (     232 calls)
     fftw         :    331.61s CPU    350.57s WALL (  179974 calls)
 
     Parallel routines
     fft_scatter  :     78.13s CPU     89.47s WALL (  180206 calls)
 
     PWSCF        : 19m29.57s CPU    21m18.06s WALL

 
   This run was terminated on:  18: 0:37   7Dec2017            

=------------------------------------------------------------------------------=
   JOB DONE.
=------------------------------------------------------------------------------=
