
     Program PWSCF v.6.1 (svn rev. 13369) starts on  3Nov2017 at 21:50:21 

     This program is part of the open-source Quantum ESPRESSO suite
     for quantum simulation of materials; please cite
         "P. Giannozzi et al., J. Phys.:Condens. Matter 21 395502 (2009);
          URL http://www.quantum-espresso.org", 
     in publications or presentations arising from this work. More details at
     http://www.quantum-espresso.org/quote

     Parallel version (MPI), running on     8 processors
     R & G space division:  proc/nbgrp/npool/nimage =       8
     Waiting for input...
     Reading input from standard input

     Current dimensions of program PWSCF are:
     Max number of different atomic species (ntypx) = 10
     Max number of k-points (npk) =  40000
     Max angular momentum in pseudopotentials (lmaxx) =  3
               file C.pbe-n-kjpaw_psl.0.1.UPF: wavefunction(s)  2P renormalized
               file N.pbe-n-kjpaw_psl.0.1.UPF: wavefunction(s)  2P renormalized
               file H.pbe-kjpaw_psl.0.1.UPF: wavefunction(s)  1S renormalized
               file O.pbe-n-kjpaw_psl.0.1.UPF: wavefunction(s)  2P renormalized

     -------------------------------------
     Parameters for Dispersion Correction:
     -------------------------------------
       atom      VdW radius       C_6     

        C          2.744         60.710
        N          2.640         42.670
        H          1.892          4.857
        O          2.536         24.284

     Subspace diagonalization in iterative solution of the eigenvalue problem:
     a serial algorithm will be used

 
     Parallelization info
     --------------------
     sticks:   dense  smooth     PW     G-vecs:    dense   smooth      PW
     Min        1538    1538    406               163371   163371   22156
     Max        1541    1541    407               163372   163372   22158
     Sum       12307   12307   3255              1306973  1306973  177257
 


     bravais-lattice index     =            0
     lattice parameter (alat)  =      24.2244  a.u.
     unit-cell volume          =    9674.8965 (a.u.)^3
     number of atoms/cell      =          160
     number of atomic types    =            4
     number of electrons       =       416.00
     number of Kohn-Sham states=          249
     kinetic-energy cutoff     =     100.0000  Ry
     charge density cutoff     =     400.0000  Ry
     convergence threshold     =      1.0E-08
     mixing beta               =       0.5000
     number of iterations used =            8  plain     mixing
     Exchange-correlation      =  SLA  PW   PBX  PBC ( 1  4  3  4 0 0)

     celldm(1)=  24.224399  celldm(2)=   0.000000  celldm(3)=   0.000000
     celldm(4)=   0.000000  celldm(5)=   0.000000  celldm(6)=   0.000000

     crystal axes: (cart. coord. in units of alat)
               a(1) = (   1.000000   0.000000   0.000000 )  
               a(2) = (   0.000000   0.658476   0.000000 )  
               a(3) = (  -0.098831   0.000000   1.033588 )  

     reciprocal axes: (cart. coord. in units 2 pi/alat)
               b(1) = (  1.000000  0.000000  0.095620 )  
               b(2) = (  0.000000  1.518659  0.000000 )  
               b(3) = (  0.000000  0.000000  0.967503 )  


     PseudoPot. # 1 for  C read from file:
     /scratch/ahofstet/pseudo/C.pbe-n-kjpaw_psl.0.1.UPF
     MD5 check sum: 430fe95172b1e11ef3f8ed03bac87931
     Pseudo is Projector augmented-wave + core cor, Zval =  4.0
     Generated using "atomic" code by A. Dal Corso  v.5.0.99 svn rev. 10869
     Shape of augmentation charge: BESSEL
     Using radial grid of 1073 points,  4 beta functions with: 
                l(1) =   0
                l(2) =   0
                l(3) =   1
                l(4) =   1
     Q(r) pseudized with 0 coefficients 


     PseudoPot. # 2 for  N read from file:
     /scratch/ahofstet/pseudo/N.pbe-n-kjpaw_psl.0.1.UPF
     MD5 check sum: f73187c8b701007e77325f868c9291d7
     Pseudo is Projector augmented-wave + core cor, Zval =  5.0
     Generated using "atomic" code by A. Dal Corso  v.5.0.99 svn rev. 10869
     Shape of augmentation charge: PSQ
     Using radial grid of 1085 points,  4 beta functions with: 
                l(1) =   0
                l(2) =   0
                l(3) =   1
                l(4) =   1
     Q(r) pseudized with 0 coefficients 


     PseudoPot. # 3 for  H read from file:
     /scratch/ahofstet/pseudo/H.pbe-kjpaw_psl.0.1.UPF
     MD5 check sum: 94e484f906d9e9773b2f6e52662335b2
     Pseudo is Projector augmented-wave, Zval =  1.0
     Generated using "atomic" code by A. Dal Corso  v.5.0.99 svn rev. 10869
     Shape of augmentation charge: PSQ
     Using radial grid of  929 points,  2 beta functions with: 
                l(1) =   0
                l(2) =   0
     Q(r) pseudized with 0 coefficients 


     PseudoPot. # 4 for  O read from file:
     /scratch/ahofstet/pseudo/O.pbe-n-kjpaw_psl.0.1.UPF
     MD5 check sum: 3f94a2996a3169367d6eb21d9b593f20
     Pseudo is Projector augmented-wave + core cor, Zval =  6.0
     Generated using "atomic" code by A. Dal Corso  v.5.0.99 svn rev. 10869
     Shape of augmentation charge: BESSEL
     Using radial grid of 1095 points,  4 beta functions with: 
                l(1) =   0
                l(2) =   0
                l(3) =   1
                l(4) =   1
     Q(r) pseudized with 0 coefficients 


     atomic species   valence    mass     pseudopotential
        C              4.00    12.01070      C( 1.00)
        N              5.00    14.00670      N( 1.00)
        H              1.00     1.00794      H( 1.00)
        O              6.00    15.99940      O( 1.00)

      2 Sym. Ops., with inversion, found



   Cartesian axes

     site n.     atom                  positions (alat units)
         1           N   tau(   1) = (   0.1160574   0.1554227   0.0092928  )
         2           N   tau(   2) = (   0.3345222   0.4846543   0.5074769  )
         3           N   tau(   3) = (   0.7851112   0.5030530   1.0242954  )
         4           N   tau(   4) = (   0.5666464   0.1738215   0.5261112  )
         5           N   tau(   5) = (   0.0710337   0.0821491   0.9870666  )
         6           N   tau(   6) = (   0.2807101   0.4113819   0.5632878  )
         7           N   tau(   7) = (   0.8301349   0.5763266   0.0465215  )
         8           N   tau(   8) = (   0.6204585   0.2470938   0.4703004  )
         9           N   tau(   9) = (   0.4163285   0.1698857   0.9400850  )
        10           N   tau(  10) = (   0.9354105   0.4991387   0.6102602  )
        11           N   tau(  11) = (   0.4848401   0.4885900   0.0935031  )
        12           N   tau(  12) = (  -0.0342419   0.1593370   0.4233279  )
        13           N   tau(  13) = (   0.4759950   0.1004258   0.8853710  )
        14           N   tau(  14) = (   0.8757426   0.4296833   0.6649823  )
        15           N   tau(  15) = (   0.4251736   0.5580499   0.1482171  )
        16           N   tau(  16) = (   0.0254260   0.2287924   0.3686059  )
        17           C   tau(  17) = (   0.0217203   0.1348654   0.0471576  )
        18           C   tau(  18) = (   0.4288580   0.4640931   0.4696080  )
        19           C   tau(  19) = (   0.8794483   0.5236103   0.9864306  )
        20           C   tau(  20) = (   0.4723106   0.1943826   0.5639801  )
        21           C   tau(  21) = (   0.9735785   0.0364262   0.0303791  )
        22           C   tau(  22) = (   0.4770007   0.3656567   0.4864003  )
        23           C   tau(  23) = (  -0.0724099   0.6220495   1.0032091  )
        24           C   tau(  24) = (   0.4241679   0.2928190   0.5471878  )
        25           C   tau(  25) = (   0.0280845   0.6489524   0.9651650  )
        26           C   tau(  26) = (   0.3236633   0.3197153   0.5852057  )
        27           C   tau(  27) = (   0.8730841   0.0095233   0.0684232  )
        28           C   tau(  28) = (   0.5775053   0.3387604   0.4483824  )
        29           C   tau(  29) = (   0.0859653   0.5703469   0.9006336  )
        30           C   tau(  30) = (   0.2657873   0.2411141   0.6497483  )
        31           C   tau(  31) = (   0.8152033   0.0881288   0.1329546  )
        32           C   tau(  32) = (   0.6353813   0.4173616   0.3838399  )
        33           H   tau(  33) = (   0.1703795   0.5834761   0.9086918  )
        34           H   tau(  34) = (   0.1813723   0.2542426   0.6416998  )
        35           H   tau(  35) = (   0.7307891   0.0749996   0.1248963  )
        36           H   tau(  36) = (   0.7197963   0.4042331   0.3918884  )
        37           H   tau(  37) = (   0.0662922   0.5829571   0.8176424  )
        38           H   tau(  38) = (   0.2854690   0.2537267   0.7327371  )
        39           H   tau(  39) = (   0.8348764   0.0755186   0.2159458  )
        40           H   tau(  40) = (   0.6156996   0.4047490   0.3008511  )
        41           C   tau(  41) = (   0.9641472   0.2154110   0.1090680  )
        42           C   tau(  42) = (   0.4864390   0.5446492   0.4077247  )
        43           C   tau(  43) = (  -0.0629787   0.4430647   0.9245201  )
        44           C   tau(  44) = (   0.4147296   0.1138265   0.6258634  )
        45           H   tau(  45) = (   0.9862558   0.2938745   0.0820303  )
        46           H   tau(  46) = (   0.4643286   0.6231068   0.4347785  )
        47           H   tau(  47) = (  -0.0850873   0.3646012   0.9515579  )
        48           H   tau(  48) = (   0.4368400   0.0353689   0.5988096  )
        49           H   tau(  49) = (  -0.0106758   0.2090501   0.1914724  )
        50           H   tau(  50) = (   0.4612655   0.5383090   0.3253176  )
        51           H   tau(  51) = (   0.9118444   0.4494256   0.8421157  )
        52           H   tau(  52) = (   0.4399031   0.1201667   0.7082705  )
        53           C   tau(  53) = (   0.0569934   0.4567298   0.9303232  )
        54           C   tau(  54) = (   0.2947565   0.1274925   0.6200684  )
        55           C   tau(  55) = (   0.8441752   0.2017459   0.1032650  )
        56           C   tau(  56) = (   0.6064121   0.5309832   0.4135197  )
        57           C   tau(  57) = (   0.1943320   0.4319627   0.0072254  )
        58           C   tau(  58) = (   0.2562501   0.1027243   0.5095736  )
        59           C   tau(  59) = (   0.7068366   0.2265130   1.0263627  )
        60           C   tau(  60) = (   0.6449185   0.5557514   0.5240146  )
        61           H   tau(  61) = (   0.1592411   0.4842599   0.0655838  )
        62           H   tau(  62) = (   0.2913459   0.1550279   0.4512245  )
        63           H   tau(  63) = (   0.7419275   0.1742158   0.9680044  )
        64           H   tau(  64) = (   0.6098227   0.5034478   0.5823637  )
        65           H   tau(  65) = (   0.1742346   0.3511289   0.0277678  )
        66           H   tau(  66) = (   0.2763506   0.0218928   0.4890261  )
        67           H   tau(  67) = (   0.7269339   0.3073468   1.0058204  )
        68           H   tau(  68) = (   0.6248180   0.6365829   0.5445621  )
        69           H   tau(  69) = (   0.2794513   0.4406548   0.0128077  )
        70           H   tau(  70) = (   0.1711315   0.1114176   0.5039868  )
        71           H   tau(  71) = (   0.6217173   0.2178209   1.0207805  )
        72           H   tau(  72) = (   0.7300371   0.5470581   0.5296014  )
        73           C   tau(  73) = (   0.1079744   0.3817023   0.8526175  )
        74           C   tau(  74) = (   0.2437837   0.0524746   0.6977956  )
        75           C   tau(  75) = (   0.7931941   0.2767734   0.1809706  )
        76           C   tau(  76) = (   0.6573849   0.6060011   0.3357926  )
        77           H   tau(  77) = (   0.1934502   0.3887812   0.8551702  )
        78           H   tau(  78) = (   0.1583075   0.0595508   0.6952477  )
        79           H   tau(  79) = (   0.7077184   0.2696945   0.1784179  )
        80           H   tau(  80) = (   0.7428611   0.5989249   0.3383405  )
        81           H   tau(  81) = (   0.0876095   0.3004730   0.8717590  )
        82           H   tau(  82) = (   0.2641471   0.6297193   0.6786575  )
        83           H   tau(  83) = (   0.8135590   0.3580027   0.1618292  )
        84           H   tau(  84) = (   0.6370215   0.0287564   0.3549306  )
        85           H   tau(  85) = (   0.0821708   0.3986935   0.7725489  )
        86           H   tau(  86) = (   0.2695980   0.0694759   0.7778579  )
        87           H   tau(  87) = (   0.8189978   0.2597822   0.2610393  )
        88           H   tau(  88) = (   0.6315706   0.5889998   0.2557302  )
        89           C   tau(  89) = (   0.3623610   0.1391000   1.0230318  )
        90           C   tau(  90) = (  -0.0106158   0.4683467   0.5273231  )
        91           C   tau(  91) = (   0.5388076   0.5193757   0.0105564  )
        92           C   tau(  92) = (   0.9117844   0.1901290   0.5062651  )
        93           C   tau(  93) = (   0.4671958   0.0344651   0.0260893  )
        94           C   tau(  94) = (  -0.0166053   0.3636991   0.4907069  )
        95           C   tau(  95) = (   0.4339728   0.6240106   1.0074988  )
        96           C   tau(  96) = (   0.9177739   0.2947766   0.5428813  )
        97           C   tau(  97) = (   0.4865952   0.0025145   0.9173087  )
        98           C   tau(  98) = (   0.8651423   0.3317667   0.6330507  )
        99           C   tau(  99) = (   0.4145734   0.6559612   0.1162794  )
       100           C   tau( 100) = (   0.0360263   0.3267090   0.4005375  )
       101           C   tau( 101) = (   0.5534692   0.5860622   0.8571247  )
       102           C   tau( 102) = (   0.7982725   0.2568399   0.6932401  )
       103           C   tau( 103) = (   0.3476994   0.0724135   0.1764634  )
       104           C   tau( 104) = (   0.1028961   0.4016358   0.3403481  )
       105           H   tau( 105) = (   0.6340383   0.5912550   0.8869858  )
       106           H   tau( 106) = (   0.7177063   0.2620128   0.6633695  )
       107           H   tau( 107) = (   0.2671303   0.0672207   0.1466023  )
       108           H   tau( 108) = (   0.1834623   0.3964629   0.3702186  )
       109           H   tau( 109) = (   0.5556669   0.6093325   0.7745887  )
       110           H   tau( 110) = (   0.7960613   0.2801271   0.7757716  )
       111           H   tau( 111) = (   0.3455017   0.0491432   0.2589995  )
       112           H   tau( 112) = (   0.1051073   0.3783486   0.2578166  )
       113           C   tau( 113) = (   0.3942749   0.2149277   0.0477724  )
       114           C   tau( 114) = (   0.0563124   0.5441675   0.4689913  )
       115           C   tau( 115) = (   0.5068937   0.4435480   0.9858157  )
       116           C   tau( 116) = (   0.8448561   0.1143082   0.5645969  )
       117           H   tau( 117) = (   0.3154216   0.2130333   0.0131249  )
       118           H   tau( 118) = (   0.1351618   0.5422722   0.5036477  )
       119           H   tau( 119) = (   0.5857470   0.4454424   1.0204633  )
       120           H   tau( 120) = (   0.7660068   0.1162035   0.5299405  )
       121           H   tau( 121) = (   0.4252537   0.2945519   0.0390910  )
       122           H   tau( 122) = (   0.0253357   0.6237933   0.4776686  )
       123           H   tau( 123) = (   0.4759149   0.3639238   0.9944972  )
       124           H   tau( 124) = (   0.8758329   0.0346824   0.5559196  )
       125           C   tau( 125) = (   0.5160431   0.4716557   0.8686054  )
       126           C   tau( 126) = (   0.8357070   0.1424314   0.6817936  )
       127           C   tau( 127) = (   0.3851255   0.1868200   0.1649828  )
       128           C   tau( 128) = (   0.0654616   0.5160443   0.3517946  )
       129           C   tau( 129) = (   0.4100057   0.4573806   0.8151062  )
       130           C   tau( 130) = (  -0.0582430   0.1281565   0.7352609  )
       131           C   tau( 131) = (   0.4911629   0.2010951   0.2184819  )
       132           C   tau( 132) = (   0.9594116   0.5303192   0.2983273  )
       133           H   tau( 133) = (   0.3843896   0.3758971   0.8228586  )
       134           H   tau( 134) = (  -0.0326345   0.0466712   0.7274967  )
       135           H   tau( 135) = (   0.5167789   0.2825786   0.2107296  )
       136           H   tau( 136) = (   0.9338031   0.6118045   0.3060915  )
       137           H   tau( 137) = (   0.3496045   0.5075470   0.8497496  )
       138           H   tau( 138) = (   0.0021523   0.1783204   0.7006061  )
       139           H   tau( 139) = (   0.5515640   0.1509287   0.1838386  )
       140           H   tau( 140) = (   0.8990163   0.4801553   0.3329820  )
       141           H   tau( 141) = (   0.4148702   0.4769561   0.7317445  )
       142           H   tau( 142) = (  -0.0630785   0.1477225   0.8186265  )
       143           H   tau( 143) = (   0.4862984   0.1815196   0.3018436  )
       144           H   tau( 144) = (   0.9642471   0.5107532   0.2149616  )
       145           C   tau( 145) = (   0.5961871   0.3990367   0.8181884  )
       146           C   tau( 146) = (   0.7555720   0.0698145   0.7322336  )
       147           C   tau( 147) = (   0.3049815   0.2594390   0.2153998  )
       148           C   tau( 148) = (   0.1455966   0.5886612   0.3013546  )
       149           H   tau( 149) = (   0.6053144   0.4168832   0.7346805  )
       150           H   tau( 150) = (   0.7464535   0.0876652   0.8157415  )
       151           H   tau( 151) = (   0.2958542   0.2415925   0.2989077  )
       152           H   tau( 152) = (   0.1547151   0.5708105   0.2178467  )
       153           H   tau( 153) = (   0.6726965   0.4083004   0.8558148  )
       154           H   tau( 154) = (   0.6790563   0.0790679   0.6946166  )
       155           H   tau( 155) = (   0.2284721   0.2501753   0.1777733  )
       156           H   tau( 156) = (   0.2221122   0.5794078   0.3389715  )
       157           H   tau( 157) = (   0.5714752   0.3171245   0.8260091  )
       158           H   tau( 158) = (   0.7802854  -0.0120984   0.7244188  )
       159           H   tau( 159) = (   0.3296934   0.3413512   0.2075790  )
       160           H   tau( 160) = (   0.1208832   0.0120984   0.3091693  )

     number of k points=     8
                       cart. coord. in units 2pi/alat
        k(    1) = (   0.0000000   0.0000000   0.0000000), wk =   0.2500000
        k(    2) = (   0.0000000   0.0000000  -0.4837517), wk =   0.2500000
        k(    3) = (   0.0000000  -0.7593295   0.0000000), wk =   0.2500000
        k(    4) = (   0.0000000  -0.7593295  -0.4837517), wk =   0.2500000
        k(    5) = (  -0.5000000   0.0000000  -0.0478099), wk =   0.2500000
        k(    6) = (  -0.5000000   0.0000000  -0.5315615), wk =   0.2500000
        k(    7) = (  -0.5000000  -0.7593295  -0.0478099), wk =   0.2500000
        k(    8) = (  -0.5000000  -0.7593295  -0.5315615), wk =   0.2500000

     Dense  grid:  1306973 G-vectors     FFT dimensions: ( 160, 108, 162)

     Estimated max dynamical RAM per process >    1699.50MB

     Estimated total allocated dynamical RAM >   13596.04MB

     Check: negative/imaginary core charge=   -0.000002    0.000000

     Initial potential from superposition of free atoms

     starting charge  415.99646, renormalised to  416.00000
     Starting wfc are  400 randomized atomic wfcs
     Checking if some PAW data can be deallocated... 

     total cpu time spent up to now is      111.6 secs

     per-process dynamical memory:  1133.0 Mb

     Self-consistent Calculation

     iteration #  1     ecut=   100.00 Ry     beta=0.50
     Davidson diagonalization with overlap
     ethr =  1.00E-02,  avg # of iterations =  4.0

     total cpu time spent up to now is      414.1 secs

     total energy              =   -1723.97117188 Ry
     Harris-Foulkes estimate   =   -1732.49808690 Ry
     estimated scf accuracy    <      16.56549499 Ry

     iteration #  2     ecut=   100.00 Ry     beta=0.50
     Davidson diagonalization with overlap
     ethr =  3.98E-03,  avg # of iterations =  2.0

     total cpu time spent up to now is      562.4 secs

     total energy              =   -1724.21254000 Ry
     Harris-Foulkes estimate   =   -1725.17607711 Ry
     estimated scf accuracy    <       1.94019461 Ry

     iteration #  3     ecut=   100.00 Ry     beta=0.50
     Davidson diagonalization with overlap
     ethr =  4.66E-04,  avg # of iterations =  5.0

     total cpu time spent up to now is      912.4 secs

     total energy              =   -1728.97705218 Ry
     Harris-Foulkes estimate   =   -1727.76161609 Ry
     estimated scf accuracy    <       3.88958817 Ry

     iteration #  4     ecut=   100.00 Ry     beta=0.50
     Davidson diagonalization with overlap
     ethr =  4.66E-04,  avg # of iterations =  1.0

     total cpu time spent up to now is     1054.5 secs

     total energy              =   -1724.82674412 Ry
     Harris-Foulkes estimate   =   -1729.03650077 Ry
     estimated scf accuracy    <       6.36278853 Ry

     iteration #  5     ecut=   100.00 Ry     beta=0.50
     Davidson diagonalization with overlap
     ethr =  4.66E-04,  avg # of iterations =  6.1

     total cpu time spent up to now is     1354.4 secs

     total energy              =   -1726.60702011 Ry
     Harris-Foulkes estimate   =   -1726.76431610 Ry
     estimated scf accuracy    <       0.77817415 Ry

     iteration #  6     ecut=   100.00 Ry     beta=0.50
     Davidson diagonalization with overlap
     ethr =  1.87E-04,  avg # of iterations =  1.2

     total cpu time spent up to now is     1497.2 secs

     total energy              =   -1726.35225784 Ry
     Harris-Foulkes estimate   =   -1726.61765773 Ry
     estimated scf accuracy    <       0.51247641 Ry

     iteration #  7     ecut=   100.00 Ry     beta=0.50
     Davidson diagonalization with overlap
     ethr =  1.23E-04,  avg # of iterations =  5.2

     total cpu time spent up to now is     1716.0 secs

     total energy              =   -1726.51773239 Ry
     Harris-Foulkes estimate   =   -1726.52838097 Ry
     estimated scf accuracy    <       0.02699311 Ry

     iteration #  8     ecut=   100.00 Ry     beta=0.50
     Davidson diagonalization with overlap
     c_bands:  1 eigenvalues not converged
     ethr =  6.49E-06,  avg # of iterations = 16.9

     total cpu time spent up to now is     1980.6 secs

     total energy              =   -1726.51839836 Ry
     Harris-Foulkes estimate   =   -1726.52288165 Ry
     estimated scf accuracy    <       0.00612879 Ry

     iteration #  9     ecut=   100.00 Ry     beta=0.50
     Davidson diagonalization with overlap
     ethr =  1.47E-06,  avg # of iterations =  4.4

     total cpu time spent up to now is     2298.2 secs

     total energy              =   -1726.52267299 Ry
     Harris-Foulkes estimate   =   -1726.52710907 Ry
     estimated scf accuracy    <       0.01135370 Ry

     iteration # 10     ecut=   100.00 Ry     beta=0.50
     Davidson diagonalization with overlap
     ethr =  1.47E-06,  avg # of iterations =  1.4

     total cpu time spent up to now is     2441.8 secs

     total energy              =   -1726.52067208 Ry
     Harris-Foulkes estimate   =   -1726.52305599 Ry
     estimated scf accuracy    <       0.00377636 Ry

     iteration # 11     ecut=   100.00 Ry     beta=0.50
     Davidson diagonalization with overlap
     ethr =  9.08E-07,  avg # of iterations =  5.5

     total cpu time spent up to now is     2735.5 secs

     total energy              =   -1726.52403992 Ry
     Harris-Foulkes estimate   =   -1726.52454781 Ry
     estimated scf accuracy    <       0.00325004 Ry

     iteration # 12     ecut=   100.00 Ry     beta=0.50
     Davidson diagonalization with overlap
     ethr =  7.81E-07,  avg # of iterations =  1.0

     total cpu time spent up to now is     2877.7 secs

     total energy              =   -1726.52304626 Ry
     Harris-Foulkes estimate   =   -1726.52405647 Ry
     estimated scf accuracy    <       0.00235716 Ry

     iteration # 13     ecut=   100.00 Ry     beta=0.50
     Davidson diagonalization with overlap
     ethr =  5.67E-07,  avg # of iterations =  2.8

     total cpu time spent up to now is     3027.6 secs

     total energy              =   -1726.52309965 Ry
     Harris-Foulkes estimate   =   -1726.52320907 Ry
     estimated scf accuracy    <       0.00049571 Ry

     iteration # 14     ecut=   100.00 Ry     beta=0.50
     Davidson diagonalization with overlap
     ethr =  1.19E-07,  avg # of iterations =  4.0

     total cpu time spent up to now is     3307.7 secs

     total energy              =   -1726.52355218 Ry
     Harris-Foulkes estimate   =   -1726.52356317 Ry
     estimated scf accuracy    <       0.00004697 Ry

     iteration # 15     ecut=   100.00 Ry     beta=0.50
     Davidson diagonalization with overlap
     ethr =  1.13E-08,  avg # of iterations =  1.4

     total cpu time spent up to now is     3450.9 secs

     total energy              =   -1726.52354023 Ry
     Harris-Foulkes estimate   =   -1726.52355306 Ry
     estimated scf accuracy    <       0.00002817 Ry

     iteration # 16     ecut=   100.00 Ry     beta=0.50
     Davidson diagonalization with overlap
     ethr =  6.77E-09,  avg # of iterations =  4.0

     total cpu time spent up to now is     3672.4 secs

     total energy              =   -1726.52354913 Ry
     Harris-Foulkes estimate   =   -1726.52354929 Ry
     estimated scf accuracy    <       0.00000044 Ry

     iteration # 17     ecut=   100.00 Ry     beta=0.50
     Davidson diagonalization with overlap
     ethr =  1.05E-10,  avg # of iterations =  4.0

     total cpu time spent up to now is     3957.3 secs

     total energy              =   -1726.52354939 Ry
     Harris-Foulkes estimate   =   -1726.52354944 Ry
     estimated scf accuracy    <       0.00000010 Ry

     iteration # 18     ecut=   100.00 Ry     beta=0.50
     Davidson diagonalization with overlap
     ethr =  2.41E-11,  avg # of iterations =  4.0

     total cpu time spent up to now is     4273.5 secs

     total energy              =   -1726.52354952 Ry
     Harris-Foulkes estimate   =   -1726.52354962 Ry
     estimated scf accuracy    <       0.00000071 Ry

     iteration # 19     ecut=   100.00 Ry     beta=0.50
     Davidson diagonalization with overlap
     ethr =  2.41E-11,  avg # of iterations =  1.0

     total cpu time spent up to now is     4415.5 secs

     total energy              =   -1726.52354940 Ry
     Harris-Foulkes estimate   =   -1726.52354952 Ry
     estimated scf accuracy    <       0.00000051 Ry

     iteration # 20     ecut=   100.00 Ry     beta=0.50
     Davidson diagonalization with overlap
     ethr =  2.41E-11,  avg # of iterations =  4.0

     total cpu time spent up to now is     4649.5 secs

     total energy              =   -1726.52354943 Ry
     Harris-Foulkes estimate   =   -1726.52354944 Ry
     estimated scf accuracy    <       0.00000010 Ry

     iteration # 21     ecut=   100.00 Ry     beta=0.50
     Davidson diagonalization with overlap
     ethr =  2.39E-11,  avg # of iterations =  1.0

     total cpu time spent up to now is     4791.5 secs

     total energy              =   -1726.52354941 Ry
     Harris-Foulkes estimate   =   -1726.52354943 Ry
     estimated scf accuracy    <       0.00000007 Ry

     iteration # 22     ecut=   100.00 Ry     beta=0.50
     Davidson diagonalization with overlap
     ethr =  1.74E-11,  avg # of iterations =  1.6

     total cpu time spent up to now is     4935.7 secs

     total energy              =   -1726.52354940 Ry
     Harris-Foulkes estimate   =   -1726.52354942 Ry
     estimated scf accuracy    <       0.00000003 Ry

     iteration # 23     ecut=   100.00 Ry     beta=0.50
     Davidson diagonalization with overlap
     ethr =  6.22E-12,  avg # of iterations =  5.0

     total cpu time spent up to now is     5206.2 secs

     End of self-consistent calculation

          k = 0.0000 0.0000 0.0000 (163381 PWs)   bands (ev):

   -19.3375 -19.3371 -19.2405 -19.2400 -19.0736 -19.0735 -18.9780 -18.9775
   -15.8305 -15.8284 -15.7326 -15.7260 -15.3903 -15.3878 -15.2904 -15.2873
   -14.8346 -14.8342 -14.7372 -14.7369 -14.1844 -14.1674 -14.1024 -14.0918
   -13.9198 -13.9115 -13.8620 -13.8562 -12.4560 -12.4554 -12.3414 -12.3402
   -11.5391 -11.5009 -11.4937 -11.4404 -11.4039 -11.4006 -11.3253 -11.3222
   -10.9623 -10.9551 -10.8407 -10.8350 -10.6968 -10.6932 -10.6717 -10.6405
   -10.6049 -10.5900 -10.5590 -10.5147 -10.1699 -10.0918 -10.0848  -9.9686
    -9.8232  -9.8179  -9.7027  -9.6751  -8.9321  -8.9203  -8.8329  -8.8217
    -7.3350  -7.2863  -7.2318  -7.1645  -7.1100  -7.1086  -7.1014  -7.0780
    -7.0454  -7.0013  -6.9710  -6.9125  -6.8834  -6.8244  -6.7881  -6.7416
    -6.6808  -6.5960  -6.5492  -6.5457  -5.7374  -5.7246  -5.6005  -5.5801
    -5.3931  -5.3475  -5.3474  -5.3401  -5.2952  -5.2865  -5.2395  -5.1409
    -5.1040  -5.0511  -5.0074  -5.0047  -4.9468  -4.8008  -4.7404  -4.6917
    -4.6791  -4.5434  -4.5412  -4.5399  -4.4768  -4.4714  -4.4638  -4.4300
    -4.4109  -4.3751  -4.3605  -4.3493  -4.3161  -4.2874  -4.2411  -4.2296
    -3.6678  -3.5854  -3.5762  -3.5563  -3.5341  -3.5277  -3.4798  -3.4706
    -3.4509  -3.4317  -3.3250  -3.2956  -3.2301  -3.1171  -3.0207  -3.0186
    -3.0135  -2.8939  -2.8906  -2.8767  -2.8731  -2.8435  -2.8229  -2.7933
    -2.7850  -2.7552  -2.7328  -2.7166  -2.6541  -2.6157  -2.6012  -2.5656
    -2.5447  -2.5331  -2.4796  -2.4650  -2.2909  -2.2706  -2.1698  -2.0796
    -2.0536  -2.0144  -1.9851  -1.9497  -1.9412  -1.9246  -1.9122  -1.8326
    -1.8265  -1.8146  -1.7917  -1.6914  -1.6708  -1.6228  -1.6198  -1.6037
    -1.5790  -1.5308  -1.5010  -1.4981  -1.4703  -1.4264  -1.3879  -1.3156
    -1.0811  -1.0266  -1.0250  -1.0139  -1.0072  -0.9662  -0.9279  -0.9161
    -0.8338  -0.7325  -0.7147  -0.6065  -0.3574  -0.3502  -0.1668  -0.1618
     0.1384   0.1411   0.2802   0.2864   0.8500   0.8520   0.9265   0.9289
     3.1467   3.1532   3.2064   3.2744   3.3240   3.3318   3.3836   3.4236
     5.1450   5.2064   5.3446   5.4198   5.7698   5.8677   5.8951   6.0486
     6.0945   6.5093   6.5420   6.6444   6.8342   6.8922   6.9327   7.0274
     7.1973   7.3012   7.4342   7.4885   7.5252   7.5642   7.6247   7.6821
     7.7391   7.7589   7.7923   7.7939   7.9416   7.9847   7.9976   8.0135
     8.0515

          k = 0.0000 0.0000-0.4838 (163392 PWs)   bands (ev):

   -19.3373 -19.3372 -19.2405 -19.2401 -19.0736 -19.0735 -18.9780 -18.9775
   -15.8291 -15.8289 -15.7300 -15.7300 -15.3888 -15.3886 -15.2888 -15.2888
   -14.8341 -14.8339 -14.7377 -14.7374 -14.1756 -14.1752 -14.0984 -14.0983
   -13.9148 -13.9144 -13.8594 -13.8594 -12.4558 -12.4556 -12.3413 -12.3408
   -11.5209 -11.5205 -11.4683 -11.4681 -11.4012 -11.4009 -11.3227 -11.3227
   -10.9588 -10.9587 -10.8366 -10.8362 -10.7000 -10.6999 -10.6521 -10.6520
   -10.6015 -10.6015 -10.5379 -10.5379 -10.1275 -10.1274 -10.0217 -10.0216
    -9.8218  -9.8216  -9.6948  -9.6945  -8.9242  -8.9240  -8.8278  -8.8276
    -7.3098  -7.3097  -7.1978  -7.1977  -7.1073  -7.1071  -7.0609  -7.0608
    -7.0396  -7.0394  -6.9957  -6.9954  -6.8008  -6.8007  -6.7507  -6.7505
    -6.6566  -6.6563  -6.5634  -6.5632  -5.7286  -5.7286  -5.5962  -5.5961
    -5.3793  -5.3791  -5.3250  -5.3247  -5.2225  -5.2223  -5.2135  -5.2133
    -5.0834  -5.0832  -5.0238  -5.0234  -4.9168  -4.9168  -4.7296  -4.7296
    -4.6129  -4.6126  -4.5403  -4.5403  -4.4774  -4.4774  -4.4218  -4.4216
    -4.3764  -4.3763  -4.3680  -4.3679  -4.3144  -4.3141  -4.2281  -4.2280
    -3.6188  -3.6187  -3.6085  -3.6084  -3.4787  -3.4784  -3.4704  -3.4704
    -3.4314  -3.4311  -3.3330  -3.3327  -3.1485  -3.1484  -3.0366  -3.0364
    -2.9822  -2.9822  -2.9050  -2.9050  -2.8591  -2.8591  -2.8175  -2.8175
    -2.7641  -2.7640  -2.6821  -2.6819  -2.6074  -2.6072  -2.5722  -2.5720
    -2.5448  -2.5447  -2.4854  -2.4852  -2.2234  -2.2233  -2.1846  -2.1846
    -2.0799  -2.0798  -1.9657  -1.9655  -1.9135  -1.9133  -1.8291  -1.8290
    -1.8037  -1.8036  -1.7058  -1.7056  -1.6653  -1.6653  -1.6425  -1.6425
    -1.5451  -1.5451  -1.4939  -1.4938  -1.4638  -1.4637  -1.3776  -1.3774
    -1.1859  -1.1856  -1.0591  -1.0589  -0.9282  -0.9282  -0.8300  -0.8299
    -0.7492  -0.7489  -0.6911  -0.6909  -0.2962  -0.2960  -0.1991  -0.1989
     0.1410   0.1412   0.2589   0.2591   0.8512   0.8514   0.9382   0.9383
     3.1858   3.1859   3.2348   3.2350   3.3289   3.3295   3.3633   3.3633
     5.1881   5.1884   5.3702   5.3706   5.9249   5.9251   6.0192   6.0193
     6.0353   6.0355   6.6670   6.6671   6.9465   6.9466   6.9917   6.9918
     7.2392   7.2395   7.3562   7.3563   7.5696   7.5696   7.6059   7.6061
     7.7594   7.7595   7.8050   7.8052   7.9341   7.9342   8.0507   8.0507
     8.1683

          k = 0.0000-0.7593 0.0000 (163354 PWs)   bands (ev):

   -19.3362 -19.3360 -19.2385 -19.2381 -19.0744 -19.0742 -18.9798 -18.9793
   -15.8429 -15.8426 -15.7434 -15.7434 -15.3944 -15.3942 -15.2964 -15.2964
   -14.8244 -14.8243 -14.7218 -14.7215 -14.1505 -14.1502 -14.0846 -14.0845
   -13.9004 -13.9000 -13.8472 -13.8472 -12.4750 -12.4749 -12.3504 -12.3499
   -11.5313 -11.5308 -11.4626 -11.4624 -11.4228 -11.4226 -11.3287 -11.3286
   -10.9361 -10.9359 -10.8383 -10.8379 -10.6880 -10.6879 -10.6326 -10.6326
   -10.5821 -10.5820 -10.5713 -10.5713 -10.1396 -10.1395 -10.0433 -10.0431
    -9.8578  -9.8576  -9.7459  -9.7456  -8.9418  -8.9416  -8.8576  -8.8574
    -7.2909  -7.2908  -7.2048  -7.2047  -7.1322  -7.1321  -7.0778  -7.0776
    -7.0065  -7.0061  -6.9443  -6.9442  -6.7434  -6.7433  -6.6459  -6.6455
    -6.6108  -6.6106  -6.5361  -6.5360  -5.7724  -5.7723  -5.6379  -5.6378
    -5.3385  -5.3384  -5.2736  -5.2733  -5.2248  -5.2244  -5.1089  -5.1087
    -5.0350  -5.0348  -4.9405  -4.9404  -4.8516  -4.8516  -4.7250  -4.7249
    -4.6713  -4.6711  -4.6020  -4.6019  -4.5091  -4.5090  -4.4908  -4.4908
    -4.4201  -4.4200  -4.3244  -4.3243  -4.2880  -4.2879  -4.2672  -4.2671
    -3.6613  -3.6611  -3.5960  -3.5959  -3.4981  -3.4978  -3.4349  -3.4346
    -3.4132  -3.4129  -3.3600  -3.3597  -3.2486  -3.2485  -3.1551  -3.1546
    -2.9868  -2.9867  -2.8958  -2.8957  -2.8656  -2.8655  -2.7697  -2.7697
    -2.7339  -2.7338  -2.7144  -2.7144  -2.6312  -2.6311  -2.5867  -2.5865
    -2.5407  -2.5407  -2.5142  -2.5140  -2.3694  -2.3694  -2.2939  -2.2938
    -2.1057  -2.1055  -2.0499  -2.0498  -1.9272  -1.9270  -1.9069  -1.9068
    -1.8521  -1.8521  -1.8004  -1.8003  -1.6983  -1.6983  -1.6157  -1.6153
    -1.5559  -1.5558  -1.5036  -1.5035  -1.4742  -1.4740  -1.3540  -1.3539
    -1.0221  -1.0221  -0.9102  -0.9101  -0.8776  -0.8776  -0.7482  -0.7481
    -0.6949  -0.6948  -0.6154  -0.6152  -0.2600  -0.2597  -0.1378  -0.1376
     0.1286   0.1288   0.2161   0.2162   0.8917   0.8918   1.0273   1.0276
     3.1919   3.1920   3.2454   3.2455   3.3395   3.3395   3.3921   3.3927
     5.1956   5.1958   5.3668   5.3672   5.8565   5.8566   5.9358   5.9361
     6.1655   6.1655   6.5684   6.5685   6.7337   6.7338   7.0835   7.0837
     7.1442   7.1442   7.2746   7.2748   7.4903   7.4906   7.5978   7.5979
     7.6666   7.6667   7.8136   7.8138   7.9412   7.9415   8.0524   8.0525
     8.2083

          k = 0.0000-0.7593-0.4838 (163396 PWs)   bands (ev):

   -19.3362 -19.3360 -19.2385 -19.2381 -19.0744 -19.0742 -18.9798 -18.9793
   -15.8429 -15.8427 -15.7432 -15.7432 -15.3950 -15.3948 -15.2959 -15.2959
   -14.8249 -14.8248 -14.7214 -14.7211 -14.1510 -14.1507 -14.0829 -14.0829
   -13.9016 -13.9012 -13.8472 -13.8472 -12.4755 -12.4754 -12.3504 -12.3499
   -11.5336 -11.5332 -11.4569 -11.4568 -11.4248 -11.4245 -11.3277 -11.3276
   -10.9365 -10.9363 -10.8376 -10.8372 -10.7003 -10.7002 -10.6128 -10.6127
   -10.5856 -10.5855 -10.5756 -10.5756 -10.1439 -10.1438 -10.0448 -10.0446
    -9.8594  -9.8593  -9.7398  -9.7395  -8.9426  -8.9424  -8.8585  -8.8583
    -7.2856  -7.2855  -7.1806  -7.1804  -7.1506  -7.1505  -7.0776  -7.0773
    -7.0064  -7.0061  -6.9604  -6.9602  -6.7487  -6.7486  -6.6610  -6.6607
    -6.5987  -6.5985  -6.5182  -6.5181  -5.8041  -5.8041  -5.6000  -5.5999
    -5.3352  -5.3352  -5.2723  -5.2720  -5.2111  -5.2108  -5.1012  -5.1011
    -5.0407  -5.0406  -4.9366  -4.9365  -4.8722  -4.8721  -4.7499  -4.7497
    -4.6865  -4.6863  -4.5892  -4.5890  -4.5376  -4.5375  -4.4418  -4.4417
    -4.4222  -4.4220  -4.3638  -4.3636  -4.2827  -4.2826  -4.2617  -4.2615
    -3.6553  -3.6553  -3.5881  -3.5881  -3.4765  -3.4762  -3.4674  -3.4673
    -3.3906  -3.3904  -3.3410  -3.3408  -3.2411  -3.2410  -3.1826  -3.1821
    -2.9767  -2.9765  -2.8810  -2.8809  -2.8673  -2.8671  -2.7983  -2.7983
    -2.7227  -2.7227  -2.7058  -2.7056  -2.6388  -2.6386  -2.5853  -2.5851
    -2.5348  -2.5347  -2.5212  -2.5209  -2.3915  -2.3915  -2.2212  -2.2211
    -2.1496  -2.1495  -2.0224  -2.0222  -1.9856  -1.9855  -1.9016  -1.9014
    -1.8503  -1.8502  -1.7905  -1.7904  -1.7392  -1.7390  -1.6133  -1.6132
    -1.5564  -1.5562  -1.4911  -1.4909  -1.4398  -1.4396  -1.3499  -1.3497
    -0.9911  -0.9907  -0.9234  -0.9233  -0.8756  -0.8755  -0.8228  -0.8225
    -0.6998  -0.6998  -0.5569  -0.5569  -0.3050  -0.3049  -0.1193  -0.1191
     0.1262   0.1264   0.2416   0.2417   0.8914   0.8916   1.0185   1.0189
     3.1506   3.1508   3.2348   3.2348   3.3698   3.3700   3.4231   3.4233
     5.1780   5.1782   5.3755   5.3759   5.8063   5.8064   5.9890   5.9892
     6.2117   6.2119   6.5528   6.5530   6.6449   6.6451   7.0452   7.0455
     7.2313   7.2317   7.3091   7.3092   7.4911   7.4915   7.5248   7.5251
     7.7272   7.7275   7.7533   7.7534   7.9470   7.9473   8.1890   8.1892
     8.2031

          k =-0.5000 0.0000-0.0478 (163364 PWs)   bands (ev):

   -19.3372 -19.3370 -19.2407 -19.2403 -19.0735 -19.0733 -18.9780 -18.9775
   -15.8294 -15.8292 -15.7298 -15.7298 -15.3881 -15.3878 -15.2894 -15.2893
   -14.8345 -14.8343 -14.7373 -14.7370 -14.1740 -14.1736 -14.1010 -14.1009
   -13.9142 -13.9137 -13.8591 -13.8591 -12.4556 -12.4554 -12.3418 -12.3413
   -11.5212 -11.5208 -11.4676 -11.4674 -11.4000 -11.3997 -11.3245 -11.3245
   -10.9587 -10.9585 -10.8386 -10.8382 -10.6958 -10.6957 -10.6614 -10.6614
   -10.5791 -10.5790 -10.5503 -10.5503 -10.1302 -10.1301 -10.0219 -10.0217
    -9.8244  -9.8242  -9.6926  -9.6923  -8.9185  -8.9184  -8.8327  -8.8326
    -7.3058  -7.3057  -7.1968  -7.1967  -7.1053  -7.1051  -7.0748  -7.0747
    -7.0425  -7.0424  -6.9970  -6.9967  -6.8106  -6.8106  -6.7159  -6.7159
    -6.6632  -6.6632  -6.5678  -6.5676  -5.7089  -5.7089  -5.6254  -5.6253
    -5.3816  -5.3814  -5.3505  -5.3503  -5.2518  -5.2516  -5.1251  -5.1250
    -5.0777  -5.0774  -5.0415  -5.0415  -4.8925  -4.8923  -4.7323  -4.7321
    -4.6326  -4.6324  -4.5702  -4.5701  -4.4992  -4.4992  -4.4488  -4.4486
    -4.3893  -4.3893  -4.3355  -4.3354  -4.2727  -4.2725  -4.2231  -4.2231
    -3.6214  -3.6214  -3.5806  -3.5805  -3.5104  -3.5103  -3.4664  -3.4661
    -3.4445  -3.4444  -3.3134  -3.3131  -3.1738  -3.1738  -3.0462  -3.0460
    -2.9460  -2.9459  -2.9124  -2.9124  -2.8510  -2.8510  -2.7612  -2.7610
    -2.7446  -2.7446  -2.7206  -2.7204  -2.6519  -2.6518  -2.6172  -2.6171
    -2.5596  -2.5594  -2.4335  -2.4334  -2.2791  -2.2791  -2.1076  -2.1075
    -2.0503  -2.0502  -1.9867  -1.9865  -1.8803  -1.8802  -1.8445  -1.8445
    -1.7832  -1.7832  -1.7619  -1.7616  -1.6934  -1.6933  -1.6234  -1.6232
    -1.5495  -1.5495  -1.4759  -1.4757  -1.4553  -1.4551  -1.4013  -1.4013
    -1.1972  -1.1971  -1.0145  -1.0143  -0.9662  -0.9660  -0.8100  -0.8099
    -0.7923  -0.7921  -0.6463  -0.6462  -0.3521  -0.3520  -0.1654  -0.1653
     0.1388   0.1390   0.2830   0.2831   0.8535   0.8537   0.9263   0.9265
     3.1670   3.1670   3.2316   3.2318   3.3274   3.3280   3.3904   3.3906
     5.1936   5.1938   5.3615   5.3619   5.8695   5.8696   6.0309   6.0310
     6.0788   6.0789   6.6101   6.6101   6.8555   6.8557   7.1971   7.1971
     7.2714   7.2715   7.3807   7.3808   7.4849   7.4850   7.5740   7.5740
     7.8081   7.8083   7.8669   7.8670   7.9413   7.9414   8.0426   8.0427
     8.1159

          k =-0.5000 0.0000-0.5316 (163414 PWs)   bands (ev):

   -19.3372 -19.3370 -19.2408 -19.2404 -19.0735 -19.0733 -18.9780 -18.9775
   -15.8304 -15.8274 -15.7327 -15.7283 -15.3883 -15.3870 -15.2912 -15.2875
   -14.8342 -14.8339 -14.7377 -14.7374 -14.1786 -14.1672 -14.1103 -14.0936
   -13.9157 -13.9107 -13.8639 -13.8558 -12.4560 -12.4549 -12.3424 -12.3408
   -11.5402 -11.5009 -11.4941 -11.4395 -11.4002 -11.3994 -11.3252 -11.3237
   -10.9634 -10.9550 -10.8414 -10.8404 -10.7051 -10.6793 -10.6703 -10.6475
   -10.5853 -10.5612 -10.5591 -10.5532 -10.1685 -10.0932 -10.0860  -9.9638
    -9.8258  -9.8181  -9.7022  -9.6871  -8.9177  -8.9160  -8.8375  -8.8350
    -7.3345  -7.2788  -7.2380  -7.1616  -7.1215  -7.1131  -7.1065  -7.1031
    -7.0080  -7.0012  -6.9901  -6.9080  -6.8063  -6.7956  -6.7685  -6.7167
    -6.6851  -6.6759  -6.6200  -6.5243  -5.7056  -5.7026  -5.6664  -5.6145
    -5.3905  -5.3714  -5.3460  -5.3164  -5.2195  -5.1781  -5.1342  -5.1281
    -5.1186  -5.0733  -5.0546  -5.0498  -4.9196  -4.8739  -4.8334  -4.7849
    -4.6636  -4.5910  -4.5884  -4.5101  -4.5017  -4.4891  -4.4245  -4.3897
    -4.3840  -4.3755  -4.3527  -4.3463  -4.3144  -4.2857  -4.2440  -4.1775
    -3.6202  -3.6119  -3.6063  -3.5931  -3.5456  -3.5394  -3.4756  -3.4674
    -3.3923  -3.3562  -3.3352  -3.3076  -3.1526  -3.1202  -3.0965  -3.0703
    -2.9928  -2.9720  -2.8945  -2.8799  -2.8708  -2.8671  -2.7708  -2.7702
    -2.7547  -2.7396  -2.6975  -2.6859  -2.6814  -2.6566  -2.6319  -2.5610
    -2.5325  -2.5241  -2.4945  -2.4337  -2.2037  -2.1912  -2.1805  -2.1721
    -2.0723  -2.0332  -2.0111  -1.9916  -1.9018  -1.8521  -1.8185  -1.7886
    -1.7736  -1.7687  -1.7603  -1.7198  -1.7194  -1.6871  -1.6798  -1.6310
    -1.6121  -1.5034  -1.4760  -1.4737  -1.4342  -1.4339  -1.4199  -1.4040
    -1.2216  -1.2124  -1.1729  -1.1618  -0.8668  -0.8383  -0.8344  -0.8168
    -0.7664  -0.7129  -0.6894  -0.6450  -0.3012  -0.2870  -0.2034  -0.2003
     0.1382   0.1415   0.2564   0.2615   0.8535   0.8545   0.9348   0.9392
     3.1928   3.1968   3.2536   3.2729   3.2983   3.3119   3.3434   3.3478
     5.2134   5.2153   5.3431   5.3464   5.8889   5.9287   6.0255   6.0358
     6.1275   6.1734   6.2904   6.4853   6.9649   7.0333   7.0866   7.1372
     7.2950   7.3926   7.4017   7.4218   7.4708   7.5193   7.6653   7.6937
     7.7550   7.7844   7.8011   7.8086   7.8212   7.8825   7.8878   7.9351
     8.2060

          k =-0.5000-0.7593-0.0478 (163388 PWs)   bands (ev):

   -19.3360 -19.3359 -19.2388 -19.2384 -19.0742 -19.0741 -18.9798 -18.9793
   -15.8428 -15.8426 -15.7439 -15.7439 -15.3926 -15.3923 -15.2977 -15.2976
   -14.8245 -14.8243 -14.7218 -14.7215 -14.1505 -14.1501 -14.0848 -14.0848
   -13.8995 -13.8990 -13.8482 -13.8482 -12.4748 -12.4747 -12.3508 -12.3503
   -11.5303 -11.5299 -11.4621 -11.4620 -11.4211 -11.4208 -11.3316 -11.3316
   -10.9364 -10.9362 -10.8405 -10.8401 -10.6883 -10.6883 -10.6312 -10.6312
   -10.5867 -10.5866 -10.5609 -10.5608 -10.1403 -10.1401 -10.0468 -10.0466
    -9.8583  -9.8581  -9.7459  -9.7456  -8.9407  -8.9404  -8.8613  -8.8612
    -7.2845  -7.2843  -7.1819  -7.1817  -7.1135  -7.1134  -7.0686  -7.0683
    -7.0270  -7.0269  -6.9930  -6.9926  -6.7441  -6.7440  -6.6398  -6.6394
    -6.6056  -6.6053  -6.5332  -6.5331  -5.7437  -5.7436  -5.6810  -5.6809
    -5.3396  -5.3395  -5.2322  -5.2318  -5.1648  -5.1645  -5.1407  -5.1404
    -5.0379  -5.0378  -4.9702  -4.9701  -4.8140  -4.8139  -4.7978  -4.7977
    -4.6754  -4.6752  -4.6325  -4.6323  -4.4954  -4.4953  -4.4766  -4.4765
    -4.3846  -4.3845  -4.3716  -4.3714  -4.2925  -4.2922  -4.2508  -4.2506
    -3.6410  -3.6409  -3.6246  -3.6244  -3.4699  -3.4696  -3.4437  -3.4434
    -3.4044  -3.4041  -3.3426  -3.3423  -3.2511  -3.2509  -3.1525  -3.1520
    -3.0043  -3.0041  -2.9610  -2.9609  -2.8256  -2.8255  -2.7447  -2.7447
    -2.7203  -2.7202  -2.6802  -2.6801  -2.6246  -2.6245  -2.5958  -2.5958
    -2.5515  -2.5511  -2.5337  -2.5337  -2.3633  -2.3633  -2.3092  -2.3091
    -2.0798  -2.0796  -2.0733  -2.0731  -1.9226  -1.9226  -1.9085  -1.9084
    -1.8146  -1.8144  -1.7477  -1.7476  -1.7043  -1.7042  -1.6597  -1.6596
    -1.5924  -1.5920  -1.5097  -1.5096  -1.4738  -1.4736  -1.3814  -1.3813
    -1.0264  -1.0264  -1.0086  -1.0085  -0.7620  -0.7619  -0.7483  -0.7481
    -0.6922  -0.6921  -0.6088  -0.6086  -0.2583  -0.2581  -0.1420  -0.1418
     0.1300   0.1302   0.2148   0.2150   0.8926   0.8928   1.0274   1.0277
     3.2215   3.2216   3.2452   3.2454   3.3091   3.3092   3.3892   3.3899
     5.2383   5.2385   5.3199   5.3204   5.8528   5.8528   5.9297   5.9299
     6.2816   6.2819   6.3466   6.3468   6.8741   6.8742   6.9435   6.9436
     7.2370   7.2371   7.3292   7.3293   7.4685   7.4687   7.6138   7.6141
     7.7298   7.7299   7.7523   7.7525   8.0243   8.0244   8.0626   8.0630
     8.1533

          k =-0.5000-0.7593-0.5316 (163284 PWs)   bands (ev):

   -19.3360 -19.3359 -19.2387 -19.2383 -19.0743 -19.0741 -18.9798 -18.9793
   -15.8428 -15.8426 -15.7437 -15.7437 -15.3932 -15.3930 -15.2971 -15.2971
   -14.8250 -14.8248 -14.7215 -14.7212 -14.1510 -14.1507 -14.0833 -14.0833
   -13.9005 -13.9001 -13.8480 -13.8480 -12.4754 -12.4753 -12.3510 -12.3505
   -11.5326 -11.5322 -11.4565 -11.4563 -11.4235 -11.4232 -11.3289 -11.3289
   -10.9376 -10.9374 -10.8392 -10.8389 -10.6879 -10.6878 -10.6365 -10.6365
   -10.5901 -10.5901 -10.5574 -10.5574 -10.1412 -10.1411 -10.0415 -10.0413
    -9.8608  -9.8607  -9.7471  -9.7468  -8.9407  -8.9405  -8.8597  -8.8595
    -7.2904  -7.2903  -7.1933  -7.1932  -7.1091  -7.1090  -7.0643  -7.0640
    -7.0154  -7.0152  -6.9871  -6.9868  -6.7435  -6.7434  -6.6643  -6.6641
    -6.6008  -6.6008  -6.5209  -6.5208  -5.7907  -5.7907  -5.6252  -5.6252
    -5.3380  -5.3379  -5.2150  -5.2147  -5.1906  -5.1905  -5.1046  -5.1045
    -5.0373  -5.0372  -4.9819  -4.9819  -4.8425  -4.8425  -4.7947  -4.7945
    -4.6983  -4.6981  -4.6104  -4.6102  -4.5083  -4.5083  -4.5023  -4.5022
    -4.3963  -4.3962  -4.3718  -4.3717  -4.2666  -4.2666  -4.2473  -4.2473
    -3.6405  -3.6405  -3.6097  -3.6096  -3.4757  -3.4756  -3.4481  -3.4480
    -3.3855  -3.3853  -3.3298  -3.3296  -3.2451  -3.2450  -3.1732  -3.1727
    -3.0229  -3.0227  -2.9091  -2.9090  -2.8194  -2.8194  -2.7853  -2.7852
    -2.7070  -2.7069  -2.6798  -2.6798  -2.6363  -2.6361  -2.6121  -2.6120
    -2.5536  -2.5535  -2.5042  -2.5040  -2.4212  -2.4212  -2.2365  -2.2365
    -2.0833  -2.0832  -2.0421  -2.0420  -1.9427  -1.9427  -1.8935  -1.8935
    -1.8664  -1.8664  -1.7830  -1.7828  -1.7288  -1.7287  -1.6612  -1.6611
    -1.5704  -1.5701  -1.5036  -1.5035  -1.4357  -1.4356  -1.3718  -1.3718
    -1.0389  -1.0389  -0.9698  -0.9694  -0.8367  -0.8365  -0.7435  -0.7434
    -0.7027  -0.7027  -0.5580  -0.5580  -0.3032  -0.3031  -0.1225  -0.1223
     0.1278   0.1280   0.2399   0.2400   0.8922   0.8923   1.0189   1.0192
     3.1712   3.1713   3.2263   3.2264   3.3628   3.3629   3.4144   3.4147
     5.2110   5.2111   5.3385   5.3389   5.8010   5.8010   5.9790   5.9792
     6.2738   6.2741   6.4341   6.4342   6.6982   6.6985   7.1063   7.1064
     7.1359   7.1360   7.2736   7.2738   7.5165   7.5167   7.6511   7.6511
     7.7067   7.7067   7.7987   7.7987   8.0009   8.0010   8.0603   8.0605
     8.2094

     highest occupied, lowest unoccupied level (ev):     1.0277    3.1467

!    total energy              =   -1726.52354941 Ry
     Harris-Foulkes estimate   =   -1726.52354942 Ry
     estimated scf accuracy    <          3.8E-09 Ry

     total all-electron energy =     -6724.206512 Ry

     The total energy is the sum of the following terms:

     one-electron contribution =   -1009.88794140 Ry
     hartree contribution      =     654.15963017 Ry
     xc contribution           =    -409.04433244 Ry
     ewald contribution        =    -402.74832911 Ry
     Dispersion Correction     =      -0.74318643 Ry
     one-center paw contrib.   =    -558.25939021 Ry

     convergence has been achieved in  23 iterations

     Forces acting on atoms (cartesian axes, Ry/au):

     atom    1 type  2   force =    -0.00115928    0.00004220    0.00024722
     atom    2 type  2   force =     0.00115838    0.00003719   -0.00026316
     atom    3 type  2   force =     0.00115928   -0.00004220   -0.00024722
     atom    4 type  2   force =    -0.00115838   -0.00003719    0.00026316
     atom    5 type  2   force =     0.00076565   -0.00061752    0.00009889
     atom    6 type  2   force =    -0.00077145   -0.00062633   -0.00011035
     atom    7 type  2   force =    -0.00076565    0.00061752   -0.00009889
     atom    8 type  2   force =     0.00077145    0.00062633    0.00011035
     atom    9 type  2   force =    -0.00150001   -0.00022545   -0.00018473
     atom   10 type  2   force =     0.00144711   -0.00020542    0.00024285
     atom   11 type  2   force =     0.00150001    0.00022545    0.00018473
     atom   12 type  2   force =    -0.00144711    0.00020542   -0.00024285
     atom   13 type  2   force =     0.00113964    0.00046826   -0.00060766
     atom   14 type  2   force =    -0.00114219    0.00044068    0.00058391
     atom   15 type  2   force =    -0.00113964   -0.00046826    0.00060766
     atom   16 type  2   force =     0.00114219   -0.00044068   -0.00058391
     atom   17 type  1   force =     0.00063649   -0.00046538   -0.00162999
     atom   18 type  1   force =    -0.00064470   -0.00046273    0.00172599
     atom   19 type  1   force =    -0.00063649    0.00046538    0.00162999
     atom   20 type  1   force =     0.00064470    0.00046273   -0.00172599
     atom   21 type  1   force =    -0.00037551    0.00120010   -0.00077121
     atom   22 type  1   force =     0.00039368    0.00121013    0.00085123
     atom   23 type  1   force =     0.00037551   -0.00120010    0.00077121
     atom   24 type  1   force =    -0.00039368   -0.00121013   -0.00085123
     atom   25 type  1   force =     0.00121668   -0.00018483    0.00050566
     atom   26 type  1   force =    -0.00120871   -0.00018117   -0.00043892
     atom   27 type  1   force =    -0.00121668    0.00018483   -0.00050566
     atom   28 type  1   force =     0.00120871    0.00018117    0.00043892
     atom   29 type  1   force =    -0.00047083   -0.00132098    0.00073703
     atom   30 type  1   force =     0.00046924   -0.00132732   -0.00073395
     atom   31 type  1   force =     0.00047083    0.00132098   -0.00073703
     atom   32 type  1   force =    -0.00046924    0.00132732    0.00073395
     atom   33 type  3   force =    -0.00001353   -0.00033204   -0.00085899
     atom   34 type  3   force =     0.00001228   -0.00033324    0.00085240
     atom   35 type  3   force =     0.00001353    0.00033204    0.00085899
     atom   36 type  3   force =    -0.00001228    0.00033324   -0.00085240
     atom   37 type  3   force =    -0.00010328    0.00037582    0.00053432
     atom   38 type  3   force =     0.00010543    0.00038793   -0.00053546
     atom   39 type  3   force =     0.00010328   -0.00037582   -0.00053432
     atom   40 type  3   force =    -0.00010543   -0.00038793    0.00053546
     atom   41 type  1   force =    -0.00017229    0.00074210    0.00055689
     atom   42 type  1   force =     0.00017845    0.00074239   -0.00063473
     atom   43 type  1   force =     0.00017229   -0.00074210   -0.00055689
     atom   44 type  1   force =    -0.00017845   -0.00074239    0.00063473
     atom   45 type  3   force =    -0.00006038   -0.00055903    0.00105602
     atom   46 type  3   force =     0.00006483   -0.00056089   -0.00105406
     atom   47 type  3   force =     0.00006038    0.00055903   -0.00105602
     atom   48 type  3   force =    -0.00006483    0.00056089    0.00105406
     atom   49 type  3   force =     0.00061369    0.00048586   -0.00053387
     atom   50 type  3   force =    -0.00061990    0.00048814    0.00053049
     atom   51 type  3   force =    -0.00061369   -0.00048586    0.00053387
     atom   52 type  3   force =     0.00061990   -0.00048814   -0.00053049
     atom   53 type  1   force =     0.00069088    0.00066763   -0.00056637
     atom   54 type  1   force =    -0.00068742    0.00066908    0.00054215
     atom   55 type  1   force =    -0.00069088   -0.00066763    0.00056637
     atom   56 type  1   force =     0.00068742   -0.00066908   -0.00054215
     atom   57 type  1   force =    -0.00018346   -0.00093771    0.00154533
     atom   58 type  1   force =     0.00018171   -0.00093793   -0.00147605
     atom   59 type  1   force =     0.00018346    0.00093771   -0.00154533
     atom   60 type  1   force =    -0.00018171    0.00093793    0.00147605
     atom   61 type  3   force =    -0.00002120   -0.00002373    0.00051386
     atom   62 type  3   force =     0.00001973   -0.00002327   -0.00052528
     atom   63 type  3   force =     0.00002120    0.00002373   -0.00051386
     atom   64 type  3   force =    -0.00001973    0.00002327    0.00052528
     atom   65 type  3   force =     0.00037597   -0.00017289   -0.00049634
     atom   66 type  3   force =    -0.00037632   -0.00017866    0.00050097
     atom   67 type  3   force =    -0.00037597    0.00017289    0.00049634
     atom   68 type  3   force =     0.00037632    0.00017866   -0.00050097
     atom   69 type  3   force =     0.00058180    0.00025548   -0.00040352
     atom   70 type  3   force =    -0.00058495    0.00025373    0.00040335
     atom   71 type  3   force =    -0.00058180   -0.00025548    0.00040352
     atom   72 type  3   force =     0.00058495   -0.00025373   -0.00040335
     atom   73 type  1   force =    -0.00039829   -0.00132370   -0.00002227
     atom   74 type  1   force =     0.00040195   -0.00132048   -0.00008315
     atom   75 type  1   force =     0.00039829    0.00132370    0.00002227
     atom   76 type  1   force =    -0.00040195    0.00132048    0.00008315
     atom   77 type  3   force =    -0.00020053    0.00070616    0.00037792
     atom   78 type  3   force =     0.00020144    0.00071006   -0.00036928
     atom   79 type  3   force =     0.00020053   -0.00070616   -0.00037792
     atom   80 type  3   force =    -0.00020144   -0.00071006    0.00036928
     atom   81 type  3   force =     0.00012792    0.00114860    0.00000474
     atom   82 type  3   force =    -0.00012765    0.00115092    0.00000702
     atom   83 type  3   force =    -0.00012792   -0.00114860   -0.00000474
     atom   84 type  3   force =     0.00012765   -0.00115092   -0.00000702
     atom   85 type  3   force =     0.00006879   -0.00029111   -0.00016906
     atom   86 type  3   force =    -0.00006911   -0.00028476    0.00016786
     atom   87 type  3   force =    -0.00006879    0.00029111    0.00016906
     atom   88 type  3   force =     0.00006911    0.00028476   -0.00016786
     atom   89 type  1   force =     0.00247712   -0.00113967    0.00116731
     atom   90 type  1   force =    -0.00242107   -0.00119920   -0.00113909
     atom   91 type  1   force =    -0.00247712    0.00113967   -0.00116731
     atom   92 type  1   force =     0.00242107    0.00119920    0.00113909
     atom   93 type  1   force =     0.00071935    0.00281589    0.00133198
     atom   94 type  1   force =    -0.00078942    0.00285848   -0.00128774
     atom   95 type  1   force =    -0.00071935   -0.00281589   -0.00133198
     atom   96 type  1   force =     0.00078942   -0.00285848    0.00128774
     atom   97 type  1   force =     0.00029743   -0.00119073   -0.00110634
     atom   98 type  1   force =    -0.00033044   -0.00112658    0.00124022
     atom   99 type  1   force =    -0.00029743    0.00119073    0.00110634
     atom  100 type  1   force =     0.00033044    0.00112658   -0.00124022
     atom  101 type  1   force =    -0.00093498   -0.00111239    0.00043374
     atom  102 type  1   force =     0.00092899   -0.00111647   -0.00033054
     atom  103 type  1   force =     0.00093498    0.00111239   -0.00043374
     atom  104 type  1   force =    -0.00092899    0.00111647    0.00033054
     atom  105 type  3   force =    -0.00044898    0.00028680    0.00005429
     atom  106 type  3   force =     0.00044400    0.00028820   -0.00005602
     atom  107 type  3   force =     0.00044898   -0.00028680   -0.00005429
     atom  108 type  3   force =    -0.00044400   -0.00028820    0.00005602
     atom  109 type  3   force =     0.00076486   -0.00000429    0.00018095
     atom  110 type  3   force =    -0.00076642    0.00000179   -0.00018738
     atom  111 type  3   force =    -0.00076486    0.00000429   -0.00018095
     atom  112 type  3   force =     0.00076642   -0.00000179    0.00018738
     atom  113 type  1   force =    -0.00102509    0.00029301   -0.00003574
     atom  114 type  1   force =     0.00101275    0.00030193    0.00017103
     atom  115 type  1   force =     0.00102509   -0.00029301    0.00003574
     atom  116 type  1   force =    -0.00101275   -0.00030193   -0.00017103
     atom  117 type  3   force =     0.00045245    0.00024302   -0.00024314
     atom  118 type  3   force =    -0.00045147    0.00023820    0.00024728
     atom  119 type  3   force =    -0.00045245   -0.00024302    0.00024314
     atom  120 type  3   force =     0.00045147   -0.00023820   -0.00024728
     atom  121 type  3   force =    -0.00118714   -0.00061782    0.00003783
     atom  122 type  3   force =     0.00118642   -0.00062090   -0.00004595
     atom  123 type  3   force =     0.00118714    0.00061782   -0.00003783
     atom  124 type  3   force =    -0.00118642    0.00062090    0.00004595
     atom  125 type  1   force =     0.00030544    0.00065110   -0.00084068
     atom  126 type  1   force =    -0.00030491    0.00065320    0.00083578
     atom  127 type  1   force =    -0.00030544   -0.00065110    0.00084068
     atom  128 type  1   force =     0.00030491   -0.00065320   -0.00083578
     atom  129 type  1   force =    -0.00077212   -0.00023306   -0.00023882
     atom  130 type  1   force =     0.00077515   -0.00022872    0.00034601
     atom  131 type  1   force =     0.00077212    0.00023306    0.00023882
     atom  132 type  1   force =    -0.00077515    0.00022872   -0.00034601
     atom  133 type  3   force =     0.00021970   -0.00065003    0.00033062
     atom  134 type  3   force =    -0.00021758   -0.00064385   -0.00033333
     atom  135 type  3   force =    -0.00021970    0.00065003   -0.00033062
     atom  136 type  3   force =     0.00021758    0.00064385    0.00033333
     atom  137 type  3   force =    -0.00059226    0.00030000   -0.00026032
     atom  138 type  3   force =     0.00059310    0.00030775    0.00024774
     atom  139 type  3   force =     0.00059226   -0.00030000    0.00026032
     atom  140 type  3   force =    -0.00059310   -0.00030775   -0.00024774
     atom  141 type  3   force =     0.00076276   -0.00003128   -0.00057142
     atom  142 type  3   force =    -0.00076414   -0.00002249    0.00057423
     atom  143 type  3   force =    -0.00076276    0.00003128    0.00057142
     atom  144 type  3   force =     0.00076414    0.00002249   -0.00057423
     atom  145 type  1   force =     0.00002879   -0.00127490    0.00023593
     atom  146 type  1   force =    -0.00002510   -0.00126985   -0.00025537
     atom  147 type  1   force =    -0.00002879    0.00127490   -0.00023593
     atom  148 type  1   force =     0.00002510    0.00126985    0.00025537
     atom  149 type  3   force =    -0.00033888    0.00052260    0.00023734
     atom  150 type  3   force =     0.00034523    0.00053703   -0.00024149
     atom  151 type  3   force =     0.00033888   -0.00052260   -0.00023734
     atom  152 type  3   force =    -0.00034523   -0.00053703    0.00024149
     atom  153 type  3   force =     0.00029026   -0.00021509   -0.00017654
     atom  154 type  3   force =    -0.00028477   -0.00020977    0.00017723
     atom  155 type  3   force =    -0.00029026    0.00021509    0.00017654
     atom  156 type  3   force =     0.00028477    0.00020977   -0.00017723
     atom  157 type  3   force =     0.00021187    0.00103632    0.00012552
     atom  158 type  3   force =    -0.00020586    0.00104471   -0.00013269
     atom  159 type  3   force =    -0.00021187   -0.00103632   -0.00012552
     atom  160 type  3   force =     0.00020586   -0.00104471    0.00013269

     Total force =     0.016302     Total SCF correction =     0.000127


     Computing stress (Cartesian axis) and pressure

          total   stress  (Ry/bohr**3)                   (kbar)     P=   -6.54
  -0.00004186  -0.00000007  -0.00000468         -6.16     -0.01     -0.69
  -0.00000007  -0.00005410   0.00000012         -0.01     -7.96      0.02
  -0.00000468   0.00000012  -0.00003734         -0.69      0.02     -5.49


     Writing output data file scf.save
 
     init_run     :    107.03s CPU    110.78s WALL (       1 calls)
     electrons    :   4930.25s CPU   5094.85s WALL (       1 calls)
     forces       :     48.16s CPU     48.61s WALL (       1 calls)
     stress       :    366.45s CPU    367.21s WALL (       1 calls)

     Called by init_run:
     wfcinit      :     87.80s CPU     90.98s WALL (       1 calls)
     potinit      :      6.74s CPU      6.82s WALL (       1 calls)

     Called by electrons:
     c_bands      :   4448.99s CPU   4592.74s WALL (      23 calls)
     sum_band     :    445.58s CPU    462.40s WALL (      23 calls)
     v_of_rho     :      4.80s CPU      5.22s WALL (      24 calls)
     newd         :     13.06s CPU     16.58s WALL (      24 calls)
     PAW_pot      :     16.32s CPU     16.34s WALL (      24 calls)
     mix_rho      :      1.33s CPU      1.41s WALL (      23 calls)

     Called by c_bands:
     init_us_2    :     28.98s CPU     29.08s WALL (     392 calls)
     cegterg      :   4342.24s CPU   4485.83s WALL (     184 calls)

     Called by sum_band:
     sum_band:bec :      0.26s CPU      0.26s WALL (     184 calls)
     addusdens    :     13.45s CPU     16.83s WALL (      23 calls)

     Called by *egterg:
     h_psi        :   2442.65s CPU   2549.28s WALL (     884 calls)
     s_psi        :    523.30s CPU    523.56s WALL (     884 calls)
     g_psi        :     15.17s CPU     15.18s WALL (     692 calls)
     cdiaghg      :    211.94s CPU    212.17s WALL (     876 calls)

     Called by h_psi:
     h_psi:pot    :   2425.61s CPU   2532.02s WALL (     884 calls)
     h_psi:calbec :    496.61s CPU    497.56s WALL (     884 calls)
     vloc_psi     :   1406.04s CPU   1511.18s WALL (     884 calls)
     add_vuspsi   :    522.95s CPU    523.27s WALL (     884 calls)

     General routines
     calbec       :    696.37s CPU    697.68s WALL (    1108 calls)
     fft          :      3.24s CPU      4.24s WALL (     336 calls)
     fftw         :   1502.73s CPU   1620.56s WALL (  318824 calls)
 
     Parallel routines
     fft_scatter  :    239.27s CPU    347.81s WALL (  319160 calls)
 
     PWSCF        :     1h31m CPU        1h34m WALL

 
   This run was terminated on:  23:25:17   3Nov2017            

=------------------------------------------------------------------------------=
   JOB DONE.
=------------------------------------------------------------------------------=
