
     Program PWSCF v.6.1 (svn rev. 13369) starts on  5Nov2017 at 17:25:40 

     This program is part of the open-source Quantum ESPRESSO suite
     for quantum simulation of materials; please cite
         "P. Giannozzi et al., J. Phys.:Condens. Matter 21 395502 (2009);
          URL http://www.quantum-espresso.org", 
     in publications or presentations arising from this work. More details at
     http://www.quantum-espresso.org/quote

     Parallel version (MPI), running on     8 processors
     R & G space division:  proc/nbgrp/npool/nimage =       8
     Waiting for input...
     Reading input from standard input

     Current dimensions of program PWSCF are:
     Max number of different atomic species (ntypx) = 10
     Max number of k-points (npk) =  40000
     Max angular momentum in pseudopotentials (lmaxx) =  3
               file C.pbe-n-kjpaw_psl.0.1.UPF: wavefunction(s)  2P renormalized
               file N.pbe-n-kjpaw_psl.0.1.UPF: wavefunction(s)  2P renormalized
               file H.pbe-kjpaw_psl.0.1.UPF: wavefunction(s)  1S renormalized
               file O.pbe-n-kjpaw_psl.0.1.UPF: wavefunction(s)  2P renormalized

     -------------------------------------
     Parameters for Dispersion Correction:
     -------------------------------------
       atom      VdW radius       C_6     

        C          2.744         60.710
        N          2.640         42.670
        H          1.892          4.857
        O          2.536         24.284

     Subspace diagonalization in iterative solution of the eigenvalue problem:
     a serial algorithm will be used

 
     Parallelization info
     --------------------
     sticks:   dense  smooth     PW     G-vecs:    dense   smooth      PW
     Min         743     743    196               101766   101766   13776
     Max         745     745    197               101769   101769   13783
     Sum        5951    5951   1573               814141   814141  110241
 


     bravais-lattice index     =            0
     lattice parameter (alat)  =      15.8295  a.u.
     unit-cell volume          =    6025.4632 (a.u.)^3
     number of atoms/cell      =           92
     number of atomic types    =            4
     number of electrons       =       312.00
     number of Kohn-Sham states=          187
     kinetic-energy cutoff     =     100.0000  Ry
     charge density cutoff     =     400.0000  Ry
     convergence threshold     =      1.0E-08
     mixing beta               =       0.5000
     number of iterations used =            8  plain     mixing
     Exchange-correlation      =  SLA  PW   PBX  PBC ( 1  4  3  4 0 0)

     celldm(1)=  15.829480  celldm(2)=   0.000000  celldm(3)=   0.000000
     celldm(4)=   0.000000  celldm(5)=   0.000000  celldm(6)=   0.000000

     crystal axes: (cart. coord. in units of alat)
               a(1) = (   1.000000   0.000000   0.000000 )  
               a(2) = (   0.000000   0.745255   0.000000 )  
               a(3) = (  -0.444961   0.000000   2.038383 )  

     reciprocal axes: (cart. coord. in units 2 pi/alat)
               b(1) = (  1.000000  0.000000  0.218291 )  
               b(2) = (  0.000000  1.341823  0.000000 )  
               b(3) = (  0.000000  0.000000  0.490585 )  


     PseudoPot. # 1 for  C read from file:
     /scratch/ahofstet/pseudo/C.pbe-n-kjpaw_psl.0.1.UPF
     MD5 check sum: 430fe95172b1e11ef3f8ed03bac87931
     Pseudo is Projector augmented-wave + core cor, Zval =  4.0
     Generated using "atomic" code by A. Dal Corso  v.5.0.99 svn rev. 10869
     Shape of augmentation charge: BESSEL
     Using radial grid of 1073 points,  4 beta functions with: 
                l(1) =   0
                l(2) =   0
                l(3) =   1
                l(4) =   1
     Q(r) pseudized with 0 coefficients 


     PseudoPot. # 2 for  N read from file:
     /scratch/ahofstet/pseudo/N.pbe-n-kjpaw_psl.0.1.UPF
     MD5 check sum: f73187c8b701007e77325f868c9291d7
     Pseudo is Projector augmented-wave + core cor, Zval =  5.0
     Generated using "atomic" code by A. Dal Corso  v.5.0.99 svn rev. 10869
     Shape of augmentation charge: PSQ
     Using radial grid of 1085 points,  4 beta functions with: 
                l(1) =   0
                l(2) =   0
                l(3) =   1
                l(4) =   1
     Q(r) pseudized with 0 coefficients 


     PseudoPot. # 3 for  H read from file:
     /scratch/ahofstet/pseudo/H.pbe-kjpaw_psl.0.1.UPF
     MD5 check sum: 94e484f906d9e9773b2f6e52662335b2
     Pseudo is Projector augmented-wave, Zval =  1.0
     Generated using "atomic" code by A. Dal Corso  v.5.0.99 svn rev. 10869
     Shape of augmentation charge: PSQ
     Using radial grid of  929 points,  2 beta functions with: 
                l(1) =   0
                l(2) =   0
     Q(r) pseudized with 0 coefficients 


     PseudoPot. # 4 for  O read from file:
     /scratch/ahofstet/pseudo/O.pbe-n-kjpaw_psl.0.1.UPF
     MD5 check sum: 3f94a2996a3169367d6eb21d9b593f20
     Pseudo is Projector augmented-wave + core cor, Zval =  6.0
     Generated using "atomic" code by A. Dal Corso  v.5.0.99 svn rev. 10869
     Shape of augmentation charge: BESSEL
     Using radial grid of 1095 points,  4 beta functions with: 
                l(1) =   0
                l(2) =   0
                l(3) =   1
                l(4) =   1
     Q(r) pseudized with 0 coefficients 


     atomic species   valence    mass     pseudopotential
        C              4.00    12.01070      C( 1.00)
        N              5.00    14.00670      N( 1.00)
        H              1.00     1.00794      H( 1.00)
        O              6.00    15.99940      O( 1.00)

      2 Sym. Ops., with inversion, found
          (note:  2 additional sym.ops. were found but ignored
           their fractional translations are incommensurate with FFT grid)


   Cartesian axes

     site n.     atom                  positions (alat units)
         1           O   tau(   1) = (   0.4149542   0.6545960   0.9267727  )
         2           O   tau(   2) = (   0.8625652   0.2819687   0.0924189  )
         3           O   tau(   3) = (   0.1400846   0.0906587   1.1116104  )
         4           O   tau(   4) = (  -0.3075264   0.4632860   1.9459642  )
         5           H   tau(   5) = (   0.4489445   0.7530799   0.9958807  )
         6           H   tau(   6) = (   0.8285749   0.3804526   0.0233109  )
         7           H   tau(   7) = (   0.1060943  -0.0078252   1.0425024  )
         8           H   tau(   8) = (  -0.2735360   0.3648021   2.0150722  )
         9           O   tau(   9) = (  -0.1765931   0.4125141   0.8475719  )
        10           O   tau(  10) = (   0.4541125   0.0398868   0.1716196  )
        11           O   tau(  11) = (   0.7316319   0.3327405   1.1908112  )
        12           O   tau(  12) = (   0.1009263   0.7053678   1.8667635  )
        13           O   tau(  13) = (   0.5634460   0.0262466   0.5717294  )
        14           O   tau(  14) = (   0.7140734   0.3988739   0.4474621  )
        15           O   tau(  15) = (  -0.0084072   0.7190081   1.4666537  )
        16           O   tau(  16) = (  -0.1590346   0.3463808   1.5909210  )
        17           O   tau(  17) = (   0.2643645   0.4471310   0.7356846  )
        18           O   tau(  18) = (   0.0131549   0.0745037   0.2835069  )
        19           O   tau(  19) = (   0.2906743   0.2981236   1.3026985  )
        20           O   tau(  20) = (   0.5418840   0.6707510   1.7548762  )
        21           N   tau(  21) = (   0.5487097   0.5713127   0.9079812  )
        22           N   tau(  22) = (   0.7288098   0.1986854   0.1112104  )
        23           N   tau(  23) = (   0.0063292   0.1739419   1.1304019  )
        24           N   tau(  24) = (  -0.1737709   0.5465692   1.9271727  )
        25           N   tau(  25) = (   0.6882919   0.2081049   0.7336459  )
        26           N   tau(  26) = (   0.5892275   0.5807322   0.2855456  )
        27           N   tau(  27) = (  -0.1332531   0.5371497   1.3047372  )
        28           N   tau(  28) = (  -0.0341887   0.1645224   1.7528375  )
        29           N   tau(  29) = (   0.4208908   0.2467145   0.6423997  )
        30           N   tau(  30) = (   0.8566286   0.6193418   0.3767919  )
        31           N   tau(  31) = (   0.1341480   0.4985402   1.3959834  )
        32           N   tau(  32) = (  -0.3015898   0.1259129   1.6615912  )
        33           C   tau(  33) = (   0.5398910   0.4430035   0.8193969  )
        34           C   tau(  34) = (   0.7376285   0.0703762   0.1997947  )
        35           C   tau(  35) = (   0.0151479   0.3022512   1.2189862  )
        36           C   tau(  36) = (  -0.1825896   0.6748785   1.8385884  )
        37           C   tau(  37) = (   0.6944917   0.3586909   0.8030636  )
        38           C   tau(  38) = (   0.5830277   0.7313182   0.2161279  )
        39           C   tau(  39) = (  -0.1394529   0.3865637   1.2353195  )
        40           C   tau(  40) = (  -0.0279889   0.0139364   1.8222552  )
        41           C   tau(  41) = (  -0.1596328   0.1228455   0.7192095  )
        42           C   tau(  42) = (   0.4371522   0.4954728   0.2999821  )
        43           C   tau(  43) = (   0.7146716   0.6224091   1.3191736  )
        44           C   tau(  44) = (   0.1178866   0.2497818   1.7384010  )
        45           H   tau(  45) = (  -0.1843863   0.0021153   0.6776441  )
        46           H   tau(  46) = (   0.4619057   0.3747427   0.3415475  )
        47           H   tau(  47) = (   0.7394251   0.7431393   1.3607390  )
        48           H   tau(  48) = (   0.0931332   0.3705120   1.6968356  )
        49           H   tau(  49) = (  -0.1015906   0.1207686   0.8362708  )
        50           H   tau(  50) = (   0.3791100   0.4933959   0.1829208  )
        51           H   tau(  51) = (   0.6566294   0.6244861   1.2021123  )
        52           H   tau(  52) = (   0.1759288   0.2518588   1.8554623  )
        53           H   tau(  53) = (  -0.0824005   0.1854931   0.6335475  )
        54           H   tau(  54) = (   0.3599199   0.5581204   0.3856440  )
        55           H   tau(  55) = (   0.6374393   0.5597616   1.4048356  )
        56           H   tau(  56) = (   0.1951189   0.1871342   1.6527391  )
        57           C   tau(  57) = (   0.5586659   0.1525077   0.6450487  )
        58           C   tau(  58) = (   0.7188535   0.5251350   0.3741429  )
        59           C   tau(  59) = (  -0.0036271   0.5927469   1.3933344  )
        60           C   tau(  60) = (  -0.1638147   0.2201196   1.6642402  )
        61           C   tau(  61) = (   0.2856580   0.1845416   0.5498221  )
        62           C   tau(  62) = (  -0.0081386   0.5571689   0.4693695  )
        63           C   tau(  63) = (   0.2693808   0.5607131   1.4885610  )
        64           C   tau(  64) = (   0.5631775   0.1880857   1.5690136  )
        65           H   tau(  65) = (   0.3310334   0.1235388   0.4436516  )
        66           H   tau(  66) = (  -0.0535140   0.4961661   0.5755400  )
        67           H   tau(  67) = (   0.2240054   0.6217158   1.5947315  )
        68           H   tau(  68) = (   0.6085528   0.2490885   1.4628431  )
        69           H   tau(  69) = (   0.2089627   0.2844625   0.5162555  )
        70           H   tau(  70) = (   0.0685567   0.6570898   0.5029361  )
        71           H   tau(  71) = (   0.3460761   0.4607921   1.5221276  )
        72           H   tau(  72) = (   0.4864821   0.0881648   1.5354470  )
        73           H   tau(  73) = (   0.2166468   0.0998494   0.6223770  )
        74           H   tau(  74) = (   0.0608726   0.4724768   0.3968145  )
        75           H   tau(  75) = (   0.3383920   0.6454052   1.4160061  )
        76           H   tau(  76) = (   0.4941662   0.2727779   1.6415686  )
        77           C   tau(  77) = (   0.3970852   0.3833665   0.7341467  )
        78           C   tau(  78) = (   0.8804342   0.7559938   0.2850449  )
        79           C   tau(  79) = (   0.1579536   0.3618881   1.3042364  )
        80           C   tau(  80) = (  -0.3253953  -0.0107392   1.7533382  )
        81           O   tau(  81) = (   0.4828392   0.1561973   1.0814395  )
        82           O   tau(  82) = (   0.3497190   0.5288246   1.9761352  )
        83           O   tau(  83) = (   0.0721996   0.5890574   0.9569436  )
        84           O   tau(  84) = (   0.2053198   0.2164300   0.0622479  )
        85           H   tau(  85) = (   0.4008154   0.1952459   1.1565841  )
        86           H   tau(  86) = (   0.4317428   0.5678733   1.9009905  )
        87           H   tau(  87) = (   0.1542234   0.5500087   0.8817990  )
        88           H   tau(  88) = (   0.1232960   0.1773814   0.1373926  )
        89           H   tau(  89) = (   0.5856981   0.2009235   1.1159397  )
        90           H   tau(  90) = (   0.2468602   0.5735508   1.9416349  )
        91           H   tau(  91) = (  -0.0306593   0.5443311   0.9224434  )
        92           H   tau(  92) = (   0.3081787   0.1717038   0.0967482  )

     number of k points=     4
                       cart. coord. in units 2pi/alat
        k(    1) = (   0.0000000   0.0000000   0.0000000), wk =   0.3333333
        k(    2) = (   0.0000000   0.4472744   0.0000000), wk =   0.6666667
        k(    3) = (  -0.5000000   0.0000000  -0.1091456), wk =   0.3333333
        k(    4) = (  -0.5000000   0.4472744  -0.1091456), wk =   0.6666667

     Dense  grid:   814141 G-vectors     FFT dimensions: ( 108,  75, 216)

     Estimated max dynamical RAM per process >     651.67MB

     Estimated total allocated dynamical RAM >    5213.37MB

     Check: negative/imaginary core charge=   -0.000002    0.000000

     Initial potential from superposition of free atoms

     starting charge  311.99854, renormalised to  312.00000
     Starting wfc are  260 randomized atomic wfcs
     Checking if some PAW data can be deallocated... 

     total cpu time spent up to now is       27.5 secs

     per-process dynamical memory:   412.2 Mb

     Self-consistent Calculation

     iteration #  1     ecut=   100.00 Ry     beta=0.50
     Davidson diagonalization with overlap
     ethr =  1.00E-02,  avg # of iterations =  3.5

     total cpu time spent up to now is       81.7 secs

     total energy              =   -1655.17416077 Ry
     Harris-Foulkes estimate   =   -1660.17624048 Ry
     estimated scf accuracy    <       9.21617359 Ry

     iteration #  2     ecut=   100.00 Ry     beta=0.50
     Davidson diagonalization with overlap
     ethr =  2.95E-03,  avg # of iterations =  3.0

     total cpu time spent up to now is      117.1 secs

     total energy              =   -1656.52074139 Ry
     Harris-Foulkes estimate   =   -1657.47164620 Ry
     estimated scf accuracy    <       1.96115915 Ry

     iteration #  3     ecut=   100.00 Ry     beta=0.50
     Davidson diagonalization with overlap
     ethr =  6.29E-04,  avg # of iterations =  7.0

     total cpu time spent up to now is      166.5 secs

     total energy              =   -1657.10302130 Ry
     Harris-Foulkes estimate   =   -1657.33363251 Ry
     estimated scf accuracy    <       0.57358114 Ry

     iteration #  4     ecut=   100.00 Ry     beta=0.50
     Davidson diagonalization with overlap
     ethr =  1.84E-04,  avg # of iterations =  4.8

     total cpu time spent up to now is      199.5 secs

     total energy              =   -1657.16378062 Ry
     Harris-Foulkes estimate   =   -1657.19078485 Ry
     estimated scf accuracy    <       0.07404333 Ry

     iteration #  5     ecut=   100.00 Ry     beta=0.50
     Davidson diagonalization with overlap
     ethr =  2.37E-05,  avg # of iterations =  7.2

     total cpu time spent up to now is      259.5 secs

     total energy              =   -1657.19443758 Ry
     Harris-Foulkes estimate   =   -1657.20668264 Ry
     estimated scf accuracy    <       0.03433778 Ry

     iteration #  6     ecut=   100.00 Ry     beta=0.50
     Davidson diagonalization with overlap
     ethr =  1.10E-05,  avg # of iterations =  2.0

     total cpu time spent up to now is      288.9 secs

     total energy              =   -1657.19369739 Ry
     Harris-Foulkes estimate   =   -1657.19752869 Ry
     estimated scf accuracy    <       0.00940436 Ry

     iteration #  7     ecut=   100.00 Ry     beta=0.50
     Davidson diagonalization with overlap
     ethr =  3.01E-06,  avg # of iterations =  6.2

     total cpu time spent up to now is      337.3 secs

     total energy              =   -1657.19738676 Ry
     Harris-Foulkes estimate   =   -1657.19752407 Ry
     estimated scf accuracy    <       0.00074116 Ry

     iteration #  8     ecut=   100.00 Ry     beta=0.50
     Davidson diagonalization with overlap
     ethr =  2.38E-07,  avg # of iterations =  3.0

     total cpu time spent up to now is      371.7 secs

     total energy              =   -1657.19734454 Ry
     Harris-Foulkes estimate   =   -1657.19752320 Ry
     estimated scf accuracy    <       0.00041419 Ry

     iteration #  9     ecut=   100.00 Ry     beta=0.50
     Davidson diagonalization with overlap
     ethr =  1.33E-07,  avg # of iterations =  3.0

     total cpu time spent up to now is      402.1 secs

     total energy              =   -1657.19736896 Ry
     Harris-Foulkes estimate   =   -1657.19739142 Ry
     estimated scf accuracy    <       0.00005024 Ry

     iteration # 10     ecut=   100.00 Ry     beta=0.50
     Davidson diagonalization with overlap
     ethr =  1.61E-08,  avg # of iterations =  4.0

     total cpu time spent up to now is      456.2 secs

     total energy              =   -1657.19742457 Ry
     Harris-Foulkes estimate   =   -1657.19743113 Ry
     estimated scf accuracy    <       0.00002787 Ry

     iteration # 11     ecut=   100.00 Ry     beta=0.50
     Davidson diagonalization with overlap
     ethr =  8.93E-09,  avg # of iterations =  1.0

     total cpu time spent up to now is      484.3 secs

     total energy              =   -1657.19741852 Ry
     Harris-Foulkes estimate   =   -1657.19742538 Ry
     estimated scf accuracy    <       0.00001356 Ry

     iteration # 12     ecut=   100.00 Ry     beta=0.50
     Davidson diagonalization with overlap
     ethr =  4.35E-09,  avg # of iterations =  3.8

     total cpu time spent up to now is      524.2 secs

     total energy              =   -1657.19742303 Ry
     Harris-Foulkes estimate   =   -1657.19742355 Ry
     estimated scf accuracy    <       0.00000113 Ry

     iteration # 13     ecut=   100.00 Ry     beta=0.50
     Davidson diagonalization with overlap
     ethr =  3.61E-10,  avg # of iterations =  4.0

     total cpu time spent up to now is      558.4 secs

     total energy              =   -1657.19742315 Ry
     Harris-Foulkes estimate   =   -1657.19742322 Ry
     estimated scf accuracy    <       0.00000013 Ry

     iteration # 14     ecut=   100.00 Ry     beta=0.50
     Davidson diagonalization with overlap
     ethr =  4.19E-11,  avg # of iterations =  4.0

     total cpu time spent up to now is      613.0 secs

     total energy              =   -1657.19742323 Ry
     Harris-Foulkes estimate   =   -1657.19742329 Ry
     estimated scf accuracy    <       0.00000011 Ry

     iteration # 15     ecut=   100.00 Ry     beta=0.50
     Davidson diagonalization with overlap
     ethr =  3.50E-11,  avg # of iterations =  4.5

     total cpu time spent up to now is      645.8 secs

     End of self-consistent calculation

          k = 0.0000 0.0000 0.0000 (101813 PWs)   bands (ev):

   -21.7031 -21.7013 -21.6678 -21.6661 -20.8775 -20.8740 -20.7788 -20.7752
   -20.1747 -20.1732 -20.1571 -20.1477 -20.0351 -20.0181 -20.0122 -19.9865
   -18.5367 -18.5353 -18.5338 -18.5337 -17.6911 -17.6769 -17.6045 -17.5925
   -17.0422 -17.0391 -17.0199 -17.0167 -15.2713 -15.2695 -15.2677 -15.2663
   -12.3876 -12.3630 -12.2681 -12.2440 -11.1732 -11.1703 -11.1529 -11.1503
   -11.1075 -11.0948 -11.0795 -11.0710  -9.3595  -9.3572  -9.3350  -9.3276
    -9.1707  -9.1448  -9.1301  -9.0965  -8.2060  -8.2042  -8.1788  -8.1592
    -6.9928  -6.9304  -6.9157  -6.8855  -6.7868  -6.7367  -6.7234  -6.6228
    -6.2285  -6.1621  -6.0468  -6.0420  -5.9716  -5.8622  -5.8026  -5.6484
    -5.6061  -5.3991  -5.3462  -5.3406  -5.2470  -5.2415  -5.1311  -5.0971
    -4.9737  -4.9611  -4.8710  -4.8007  -4.7874  -4.7850  -4.7643  -4.7435
    -4.6829  -4.6503  -4.6366  -4.6277  -4.4740  -4.4300  -4.4029  -4.3997
    -4.0256  -3.9561  -3.9530  -3.9518  -3.5766  -3.5529  -3.5309  -3.4412
    -3.4218  -3.3965  -3.2912  -3.2770  -3.1742  -3.1647  -3.1113  -3.0826
    -3.0507  -3.0259  -3.0148  -3.0136  -2.9555  -2.9395  -2.8950  -2.8352
    -2.6313  -2.6087  -2.6043  -2.6023  -1.1903  -1.1823  -1.1202  -1.1067
    -1.0850  -1.0143  -0.9402  -0.9402  -0.7504  -0.7363  -0.7250  -0.7223
    -0.6657  -0.5857  -0.4243  -0.3998  -0.3017  -0.2548  -0.2542  -0.1057
    -0.1054  -0.0149  -0.0020   0.0321   0.1207   0.1367   0.1444   0.1521
     0.4610   0.4622   0.5067   0.5159   3.0371   3.0569   3.1247   3.1379
     4.9339   5.0094   5.1250   5.2090   5.7044   5.7070   5.7311   5.7351
     6.0482   6.6006   6.7622   7.5125   7.6192   7.6400   7.7504   7.8214
     7.9756   8.0554   8.0924   8.1826   8.2162   8.4079   8.4685   8.5606
     8.6177   8.7566   8.8119

          k = 0.0000 0.4473 0.0000 (101732 PWs)   bands (ev):

   -21.6944 -21.6936 -21.6630 -21.6622 -20.8629 -20.8552 -20.8138 -20.8057
   -20.1743 -20.1730 -20.1528 -20.1491 -20.0384 -20.0312 -19.9986 -19.9854
   -18.5504 -18.5494 -18.5268 -18.5255 -17.6690 -17.6564 -17.6261 -17.6141
   -17.0391 -17.0361 -17.0279 -17.0249 -15.2667 -15.2650 -15.2535 -15.2517
   -12.3479 -12.3345 -12.2877 -12.2757 -11.1862 -11.1711 -11.1648 -11.1552
   -11.1005 -11.0946 -11.0631 -11.0631  -9.3700  -9.3531  -9.3475  -9.3380
    -9.1596  -9.1363  -9.1227  -9.0999  -8.2287  -8.2277  -8.1495  -8.1424
    -6.9374  -6.9276  -6.9177  -6.8857  -6.7811  -6.7695  -6.6789  -6.6666
    -6.3107  -6.2411  -6.1834  -6.0955  -5.9338  -5.8876  -5.7898  -5.7364
    -5.6095  -5.5364  -5.3072  -5.2740  -5.2505  -5.2127  -5.1208  -5.1049
    -5.0412  -4.9101  -4.8980  -4.8134  -4.7896  -4.7723  -4.7101  -4.6815
    -4.6483  -4.6019  -4.5609  -4.4918  -4.3959  -4.3725  -4.3360  -4.2909
    -4.0396  -4.0073  -3.9714  -3.9648  -3.5309  -3.4851  -3.4587  -3.3853
    -3.3744  -3.3675  -3.3188  -3.2950  -3.2055  -3.1757  -3.1337  -3.0974
    -3.0838  -3.0711  -3.0158  -2.9875  -2.9775  -2.9721  -2.9099  -2.9082
    -2.6253  -2.6195  -2.6036  -2.6027  -1.1700  -1.1561  -1.0898  -1.0773
    -1.0278  -1.0228  -0.8795  -0.8644  -0.7953  -0.7890  -0.7494  -0.7474
    -0.6539  -0.5404  -0.5045  -0.3990  -0.3599  -0.2933  -0.2173  -0.1701
    -0.1545  -0.1409  -0.1332  -0.1202   0.1111   0.1272   0.1354   0.1497
     0.4254   0.4331   0.5366   0.5451   3.0634   3.1036   3.1077   3.1487
     5.0006   5.0267   5.1838   5.2058   5.7454   5.7526   5.7727   5.7836
     6.5156   6.9565   7.0320   7.6319   7.6987   7.7258   7.7592   7.8284
     8.0088   8.0253   8.0780   8.1781   8.2985   8.3221   8.4931   8.5320
     8.5593   8.6021   8.6396

          k =-0.5000 0.0000-0.1091 (101736 PWs)   bands (ev):

   -21.6985 -21.6984 -21.6701 -21.6701 -20.8732 -20.8732 -20.7761 -20.7761
   -20.1913 -20.1913 -20.1617 -20.1617 -20.0220 -20.0220 -19.9849 -19.9849
   -18.5277 -18.5276 -18.5264 -18.5263 -17.6942 -17.6942 -17.6097 -17.6097
   -17.0352 -17.0352 -17.0143 -17.0143 -15.2916 -15.2915 -15.2495 -15.2494
   -12.3017 -12.3017 -12.2758 -12.2758 -11.2515 -11.2515 -11.1515 -11.1515
   -11.1101 -11.1101 -11.0486 -11.0486  -9.3872  -9.3872  -9.3384  -9.3384
    -9.1831  -9.1831  -9.0856  -9.0856  -8.2097  -8.2097  -8.1765  -8.1765
    -6.9576  -6.9576  -6.8925  -6.8925  -6.7493  -6.7492  -6.6709  -6.6708
    -6.2270  -6.2270  -6.0051  -6.0051  -5.8871  -5.8871  -5.7436  -5.7436
    -5.3977  -5.3977  -5.2085  -5.2085  -5.2011  -5.2011  -5.1498  -5.1498
    -5.0444  -5.0444  -4.8324  -4.8324  -4.7780  -4.7780  -4.7126  -4.7126
    -4.6044  -4.6044  -4.5620  -4.5620  -4.4506  -4.4506  -4.3644  -4.3644
    -4.3358  -4.3358  -3.9827  -3.9827  -3.5382  -3.5382  -3.4625  -3.4625
    -3.3905  -3.3905  -3.3068  -3.3068  -3.2599  -3.2599  -3.1604  -3.1604
    -3.0830  -3.0830  -3.0370  -3.0370  -2.9531  -2.9531  -2.8703  -2.8702
    -2.6985  -2.6985  -2.4412  -2.4412  -1.1019  -1.1019  -1.0642  -1.0642
    -1.0463  -1.0463  -0.9774  -0.9774  -0.7493  -0.7493  -0.6974  -0.6974
    -0.6433  -0.6433  -0.4029  -0.4029  -0.2449  -0.2449  -0.1059  -0.1058
    -0.0701  -0.0701  -0.0252  -0.0252   0.0938   0.0939   0.1211   0.1212
     0.4189   0.4190   0.5059   0.5059   3.0394   3.0394   3.1350   3.1350
     4.9772   4.9772   5.2023   5.2023   5.7029   5.7029   5.7330   5.7330
     6.4604   6.4604   7.0894   7.0894   7.2353   7.2353   7.7916   7.7916
     8.0870   8.0870   8.2807   8.2807   8.3731   8.3731   8.6353   8.6353
     8.6968   8.6968   8.8905

          k =-0.5000 0.4473-0.1091 (101758 PWs)   bands (ev):

   -21.6929 -21.6928 -21.6630 -21.6630 -20.8570 -20.8570 -20.8082 -20.8082
   -20.1879 -20.1878 -20.1653 -20.1653 -20.0213 -20.0213 -19.9847 -19.9847
   -18.5340 -18.5340 -18.5264 -18.5264 -17.6738 -17.6738 -17.6315 -17.6315
   -17.0324 -17.0324 -17.0209 -17.0209 -15.2742 -15.2742 -15.2477 -15.2476
   -12.2947 -12.2947 -12.2723 -12.2723 -11.2177 -11.2177 -11.1674 -11.1674
   -11.1094 -11.1094 -11.0753 -11.0753  -9.3846  -9.3846  -9.3559  -9.3559
    -9.1692  -9.1692  -9.0792  -9.0792  -8.2143  -8.2143  -8.1697  -8.1697
    -6.9792  -6.9792  -6.8512  -6.8512  -6.7368  -6.7368  -6.6663  -6.6663
    -6.2874  -6.2874  -6.1416  -6.1416  -5.9667  -5.9666  -5.7642  -5.7642
    -5.3862  -5.3862  -5.2931  -5.2931  -5.1733  -5.1733  -5.0568  -5.0568
    -4.9979  -4.9979  -4.8916  -4.8916  -4.7099  -4.7099  -4.6163  -4.6163
    -4.5629  -4.5629  -4.4697  -4.4697  -4.4350  -4.4350  -4.3022  -4.3021
    -4.2902  -4.2902  -4.0027  -4.0027  -3.5949  -3.5948  -3.5148  -3.5148
    -3.3585  -3.3585  -3.3027  -3.3027  -3.2417  -3.2417  -3.1458  -3.1458
    -3.0935  -3.0935  -3.0587  -3.0587  -2.9715  -2.9715  -2.8869  -2.8869
    -2.6563  -2.6563  -2.4447  -2.4447  -1.1144  -1.1144  -1.0768  -1.0768
    -0.9728  -0.9727  -0.9012  -0.9012  -0.8053  -0.8052  -0.7366  -0.7366
    -0.6082  -0.6082  -0.4859  -0.4859  -0.2738  -0.2738  -0.1943  -0.1942
    -0.1372  -0.1372  -0.0825  -0.0825   0.0688   0.0689   0.1281   0.1282
     0.4465   0.4465   0.4897   0.4897   3.0811   3.0811   3.1276   3.1276
     5.0343   5.0343   5.2135   5.2135   5.7266   5.7266   5.7650   5.7650
     6.8496   6.8496   7.3591   7.3591   7.5232   7.5232   7.9050   7.9050
     7.9832   7.9832   8.1922   8.1922   8.3320   8.3320   8.5390   8.5390
     8.6401   8.6404   8.7252

     highest occupied, lowest unoccupied level (ev):     0.5451    3.0371

!    total energy              =   -1657.19742325 Ry
     Harris-Foulkes estimate   =   -1657.19742325 Ry
     estimated scf accuracy    <          4.3E-09 Ry

     total all-electron energy =     -6196.059163 Ry

     The total energy is the sum of the following terms:

     one-electron contribution =    -966.46531460 Ry
     hartree contribution      =     606.26500440 Ry
     xc contribution           =    -338.49357387 Ry
     ewald contribution        =    -508.90415469 Ry
     Dispersion Correction     =      -0.38733573 Ry
     one-center paw contrib.   =    -449.21204875 Ry

     convergence has been achieved in  15 iterations

     Forces acting on atoms (cartesian axes, Ry/au):

     atom    1 type  4   force =     0.00280385    0.00151826    0.00144620
     atom    2 type  4   force =    -0.00281246    0.00151205   -0.00144685
     atom    3 type  4   force =    -0.00280385   -0.00151826   -0.00144620
     atom    4 type  4   force =     0.00281246   -0.00151205    0.00144685
     atom    5 type  3   force =    -0.00001693    0.00024778    0.00033128
     atom    6 type  3   force =     0.00001669    0.00024789   -0.00033170
     atom    7 type  3   force =     0.00001693   -0.00024778   -0.00033128
     atom    8 type  3   force =    -0.00001669   -0.00024789    0.00033170
     atom    9 type  4   force =     0.00315901    0.00169562   -0.00013231
     atom   10 type  4   force =    -0.00315891    0.00170015    0.00012976
     atom   11 type  4   force =    -0.00315901   -0.00169562    0.00013231
     atom   12 type  4   force =     0.00315891   -0.00170015   -0.00012976
     atom   13 type  4   force =     0.00215990   -0.00166754   -0.00019061
     atom   14 type  4   force =    -0.00216044   -0.00167468    0.00019228
     atom   15 type  4   force =    -0.00215990    0.00166754    0.00019061
     atom   16 type  4   force =     0.00216044    0.00167468   -0.00019228
     atom   17 type  4   force =    -0.00120878    0.00295828    0.00039906
     atom   18 type  4   force =     0.00121075    0.00295694   -0.00039896
     atom   19 type  4   force =     0.00120878   -0.00295828   -0.00039906
     atom   20 type  4   force =    -0.00121075   -0.00295694    0.00039896
     atom   21 type  2   force =    -0.00193575    0.00379504   -0.00219445
     atom   22 type  2   force =     0.00194189    0.00379769    0.00219377
     atom   23 type  2   force =     0.00193575   -0.00379504    0.00219445
     atom   24 type  2   force =    -0.00194189   -0.00379769   -0.00219377
     atom   25 type  2   force =    -0.00207044    0.00619184   -0.00267350
     atom   26 type  2   force =     0.00207191    0.00619266    0.00267129
     atom   27 type  2   force =     0.00207044   -0.00619184    0.00267350
     atom   28 type  2   force =    -0.00207191   -0.00619266   -0.00267129
     atom   29 type  2   force =    -0.00230410    0.00036459    0.00619311
     atom   30 type  2   force =     0.00230338    0.00036681   -0.00619468
     atom   31 type  2   force =     0.00230410   -0.00036459   -0.00619311
     atom   32 type  2   force =    -0.00230338   -0.00036681    0.00619468
     atom   33 type  1   force =    -0.00168997   -0.00166567   -0.00329032
     atom   34 type  1   force =     0.00168925   -0.00167132    0.00328895
     atom   35 type  1   force =     0.00168997    0.00166567    0.00329032
     atom   36 type  1   force =    -0.00168925    0.00167132   -0.00328895
     atom   37 type  1   force =    -0.00207191   -0.00303844   -0.00272001
     atom   38 type  1   force =     0.00206963   -0.00305777    0.00271557
     atom   39 type  1   force =     0.00207191    0.00303844    0.00272001
     atom   40 type  1   force =    -0.00206963    0.00305777   -0.00271557
     atom   41 type  1   force =     0.00013596    0.00089534    0.00172791
     atom   42 type  1   force =    -0.00013701    0.00089431   -0.00172790
     atom   43 type  1   force =    -0.00013596   -0.00089534   -0.00172791
     atom   44 type  1   force =     0.00013701   -0.00089431    0.00172790
     atom   45 type  3   force =    -0.00086115   -0.00269398    0.00123972
     atom   46 type  3   force =     0.00086141   -0.00269399   -0.00123945
     atom   47 type  3   force =     0.00086115    0.00269398   -0.00123972
     atom   48 type  3   force =    -0.00086141    0.00269399    0.00123945
     atom   49 type  3   force =    -0.00010062   -0.00000989    0.00060866
     atom   50 type  3   force =     0.00010002   -0.00000936   -0.00060924
     atom   51 type  3   force =     0.00010062    0.00000989   -0.00060866
     atom   52 type  3   force =    -0.00010002    0.00000936    0.00060924
     atom   53 type  3   force =    -0.00084510   -0.00027039   -0.00015944
     atom   54 type  3   force =     0.00084488   -0.00027010    0.00015971
     atom   55 type  3   force =     0.00084510    0.00027039    0.00015944
     atom   56 type  3   force =    -0.00084488    0.00027010   -0.00015971
     atom   57 type  1   force =     0.00103424   -0.00182198    0.00241469
     atom   58 type  1   force =    -0.00103449   -0.00181933   -0.00241293
     atom   59 type  1   force =    -0.00103424    0.00182198   -0.00241469
     atom   60 type  1   force =     0.00103449    0.00181933    0.00241293
     atom   61 type  1   force =     0.00158296   -0.00110321   -0.00008000
     atom   62 type  1   force =    -0.00158104   -0.00109996    0.00008120
     atom   63 type  1   force =    -0.00158296    0.00110321    0.00008000
     atom   64 type  1   force =     0.00158104    0.00109996   -0.00008120
     atom   65 type  3   force =    -0.00061525    0.00049799    0.00031915
     atom   66 type  3   force =     0.00061513    0.00049780   -0.00031897
     atom   67 type  3   force =     0.00061525   -0.00049799   -0.00031915
     atom   68 type  3   force =    -0.00061513   -0.00049780    0.00031897
     atom   69 type  3   force =    -0.00015553    0.00033046    0.00034923
     atom   70 type  3   force =     0.00015578    0.00033045   -0.00034914
     atom   71 type  3   force =     0.00015553   -0.00033046   -0.00034923
     atom   72 type  3   force =    -0.00015578   -0.00033045    0.00034914
     atom   73 type  3   force =    -0.00002400   -0.00055965    0.00046873
     atom   74 type  3   force =     0.00002454   -0.00055969   -0.00046916
     atom   75 type  3   force =     0.00002400    0.00055965   -0.00046873
     atom   76 type  3   force =    -0.00002454    0.00055969    0.00046916
     atom   77 type  1   force =     0.00368814   -0.00378902   -0.00041242
     atom   78 type  1   force =    -0.00368854   -0.00377021    0.00041112
     atom   79 type  1   force =    -0.00368814    0.00378902    0.00041242
     atom   80 type  1   force =     0.00368854    0.00377021   -0.00041112
     atom   81 type  4   force =     0.00003571   -0.00056386   -0.00151768
     atom   82 type  4   force =    -0.00003636   -0.00057952    0.00151620
     atom   83 type  4   force =    -0.00003571    0.00056386    0.00151768
     atom   84 type  4   force =     0.00003636    0.00057952   -0.00151620
     atom   85 type  3   force =    -0.00056763    0.00089834   -0.00013236
     atom   86 type  3   force =     0.00056747    0.00089789    0.00013256
     atom   87 type  3   force =     0.00056763   -0.00089834    0.00013236
     atom   88 type  3   force =    -0.00056747   -0.00089789   -0.00013256
     atom   89 type  3   force =     0.00041732    0.00018917    0.00008027
     atom   90 type  3   force =    -0.00041734    0.00018927   -0.00008036
     atom   91 type  3   force =    -0.00041732   -0.00018917   -0.00008027
     atom   92 type  3   force =     0.00041734   -0.00018927    0.00008036

     Total force =     0.032201     Total SCF correction =     0.000122


     Computing stress (Cartesian axis) and pressure

          total   stress  (Ry/bohr**3)                   (kbar)     P=   -3.13
  -0.00002382  -0.00000000  -0.00001436         -3.50     -0.00     -2.11
  -0.00000000  -0.00000872   0.00000000         -0.00     -1.28      0.00
  -0.00001436   0.00000000  -0.00003127         -2.11      0.00     -4.60


     Writing output data file scf.save
 
     init_run     :     25.64s CPU     26.71s WALL (       1 calls)
     electrons    :    586.16s CPU    618.49s WALL (       1 calls)
     forces       :     15.51s CPU     15.70s WALL (       1 calls)
     stress       :     70.28s CPU     70.51s WALL (       1 calls)

     Called by init_run:
     wfcinit      :     13.93s CPU     14.79s WALL (       1 calls)
     potinit      :      4.15s CPU      4.19s WALL (       1 calls)

     Called by electrons:
     c_bands      :    513.86s CPU    540.26s WALL (      15 calls)
     sum_band     :     58.86s CPU     63.53s WALL (      15 calls)
     v_of_rho     :      1.91s CPU      2.11s WALL (      16 calls)
     newd         :      4.34s CPU      5.33s WALL (      16 calls)
     PAW_pot      :      6.62s CPU      6.63s WALL (      16 calls)
     mix_rho      :      0.45s CPU      0.48s WALL (      15 calls)

     Called by c_bands:
     init_us_2    :      4.07s CPU      4.08s WALL (     132 calls)
     cegterg      :    498.82s CPU    525.20s WALL (      60 calls)

     Called by sum_band:
     sum_band:bec :      0.04s CPU      0.04s WALL (      60 calls)
     addusdens    :      4.59s CPU      5.50s WALL (      15 calls)

     Called by *egterg:
     h_psi        :    290.42s CPU    311.55s WALL (     308 calls)
     s_psi        :     51.62s CPU     51.63s WALL (     308 calls)
     g_psi        :      2.12s CPU      2.12s WALL (     244 calls)
     cdiaghg      :     35.46s CPU     35.47s WALL (     304 calls)

     Called by h_psi:
     h_psi:pot    :    287.93s CPU    309.02s WALL (     308 calls)
     h_psi:calbec :     48.64s CPU     48.78s WALL (     308 calls)
     vloc_psi     :    187.70s CPU    208.63s WALL (     308 calls)
     add_vuspsi   :     51.59s CPU     51.61s WALL (     308 calls)

     General routines
     calbec       :     70.92s CPU     71.11s WALL (     388 calls)
     fft          :      1.40s CPU      1.81s WALL (     232 calls)
     fftw         :    201.47s CPU    224.83s WALL (   74972 calls)
 
     Parallel routines
     fft_scatter  :     38.97s CPU     58.11s WALL (   75204 calls)
 
     PWSCF        : 11m43.36s CPU    12m39.16s WALL

 
   This run was terminated on:  17:38:19   5Nov2017            

=------------------------------------------------------------------------------=
   JOB DONE.
=------------------------------------------------------------------------------=
