
     Program PWSCF v.6.1 (svn rev. 13369) starts on  3Nov2017 at 21:44:14 

     This program is part of the open-source Quantum ESPRESSO suite
     for quantum simulation of materials; please cite
         "P. Giannozzi et al., J. Phys.:Condens. Matter 21 395502 (2009);
          URL http://www.quantum-espresso.org", 
     in publications or presentations arising from this work. More details at
     http://www.quantum-espresso.org/quote

     Parallel version (MPI), running on     8 processors
     R & G space division:  proc/nbgrp/npool/nimage =       8
     Waiting for input...
     Reading input from standard input

     Current dimensions of program PWSCF are:
     Max number of different atomic species (ntypx) = 10
     Max number of k-points (npk) =  40000
     Max angular momentum in pseudopotentials (lmaxx) =  3
               file C.pbe-n-kjpaw_psl.0.1.UPF: wavefunction(s)  2P renormalized
               file N.pbe-n-kjpaw_psl.0.1.UPF: wavefunction(s)  2P renormalized
               file H.pbe-kjpaw_psl.0.1.UPF: wavefunction(s)  1S renormalized
               file O.pbe-n-kjpaw_psl.0.1.UPF: wavefunction(s)  2P renormalized

     -------------------------------------
     Parameters for Dispersion Correction:
     -------------------------------------
       atom      VdW radius       C_6     

        C          2.744         60.710
        N          2.640         42.670
        H          1.892          4.857
        O          2.536         24.284

     Subspace diagonalization in iterative solution of the eigenvalue problem:
     a serial algorithm will be used

 
     Parallelization info
     --------------------
     sticks:   dense  smooth     PW     G-vecs:    dense   smooth      PW
     Min        2095    2095    554               123185   123185   16733
     Max        2096    2096    555               123187   123187   16734
     Sum       16763   16763   4435               985489   985489  133867
 


     bravais-lattice index     =            0
     lattice parameter (alat)  =      12.4231  a.u.
     unit-cell volume          =    7294.5627 (a.u.)^3
     number of atoms/cell      =          104
     number of atomic types    =            4
     number of electrons       =       360.00
     number of Kohn-Sham states=          216
     kinetic-energy cutoff     =     100.0000  Ry
     charge density cutoff     =     400.0000  Ry
     convergence threshold     =      1.0E-08
     mixing beta               =       0.5000
     number of iterations used =            8  plain     mixing
     Exchange-correlation      =  SLA  PW   PBX  PBC ( 1  4  3  4 0 0)

     celldm(1)=  12.423060  celldm(2)=   0.000000  celldm(3)=   0.000000
     celldm(4)=   0.000000  celldm(5)=   0.000000  celldm(6)=   0.000000

     crystal axes: (cart. coord. in units of alat)
               a(1) = (   1.000000   0.000000   0.000000 )  
               a(2) = (   0.000000   3.409492   0.000000 )  
               a(3) = (  -0.476569   0.000000   1.115896 )  

     reciprocal axes: (cart. coord. in units 2 pi/alat)
               b(1) = (  1.000000  0.000000  0.427073 )  
               b(2) = (  0.000000  0.293299  0.000000 )  
               b(3) = (  0.000000  0.000000  0.896141 )  


     PseudoPot. # 1 for  C read from file:
     /scratch/ahofstet/pseudo/C.pbe-n-kjpaw_psl.0.1.UPF
     MD5 check sum: 430fe95172b1e11ef3f8ed03bac87931
     Pseudo is Projector augmented-wave + core cor, Zval =  4.0
     Generated using "atomic" code by A. Dal Corso  v.5.0.99 svn rev. 10869
     Shape of augmentation charge: BESSEL
     Using radial grid of 1073 points,  4 beta functions with: 
                l(1) =   0
                l(2) =   0
                l(3) =   1
                l(4) =   1
     Q(r) pseudized with 0 coefficients 


     PseudoPot. # 2 for  N read from file:
     /scratch/ahofstet/pseudo/N.pbe-n-kjpaw_psl.0.1.UPF
     MD5 check sum: f73187c8b701007e77325f868c9291d7
     Pseudo is Projector augmented-wave + core cor, Zval =  5.0
     Generated using "atomic" code by A. Dal Corso  v.5.0.99 svn rev. 10869
     Shape of augmentation charge: PSQ
     Using radial grid of 1085 points,  4 beta functions with: 
                l(1) =   0
                l(2) =   0
                l(3) =   1
                l(4) =   1
     Q(r) pseudized with 0 coefficients 


     PseudoPot. # 3 for  H read from file:
     /scratch/ahofstet/pseudo/H.pbe-kjpaw_psl.0.1.UPF
     MD5 check sum: 94e484f906d9e9773b2f6e52662335b2
     Pseudo is Projector augmented-wave, Zval =  1.0
     Generated using "atomic" code by A. Dal Corso  v.5.0.99 svn rev. 10869
     Shape of augmentation charge: PSQ
     Using radial grid of  929 points,  2 beta functions with: 
                l(1) =   0
                l(2) =   0
     Q(r) pseudized with 0 coefficients 


     PseudoPot. # 4 for  O read from file:
     /scratch/ahofstet/pseudo/O.pbe-n-kjpaw_psl.0.1.UPF
     MD5 check sum: 3f94a2996a3169367d6eb21d9b593f20
     Pseudo is Projector augmented-wave + core cor, Zval =  6.0
     Generated using "atomic" code by A. Dal Corso  v.5.0.99 svn rev. 10869
     Shape of augmentation charge: BESSEL
     Using radial grid of 1095 points,  4 beta functions with: 
                l(1) =   0
                l(2) =   0
                l(3) =   1
                l(4) =   1
     Q(r) pseudized with 0 coefficients 


     atomic species   valence    mass     pseudopotential
        C              4.00    12.01070      C( 1.00)
        N              5.00    14.00670      N( 1.00)
        H              1.00     1.00794      H( 1.00)
        O              6.00    15.99940      O( 1.00)

      2 Sym. Ops., with inversion, found



   Cartesian axes

     site n.     atom                  positions (alat units)
         1           O   tau(   1) = (  -0.3327971   0.8854385   0.9295034  )
         2           O   tau(   2) = (   0.1177739   2.5901731   0.7443763  )
         3           O   tau(   3) = (   0.8562283   2.5240534   0.1863931  )
         4           O   tau(   4) = (   0.4056573   0.8193188   0.3715201  )
         5           O   tau(   5) = (  -0.0009268   0.7433192   0.9451108  )
         6           O   tau(   6) = (  -0.2140710   2.4479736   0.7286891  )
         7           O   tau(   7) = (   0.5243580   2.6661728   0.1707856  )
         8           O   tau(   8) = (   0.7375022   0.9615184   0.3872074  )
         9           O   tau(   9) = (   0.4083911   0.0765544   0.3709559  )
        10           O   tau(  10) = (   0.8535410   1.7812067   0.1869874  )
        11           O   tau(  11) = (   0.1150401   3.3329375   0.7449405  )
        12           O   tau(  12) = (  -0.3301098   1.6282852   0.9289091  )
        13           N   tau(  13) = (  -0.2270335   0.7509042   1.0022491  )
        14           N   tau(  14) = (   0.0120442   2.4555952   0.6716388  )
        15           N   tau(  15) = (   0.7504647   2.6585877   0.1136473  )
        16           N   tau(  16) = (   0.5113870   0.9538967   0.4442577  )
        17           N   tau(  17) = (   0.0804140   0.5851715   1.0446236  )
        18           N   tau(  18) = (   0.7046749   2.2897832   0.6291476  )
        19           N   tau(  19) = (   0.4430172   2.8243204   0.0712728  )
        20           N   tau(  20) = (  -0.1812437   1.1197088   0.4867488  )
        21           N   tau(  21) = (   0.3178218   0.2513926   0.2924315  )
        22           N   tau(  22) = (  -0.0559466   1.9560528   0.2655601  )
        23           N   tau(  23) = (   0.2056094   3.1580994   0.8234650  )
        24           N   tau(  24) = (   0.5793779   1.4534392   0.8503364  )
        25           N   tau(  25) = (   0.6237309   0.1981985   0.1401552  )
        26           N   tau(  26) = (   0.6380905   1.9028141   0.4177053  )
        27           N   tau(  27) = (  -0.1002997   3.2112934   0.9757413  )
        28           N   tau(  28) = (  -0.1146593   1.5066778   0.6981911  )
        29           C   tau(  29) = (   0.2212779   0.5960508   0.0125566  )
        30           C   tau(  30) = (   0.0404055   2.3007223   0.5454700  )
        31           C   tau(  31) = (   0.3021533   2.8134411   1.1033399  )
        32           C   tau(  32) = (   0.4830257   1.1087697   0.5704265  )
        33           C   tau(  33) = (   0.0227223   0.5629831   0.1126222  )
        34           C   tau(  34) = (   0.2389637   2.2676343   0.4454717  )
        35           C   tau(  35) = (   0.5007089   2.8465088   1.0032742  )
        36           C   tau(  36) = (   0.2844676   1.1418577   0.6704247  )
        37           H   tau(  37) = (   0.8998666   0.6337947   0.0238818  )
        38           H   tau(  38) = (   0.3618142   2.3384368   0.5342247  )
        39           H   tau(  39) = (  -0.3764354   2.7756972   1.0920147  )
        40           H   tau(  40) = (   0.1616171   1.0710551   0.5816717  )
        41           H   tau(  41) = (   0.0268370   0.6311242   0.2656687  )
        42           H   tau(  42) = (   0.2348898   2.3357445   0.2924067  )
        43           H   tau(  43) = (   0.4965943   2.7783677   0.8502277  )
        44           H   tau(  44) = (   0.2885414   1.0737475   0.8234898  )
        45           H   tau(  45) = (  -0.0105308   0.4006505   0.1279846  )
        46           H   tau(  46) = (   0.2722024   2.1052888   0.4301396  )
        47           H   tau(  47) = (   0.5339620   3.0088414   0.9879119  )
        48           H   tau(  48) = (   0.2512288   1.3042031   0.6857569  )
        49           C   tau(  49) = (   0.4118784   0.4960144   0.0352137  )
        50           C   tau(  50) = (  -0.1501846   2.2006669   0.5227496  )
        51           C   tau(  51) = (   0.1115528   2.9134775   1.0806827  )
        52           C   tau(  52) = (   0.6736158   1.2088250   0.5931469  )
        53           C   tau(  53) = (   0.4519171   0.3156145   0.1566279  )
        54           C   tau(  54) = (   0.8098948   2.0202512   0.4013026  )
        55           C   tau(  55) = (   0.0715142   3.0938774   0.9592685  )
        56           C   tau(  56) = (  -0.2864636   1.3892407   0.7145939  )
        57           C   tau(  57) = (   0.5901628   0.0545494   0.2751575  )
        58           C   tau(  58) = (   0.6717400   1.7591849   0.2827102  )
        59           C   tau(  59) = (  -0.0667316   3.3549425   0.8407390  )
        60           C   tau(  60) = (  -0.1483087   1.6503071   0.8331863  )
        61           C   tau(  61) = (   0.7178014   3.2923466   0.3303959  )
        62           C   tau(  62) = (   0.5440825   1.5875099   0.2274252  )
        63           C   tau(  63) = (  -0.1943702   0.1171453   0.7855005  )
        64           C   tau(  64) = (  -0.0206513   1.8219820   0.8884713  )
        65           C   tau(  65) = (  -0.0846746   3.2803482   0.2496718  )
        66           C   tau(  66) = (   0.3466197   1.5755118   0.3082286  )
        67           C   tau(  67) = (   0.6081058   0.1291438   0.8662246  )
        68           C   tau(  68) = (   0.1768115   1.8339801   0.8076678  )
        69           H   tau(  69) = (  -0.0301787   3.4031466   0.1528583  )
        70           H   tau(  70) = (   0.2921710   1.6982692   0.4051207  )
        71           H   tau(  71) = (   0.5536099   0.0063453   0.9630382  )
        72           H   tau(  72) = (   0.2312602   1.7112228   0.7107758  )
        73           C   tau(  73) = (   0.0398091   3.1158713   0.2965852  )
        74           C   tau(  74) = (   0.2220528   1.4110841   0.2612705  )
        75           C   tau(  75) = (   0.4836221   0.2936206   0.8193112  )
        76           C   tau(  76) = (   0.3013784   1.9984078   0.8546259  )
        77           H   tau(  77) = (   0.1904028   3.1041533   0.2283767  )
        78           H   tau(  78) = (   0.0714815   1.3993826   0.3294700  )
        79           H   tau(  79) = (   0.3330284   0.3053387   0.8875198  )
        80           H   tau(  80) = (   0.4519497   2.0101093   0.7864264  )
        81           C   tau(  81) = (  -0.0303581   2.9654101   0.4291819  )
        82           C   tau(  82) = (   0.2921725   1.2606832   0.1285484  )
        83           C   tau(  83) = (   0.5537893   0.4440818   0.6867145  )
        84           C   tau(  84) = (   0.2312587   2.1488088   0.9873480  )
        85           H   tau(  85) = (   0.0673022   2.8381053   0.4701084  )
        86           H   tau(  86) = (   0.1944463   1.1334498   0.0875622  )
        87           H   tau(  87) = (   0.4561290   0.5713866   0.6457880  )
        88           H   tau(  88) = (   0.3289849   2.2760421   1.0283343  )
        89           C   tau(  89) = (   0.7745709   2.9791413   0.5130852  )
        90           C   tau(  90) = (   0.4871917   1.2744228   0.0445904  )
        91           C   tau(  91) = (  -0.2511397   0.4303507   0.6028112  )
        92           C   tau(  92) = (   0.0362395   2.1350692   1.0713060  )
        93           H   tau(  93) = (   0.7221460   2.8620040   0.6177944  )
        94           H   tau(  94) = (   0.0629794   1.1573478   1.0556665  )
        95           H   tau(  95) = (  -0.1987148   0.5474879   0.4981020  )
        96           H   tau(  96) = (   0.4604518   2.2521441   0.0602299  )
        97           C   tau(  97) = (   0.6472506   3.1415070   0.4646356  )
        98           C   tau(  98) = (   0.6145826   1.4367483   0.0930563  )
        99           C   tau(  99) = (  -0.1238194   0.2679849   0.6512608  )
       100           C   tau( 100) = (  -0.0911514   1.9727437   1.0228401  )
       101           H   tau( 101) = (   0.4960750   3.1534422   0.5318307  )
       102           H   tau( 102) = (   0.7657075   1.4487137   0.0257920  )
       103           H   tau( 103) = (   0.0273563   0.2560497   0.5840657  )
       104           H   tau( 104) = (  -0.2422763   1.9607782   1.0901045  )

     number of k points=     5
                       cart. coord. in units 2pi/alat
        k(    1) = (   0.0000000   0.0000000   0.0000000), wk =   0.2222222
        k(    2) = (   0.0000000   0.0000000   0.2987135), wk =   0.4444444
        k(    3) = (   0.3333333   0.0000000   0.1423575), wk =   0.4444444
        k(    4) = (   0.3333333   0.0000000   0.4410710), wk =   0.4444444
        k(    5) = (   0.3333333   0.0000000  -0.1563560), wk =   0.4444444

     Dense  grid:   985489 G-vectors     FFT dimensions: (  80, 270,  96)

     Estimated max dynamical RAM per process >     958.49MB

     Estimated total allocated dynamical RAM >    7667.90MB

     Check: negative/imaginary core charge=   -0.000002    0.000000

     Initial potential from superposition of free atoms

     starting charge  359.99773, renormalised to  360.00000
     Starting wfc are  320 randomized atomic wfcs
     Checking if some PAW data can be deallocated... 

     total cpu time spent up to now is       38.1 secs

     per-process dynamical memory:   600.4 Mb

     Self-consistent Calculation

     iteration #  1     ecut=   100.00 Ry     beta=0.50
     Davidson diagonalization with overlap
     ethr =  1.00E-02,  avg # of iterations =  4.0

     total cpu time spent up to now is      130.7 secs

     total energy              =   -1797.41030575 Ry
     Harris-Foulkes estimate   =   -1802.97472683 Ry
     estimated scf accuracy    <      10.51927682 Ry

     iteration #  2     ecut=   100.00 Ry     beta=0.50
     Davidson diagonalization with overlap
     ethr =  2.92E-03,  avg # of iterations =  2.0

     total cpu time spent up to now is      180.2 secs

     total energy              =   -1797.65365164 Ry
     Harris-Foulkes estimate   =   -1798.72691517 Ry
     estimated scf accuracy    <       2.04683184 Ry

     iteration #  3     ecut=   100.00 Ry     beta=0.50
     Davidson diagonalization with overlap
     ethr =  5.69E-04,  avg # of iterations =  6.6

     total cpu time spent up to now is      284.6 secs

     total energy              =   -1799.00717480 Ry
     Harris-Foulkes estimate   =   -1799.76443620 Ry
     estimated scf accuracy    <       2.02808256 Ry

     iteration #  4     ecut=   100.00 Ry     beta=0.50
     Davidson diagonalization with overlap
     ethr =  5.63E-04,  avg # of iterations =  1.4

     total cpu time spent up to now is      331.3 secs

     total energy              =   -1798.93533807 Ry
     Harris-Foulkes estimate   =   -1799.17916904 Ry
     estimated scf accuracy    <       0.55579374 Ry

     iteration #  5     ecut=   100.00 Ry     beta=0.50
     Davidson diagonalization with overlap
     ethr =  1.54E-04,  avg # of iterations =  5.0

     total cpu time spent up to now is      417.1 secs

     total energy              =   -1799.22249062 Ry
     Harris-Foulkes estimate   =   -1799.25161345 Ry
     estimated scf accuracy    <       0.19178360 Ry

     iteration #  6     ecut=   100.00 Ry     beta=0.50
     Davidson diagonalization with overlap
     ethr =  5.33E-05,  avg # of iterations =  2.0

     total cpu time spent up to now is      465.4 secs

     total energy              =   -1799.19968924 Ry
     Harris-Foulkes estimate   =   -1799.24770364 Ry
     estimated scf accuracy    <       0.09404354 Ry

     iteration #  7     ecut=   100.00 Ry     beta=0.50
     Davidson diagonalization with overlap
     ethr =  2.61E-05,  avg # of iterations =  2.2

     total cpu time spent up to now is      513.8 secs

     total energy              =   -1799.19706205 Ry
     Harris-Foulkes estimate   =   -1799.20714966 Ry
     estimated scf accuracy    <       0.02056307 Ry

     iteration #  8     ecut=   100.00 Ry     beta=0.50
     Davidson diagonalization with overlap
     ethr =  5.71E-06,  avg # of iterations =  7.0

     total cpu time spent up to now is      616.8 secs

     total energy              =   -1799.21183796 Ry
     Harris-Foulkes estimate   =   -1799.21424959 Ry
     estimated scf accuracy    <       0.00691634 Ry

     iteration #  9     ecut=   100.00 Ry     beta=0.50
     Davidson diagonalization with overlap
     ethr =  1.92E-06,  avg # of iterations =  1.0

     total cpu time spent up to now is      662.8 secs

     total energy              =   -1799.21055726 Ry
     Harris-Foulkes estimate   =   -1799.21210335 Ry
     estimated scf accuracy    <       0.00267677 Ry

     iteration # 10     ecut=   100.00 Ry     beta=0.50
     Davidson diagonalization with overlap
     ethr =  7.44E-07,  avg # of iterations =  4.0

     total cpu time spent up to now is      741.8 secs

     total energy              =   -1799.21218512 Ry
     Harris-Foulkes estimate   =   -1799.21251852 Ry
     estimated scf accuracy    <       0.00131512 Ry

     iteration # 11     ecut=   100.00 Ry     beta=0.50
     Davidson diagonalization with overlap
     ethr =  3.65E-07,  avg # of iterations =  1.0

     total cpu time spent up to now is      787.8 secs

     total energy              =   -1799.21204962 Ry
     Harris-Foulkes estimate   =   -1799.21224776 Ry
     estimated scf accuracy    <       0.00063989 Ry

     iteration # 12     ecut=   100.00 Ry     beta=0.50
     Davidson diagonalization with overlap
     ethr =  1.78E-07,  avg # of iterations =  3.4

     total cpu time spent up to now is      845.8 secs

     total energy              =   -1799.21212448 Ry
     Harris-Foulkes estimate   =   -1799.21215269 Ry
     estimated scf accuracy    <       0.00006979 Ry

     iteration # 13     ecut=   100.00 Ry     beta=0.50
     Davidson diagonalization with overlap
     ethr =  1.94E-08,  avg # of iterations =  5.0

     total cpu time spent up to now is      917.2 secs

     total energy              =   -1799.21214684 Ry
     Harris-Foulkes estimate   =   -1799.21214774 Ry
     estimated scf accuracy    <       0.00000300 Ry

     iteration # 14     ecut=   100.00 Ry     beta=0.50
     Davidson diagonalization with overlap
     ethr =  8.33E-10,  avg # of iterations =  4.4

     total cpu time spent up to now is      994.4 secs

     total energy              =   -1799.21214826 Ry
     Harris-Foulkes estimate   =   -1799.21214843 Ry
     estimated scf accuracy    <       0.00000048 Ry

     iteration # 15     ecut=   100.00 Ry     beta=0.50
     Davidson diagonalization with overlap
     ethr =  1.33E-10,  avg # of iterations =  4.0

     total cpu time spent up to now is     1059.0 secs

     total energy              =   -1799.21214836 Ry
     Harris-Foulkes estimate   =   -1799.21214843 Ry
     estimated scf accuracy    <       0.00000018 Ry

     iteration # 16     ecut=   100.00 Ry     beta=0.50
     Davidson diagonalization with overlap
     ethr =  4.97E-11,  avg # of iterations =  3.2

     total cpu time spent up to now is     1113.1 secs

     total energy              =   -1799.21214838 Ry
     Harris-Foulkes estimate   =   -1799.21214840 Ry
     estimated scf accuracy    <       0.00000005 Ry

     iteration # 17     ecut=   100.00 Ry     beta=0.50
     Davidson diagonalization with overlap
     ethr =  1.29E-11,  avg # of iterations =  3.8

     total cpu time spent up to now is     1192.6 secs

     total energy              =   -1799.21214841 Ry
     Harris-Foulkes estimate   =   -1799.21214841 Ry
     estimated scf accuracy    <       0.00000001 Ry

     iteration # 18     ecut=   100.00 Ry     beta=0.50
     Davidson diagonalization with overlap
     ethr =  3.34E-12,  avg # of iterations =  2.0

     total cpu time spent up to now is     1241.4 secs

     End of self-consistent calculation

          k = 0.0000 0.0000 0.0000 (123185 PWs)   bands (ev):

   -23.4606 -23.4606 -23.4357 -23.4357 -22.7470 -22.7457 -22.7305 -22.7293
   -21.5023 -21.5023 -21.4889 -21.4889 -17.0382 -17.0370 -17.0048 -17.0037
   -15.9007 -15.8877 -15.8561 -15.8443 -15.4284 -15.4034 -15.3776 -15.3560
   -14.7558 -14.7469 -14.7240 -14.7145 -14.4532 -14.4513 -14.4506 -14.4472
   -12.2513 -12.2460 -12.2124 -12.2064 -11.8662 -11.8648 -11.8549 -11.8523
   -11.5529 -11.5430 -11.5031 -11.4996 -10.6399 -10.6251 -10.6086 -10.5977
    -9.5984  -9.5972  -9.5896  -9.5876  -8.9783  -8.9683  -8.9445  -8.9053
    -8.4241  -8.3873  -8.3656  -8.3517  -8.1153  -8.0855  -8.0768  -8.0746
    -7.9040  -7.8955  -7.8009  -7.7852  -6.9824  -6.9817  -6.8271  -6.8114
    -6.4813  -6.3836  -6.3272  -6.2390  -6.1685  -6.0411  -6.0293  -5.9670
    -5.7374  -5.7029  -5.5809  -5.5555  -5.5476  -5.4188  -5.4158  -5.3448
    -4.9894  -4.9836  -4.9484  -4.9114  -4.6616  -4.6519  -4.6398  -4.5985
    -4.3643  -4.3443  -4.2978  -4.2948  -4.0312  -3.9659  -3.8969  -3.8839
    -3.8713  -3.8375  -3.8143  -3.7917  -3.7372  -3.7319  -3.5951  -3.5730
    -3.5417  -3.5134  -3.4918  -3.4608  -3.3630  -3.3415  -3.3253  -3.3180
    -3.3023  -3.2308  -3.1967  -3.1887  -2.8292  -2.8239  -2.7948  -2.7713
    -2.7506  -2.7489  -2.5317  -2.5060  -2.3722  -2.3653  -2.3030  -2.3006
    -2.1146  -2.0690  -2.0656  -2.0446  -1.9287  -1.9060  -1.8455  -1.8260
    -1.6678  -1.6656  -1.6332  -1.6267  -1.4271  -1.4214  -1.3020  -1.2827
    -1.1727  -1.1616  -1.0812  -1.0774  -0.5391  -0.5252  -0.5196  -0.5190
    -0.4288  -0.4063  -0.3952  -0.3268  -0.2287  -0.2283  -0.1801  -0.1109
     0.2637   0.2667   0.3522   0.3576   0.4669   0.5320   0.6138   0.6277
     0.7958   0.8502   1.0623   1.0684   4.0059   4.0389   4.0403   4.0474
     4.1853   4.2030   4.3304   4.4039   5.1460   5.2302   5.2643   5.4733
     5.5148   5.5206   5.5495   5.5970   5.6260   5.6419   5.6927   5.7251
     6.5990   6.6540   6.7837   6.8377   6.9092   7.0225   7.0996   7.3062
     7.5418   7.6539   7.8563   7.8665   8.0406   8.0592   8.0835   8.2702

          k = 0.0000 0.0000 0.2987 (123149 PWs)   bands (ev):

   -23.4544 -23.4544 -23.4420 -23.4420 -22.7432 -22.7419 -22.7343 -22.7331
   -21.4990 -21.4989 -21.4922 -21.4922 -17.0331 -17.0321 -17.0099 -17.0089
   -15.8955 -15.8743 -15.8721 -15.8493 -15.4113 -15.3952 -15.3822 -15.3749
   -14.7472 -14.7399 -14.7285 -14.7261 -14.4597 -14.4585 -14.4430 -14.4414
   -12.2434 -12.2397 -12.2174 -12.2134 -11.8993 -11.8990 -11.8405 -11.8400
   -11.5287 -11.5216 -11.5051 -11.4996 -10.6290 -10.6211 -10.6117 -10.6068
    -9.5965  -9.5955  -9.5894  -9.5888  -8.9698  -8.9603  -8.9439  -8.9195
    -8.4216  -8.4006  -8.3698  -8.3425  -8.0987  -8.0810  -8.0716  -8.0686
    -7.8813  -7.8793  -7.8282  -7.8175  -6.9528  -6.9398  -6.8700  -6.8569
    -6.4458  -6.3976  -6.3083  -6.2461  -6.1457  -6.0430  -5.9925  -5.9845
    -5.7115  -5.7060  -5.5783  -5.5723  -5.5290  -5.4643  -5.4208  -5.3906
    -4.9834  -4.9625  -4.9612  -4.9241  -4.6942  -4.6872  -4.6282  -4.6098
    -4.3644  -4.3441  -4.3296  -4.3195  -4.0124  -3.9768  -3.8970  -3.8865
    -3.8438  -3.8018  -3.7985  -3.7896  -3.7483  -3.6812  -3.6296  -3.5711
    -3.5640  -3.5623  -3.4756  -3.4488  -3.3726  -3.3578  -3.3428  -3.3093
    -3.2418  -3.2207  -3.2136  -3.1883  -2.8403  -2.8254  -2.7951  -2.7890
    -2.7695  -2.7632  -2.5530  -2.5424  -2.3669  -2.3638  -2.3363  -2.3283
    -2.0951  -2.0570  -2.0217  -1.9980  -1.9053  -1.8797  -1.8559  -1.8234
    -1.7479  -1.7384  -1.5756  -1.5719  -1.3532  -1.3502  -1.2690  -1.2683
    -1.1780  -1.1733  -1.1613  -1.1608  -0.5379  -0.5344  -0.4762  -0.4708
    -0.4303  -0.4171  -0.3732  -0.3355  -0.2123  -0.1786  -0.1615  -0.1141
     0.2276   0.2344   0.3454   0.3457   0.5076   0.5216   0.6522   0.6564
     0.8493   0.8857   0.9795   1.0021   3.9467   3.9518   4.0810   4.0966
     4.2102   4.2185   4.3746   4.4091   5.2372   5.2677   5.3159   5.3972
     5.4004   5.4403   5.5467   5.5859   5.6170   5.6210   5.7223   5.7346
     6.6538   6.7011   6.8180   6.8279   7.1240   7.2120   7.2929   7.3811
     7.5486   7.6893   7.7738   7.8043   7.9818   8.0176   8.1711   8.1796

          k = 0.3333 0.0000 0.1424 (123124 PWs)   bands (ev):

   -23.4538 -23.4538 -23.4413 -23.4413 -22.7460 -22.7447 -22.7311 -22.7299
   -21.5001 -21.5001 -21.4934 -21.4934 -17.0380 -17.0370 -17.0036 -17.0026
   -15.9024 -15.8814 -15.8728 -15.8494 -15.4158 -15.3990 -15.3840 -15.3770
   -14.7515 -14.7436 -14.7251 -14.7225 -14.4509 -14.4497 -14.4462 -14.4451
   -12.2531 -12.2508 -12.2107 -12.2079 -11.8768 -11.8766 -11.8628 -11.8620
   -11.5313 -11.5190 -11.5047 -11.4959 -10.6293 -10.6211 -10.6127 -10.6080
    -9.5793  -9.5789  -9.5750  -9.5740  -8.9593  -8.9490  -8.9372  -8.9125
    -8.3816  -8.3609  -8.3126  -8.2939  -8.1066  -8.0870  -8.0570  -8.0518
    -7.9298  -7.9273  -7.8511  -7.8413  -6.9090  -6.8974  -6.8100  -6.7918
    -6.4208  -6.3925  -6.3056  -6.2850  -6.1475  -6.0466  -5.9966  -5.9786
    -5.7021  -5.7008  -5.5881  -5.5537  -5.5140  -5.4968  -5.4051  -5.3927
    -4.9899  -4.9723  -4.9641  -4.9343  -4.7361  -4.7311  -4.6175  -4.6009
    -4.4149  -4.4099  -4.3115  -4.3077  -4.1368  -4.1048  -4.0088  -3.9896
    -3.8939  -3.8873  -3.7811  -3.7613  -3.7514  -3.7350  -3.6641  -3.6493
    -3.6163  -3.5398  -3.4880  -3.4356  -3.4231  -3.4146  -3.3844  -3.3406
    -3.2505  -3.2450  -3.2165  -3.1661  -3.1097  -3.0903  -3.0487  -3.0430
    -2.7852  -2.7730  -2.5065  -2.5012  -2.0991  -2.0872  -2.0803  -2.0236
    -2.0017  -1.9807  -1.9509  -1.9225  -1.8584  -1.8400  -1.8310  -1.8002
    -1.6675  -1.6571  -1.5760  -1.5682  -1.3889  -1.3828  -1.3213  -1.3019
    -1.2722  -1.2546  -1.1648  -1.1515  -0.5139  -0.4888  -0.4827  -0.4543
    -0.3993  -0.3855  -0.2694  -0.2482  -0.1195  -0.0913  -0.0721  -0.0428
     0.2689   0.2716   0.3764   0.3787   0.5104   0.5355   0.6290   0.6342
     0.8302   0.8711   0.9652   0.9761   3.9639   3.9678   4.0487   4.0697
     4.1832   4.1919   4.3142   4.3436   5.1764   5.1904   5.3280   5.3590
     5.3804   5.4491   5.5709   5.6469   5.6950   5.7265   5.7293   5.7603
     6.7072   6.7623   6.8389   6.8727   7.0773   7.2026   7.3857   7.5355
     7.5522   7.6860   7.8526   7.8745   7.9567   7.9881   8.0565   8.1251

          k = 0.3333 0.0000 0.4411 (123216 PWs)   bands (ev):

   -23.4534 -23.4534 -23.4417 -23.4417 -22.7421 -22.7408 -22.7350 -22.7338
   -21.4997 -21.4997 -21.4939 -21.4938 -17.0326 -17.0315 -17.0091 -17.0082
   -15.8978 -15.8820 -15.8713 -15.8536 -15.4159 -15.4017 -15.3818 -15.3770
   -14.7436 -14.7379 -14.7317 -14.7301 -14.4522 -14.4512 -14.4452 -14.4440
   -12.2460 -12.2437 -12.2160 -12.2148 -11.9053 -11.9033 -11.8554 -11.8542
   -11.5081 -11.5036 -11.4995 -11.4962 -10.6197 -10.6192 -10.6166 -10.6144
    -9.6011  -9.5981  -9.5559  -9.5523  -8.9561  -8.9441  -8.9392  -8.9194
    -8.3558  -8.3516  -8.3345  -8.2965  -8.0938  -8.0818  -8.0694  -8.0602
    -7.9192  -7.9130  -7.8627  -7.8424  -6.9253  -6.9213  -6.7966  -6.7824
    -6.4600  -6.3452  -6.3354  -6.2563  -6.1376  -6.1052  -5.9799  -5.9662
    -5.7156  -5.7033  -5.5375  -5.5352  -5.5174  -5.4991  -5.4296  -5.3819
    -5.0453  -4.9881  -4.9842  -4.9092  -4.7065  -4.6934  -4.6711  -4.6308
    -4.3923  -4.3787  -4.3230  -4.3169  -4.1224  -4.1183  -4.0735  -4.0548
    -3.8576  -3.8238  -3.7993  -3.7803  -3.7673  -3.7115  -3.6612  -3.6291
    -3.5658  -3.5309  -3.4914  -3.4469  -3.4247  -3.3977  -3.3575  -3.3214
    -3.2921  -3.2292  -3.1676  -3.1451  -3.1443  -3.1017  -3.0975  -3.0568
    -2.7649  -2.7572  -2.5301  -2.5287  -2.1112  -2.0727  -2.0429  -2.0251
    -2.0029  -1.9976  -1.9513  -1.9102  -1.8974  -1.8826  -1.8261  -1.7965
    -1.6108  -1.6021  -1.5834  -1.5614  -1.4840  -1.4782  -1.3412  -1.3235
    -1.1851  -1.1686  -1.0969  -1.0936  -0.5294  -0.5011  -0.4872  -0.4744
    -0.4085  -0.4000  -0.2801  -0.2363  -0.1093  -0.0953  -0.0787  -0.0326
     0.2394   0.2420   0.3744   0.3776   0.5117   0.5243   0.6367   0.6376
     0.8219   0.8553   0.9655   0.9906   3.9411   3.9613   4.0538   4.0799
     4.1807   4.1938   4.3285   4.3580   5.1581   5.1617   5.3550   5.3738
     5.3954   5.4133   5.5808   5.6320   5.6952   5.7158   5.7389   5.7421
     6.7473   6.7843   6.8258   6.8674   7.4360   7.4447   7.5046   7.5096
     7.5811   7.6211   7.7042   7.8036   7.8711   8.0578   8.0611   8.1049

          k = 0.3333 0.0000-0.1564 (123251 PWs)   bands (ev):

   -23.4596 -23.4596 -23.4354 -23.4354 -22.7427 -22.7415 -22.7344 -22.7332
   -21.5031 -21.5031 -21.4906 -21.4906 -17.0315 -17.0304 -17.0103 -17.0093
   -15.9010 -15.8888 -15.8611 -15.8505 -15.4327 -15.4094 -15.3779 -15.3586
   -14.7500 -14.7420 -14.7298 -14.7210 -14.4546 -14.4533 -14.4431 -14.4420
   -12.2471 -12.2418 -12.2182 -12.2135 -11.9089 -11.9066 -11.8542 -11.8522
   -11.5140 -11.5099 -11.4919 -11.4911 -10.6294 -10.6205 -10.6135 -10.6070
    -9.5977  -9.5955  -9.5573  -9.5539  -8.9646  -8.9559  -8.9334  -8.9020
    -8.3966  -8.3483  -8.3361  -8.2677  -8.1035  -8.0746  -8.0488  -8.0447
    -7.9167  -7.9127  -7.8726  -7.8614  -6.8993  -6.8783  -6.8228  -6.8206
    -6.4759  -6.3709  -6.3462  -6.2534  -6.1918  -6.0403  -6.0184  -6.0016
    -5.7497  -5.7219  -5.5468  -5.5299  -5.5094  -5.4398  -5.3824  -5.3658
    -5.0119  -4.9783  -4.9738  -4.9274  -4.7310  -4.7233  -4.6295  -4.6286
    -4.4000  -4.3866  -4.3302  -4.3294  -4.1269  -4.1108  -4.0434  -4.0218
    -3.8666  -3.8414  -3.8263  -3.7737  -3.7022  -3.7022  -3.6630  -3.6177
    -3.5853  -3.5556  -3.4432  -3.4323  -3.4232  -3.3933  -3.3381  -3.3169
    -3.2675  -3.2295  -3.2028  -3.1626  -3.1108  -3.0961  -3.0903  -3.0479
    -2.7220  -2.7164  -2.5434  -2.5259  -2.1118  -2.0845  -2.0811  -2.0532
    -2.0336  -1.9855  -1.9500  -1.9152  -1.9009  -1.8546  -1.8250  -1.8018
    -1.6642  -1.6579  -1.5572  -1.5385  -1.4168  -1.4120  -1.3675  -1.3389
    -1.2092  -1.1916  -1.1702  -1.1492  -0.5068  -0.4952  -0.4646  -0.4641
    -0.3879  -0.3795  -0.3105  -0.3036  -0.1145  -0.0854  -0.0750  -0.0686
     0.2656   0.2722   0.3586   0.3651   0.4674   0.5272   0.6005   0.6192
     0.7638   0.8167   1.0399   1.0501   3.9771   4.0297   4.0321   4.0546
     4.1786   4.1834   4.2797   4.3482   5.0849   5.1140   5.3290   5.4331
     5.5128   5.5137   5.5693   5.5739   5.7005   5.7017   5.7090   5.7395
     6.7131   6.7550   6.9027   6.9322   7.1440   7.2670   7.4289   7.5368
     7.5927   7.7476   7.7792   7.8473   7.8536   7.9544   8.0570   8.2165

     highest occupied, lowest unoccupied level (ev):     1.0684    3.9411

!    total energy              =   -1799.21214841 Ry
     Harris-Foulkes estimate   =   -1799.21214841 Ry
     estimated scf accuracy    <          2.4E-09 Ry

     total all-electron energy =     -6947.775999 Ry

     The total energy is the sum of the following terms:

     one-electron contribution =   -1015.08814473 Ry
     hartree contribution      =     645.51848963 Ry
     xc contribution           =    -378.80243119 Ry
     ewald contribution        =    -510.69333091 Ry
     Dispersion Correction     =      -0.49091147 Ry
     one-center paw contrib.   =    -539.65581973 Ry

     convergence has been achieved in  18 iterations

     Forces acting on atoms (cartesian axes, Ry/au):

     atom    1 type  4   force =    -0.00007067   -0.00153235   -0.00033500
     atom    2 type  4   force =    -0.00004284   -0.00161084    0.00031073
     atom    3 type  4   force =     0.00007067    0.00153235    0.00033500
     atom    4 type  4   force =     0.00004284    0.00161084   -0.00031073
     atom    5 type  4   force =     0.00033441    0.00011637    0.00048246
     atom    6 type  4   force =    -0.00031002    0.00005508   -0.00053184
     atom    7 type  4   force =    -0.00033441   -0.00011637   -0.00048246
     atom    8 type  4   force =     0.00031002   -0.00005508    0.00053184
     atom    9 type  4   force =     0.00206220   -0.00046977   -0.00003131
     atom   10 type  4   force =    -0.00207920   -0.00048838    0.00003292
     atom   11 type  4   force =    -0.00206220    0.00046977    0.00003131
     atom   12 type  4   force =     0.00207920    0.00048838   -0.00003292
     atom   13 type  2   force =     0.00001901    0.00153918    0.00288140
     atom   14 type  2   force =     0.00022031    0.00157030   -0.00292312
     atom   15 type  2   force =    -0.00001901   -0.00153918   -0.00288140
     atom   16 type  2   force =    -0.00022031   -0.00157030    0.00292312
     atom   17 type  2   force =    -0.00071595   -0.00459679   -0.00696487
     atom   18 type  2   force =     0.00039016   -0.00438546    0.00720402
     atom   19 type  2   force =     0.00071595    0.00459679    0.00696487
     atom   20 type  2   force =    -0.00039016    0.00438546   -0.00720402
     atom   21 type  2   force =    -0.00264221   -0.00182333   -0.00216116
     atom   22 type  2   force =     0.00269746   -0.00179615    0.00212701
     atom   23 type  2   force =     0.00264221    0.00182333    0.00216116
     atom   24 type  2   force =    -0.00269746    0.00179615   -0.00212701
     atom   25 type  2   force =    -0.00057125    0.00152233    0.00037634
     atom   26 type  2   force =     0.00062647    0.00157614   -0.00036673
     atom   27 type  2   force =     0.00057125   -0.00152233   -0.00037634
     atom   28 type  2   force =    -0.00062647   -0.00157614    0.00036673
     atom   29 type  1   force =     0.00331757    0.00212426    0.00149326
     atom   30 type  1   force =    -0.00360667    0.00219563   -0.00137329
     atom   31 type  1   force =    -0.00331757   -0.00212426   -0.00149326
     atom   32 type  1   force =     0.00360667   -0.00219563    0.00137329
     atom   33 type  1   force =    -0.00605629    0.00382263   -0.00136223
     atom   34 type  1   force =     0.00619314    0.00378401    0.00129734
     atom   35 type  1   force =     0.00605629   -0.00382263    0.00136223
     atom   36 type  1   force =    -0.00619314   -0.00378401   -0.00129734
     atom   37 type  3   force =     0.00524962   -0.00101304    0.00406480
     atom   38 type  3   force =    -0.00525533   -0.00100129   -0.00407200
     atom   39 type  3   force =    -0.00524962    0.00101304   -0.00406480
     atom   40 type  3   force =     0.00525533    0.00100129    0.00407200
     atom   41 type  3   force =    -0.00050305   -0.00033423   -0.00076099
     atom   42 type  3   force =     0.00050822   -0.00033551    0.00078665
     atom   43 type  3   force =     0.00050305    0.00033423    0.00076099
     atom   44 type  3   force =    -0.00050822    0.00033551   -0.00078665
     atom   45 type  3   force =     0.00104081   -0.00144212    0.00111084
     atom   46 type  3   force =    -0.00104332   -0.00138428   -0.00111304
     atom   47 type  3   force =    -0.00104081    0.00144212   -0.00111084
     atom   48 type  3   force =     0.00104332    0.00138428    0.00111304
     atom   49 type  1   force =    -0.00208177    0.00037679   -0.00116814
     atom   50 type  1   force =     0.00249432    0.00014051    0.00088166
     atom   51 type  1   force =     0.00208177   -0.00037679    0.00116814
     atom   52 type  1   force =    -0.00249432   -0.00014051   -0.00088166
     atom   53 type  1   force =     0.00045092   -0.00040129    0.00018826
     atom   54 type  1   force =    -0.00055337   -0.00032915   -0.00005213
     atom   55 type  1   force =    -0.00045092    0.00040129   -0.00018826
     atom   56 type  1   force =     0.00055337    0.00032915    0.00005213
     atom   57 type  1   force =    -0.00060149   -0.00129283    0.00240275
     atom   58 type  1   force =     0.00046862   -0.00139739   -0.00241961
     atom   59 type  1   force =     0.00060149    0.00129283   -0.00240275
     atom   60 type  1   force =    -0.00046862    0.00139739    0.00241961
     atom   61 type  1   force =     0.00051078    0.00256121   -0.00017007
     atom   62 type  1   force =    -0.00014995    0.00259414    0.00004149
     atom   63 type  1   force =    -0.00051078   -0.00256121    0.00017007
     atom   64 type  1   force =     0.00014995   -0.00259414   -0.00004149
     atom   65 type  1   force =    -0.00072551    0.00038591   -0.00223991
     atom   66 type  1   force =     0.00028939    0.00016765    0.00226090
     atom   67 type  1   force =     0.00072551   -0.00038591    0.00223991
     atom   68 type  1   force =    -0.00028939   -0.00016765   -0.00226090
     atom   69 type  3   force =    -0.00011357   -0.00111278   -0.00023999
     atom   70 type  3   force =     0.00014557   -0.00110340    0.00025329
     atom   71 type  3   force =     0.00011357    0.00111278    0.00023999
     atom   72 type  3   force =    -0.00014557    0.00110340   -0.00025329
     atom   73 type  1   force =    -0.00062703    0.00181032    0.00075040
     atom   74 type  1   force =     0.00108451    0.00189002   -0.00096932
     atom   75 type  1   force =     0.00062703   -0.00181032   -0.00075040
     atom   76 type  1   force =    -0.00108451   -0.00189002    0.00096932
     atom   77 type  3   force =     0.00018577    0.00106044    0.00121865
     atom   78 type  3   force =    -0.00036382    0.00103483   -0.00111367
     atom   79 type  3   force =    -0.00018577   -0.00106044   -0.00121865
     atom   80 type  3   force =     0.00036382   -0.00103483    0.00111367
     atom   81 type  1   force =    -0.00052128    0.00042562    0.00028060
     atom   82 type  1   force =     0.00018213    0.00054628   -0.00005915
     atom   83 type  1   force =     0.00052128   -0.00042562   -0.00028060
     atom   84 type  1   force =    -0.00018213   -0.00054628    0.00005915
     atom   85 type  3   force =     0.00057174   -0.00068275   -0.00082524
     atom   86 type  3   force =    -0.00055466   -0.00071054    0.00082023
     atom   87 type  3   force =    -0.00057174    0.00068275    0.00082524
     atom   88 type  3   force =     0.00055466    0.00071054   -0.00082023
     atom   89 type  1   force =     0.00016224    0.00074415    0.00132808
     atom   90 type  1   force =     0.00018347    0.00082565   -0.00145954
     atom   91 type  1   force =    -0.00016224   -0.00074415   -0.00132808
     atom   92 type  1   force =    -0.00018347   -0.00082565    0.00145954
     atom   93 type  3   force =    -0.00018277   -0.00059068    0.00033500
     atom   94 type  3   force =     0.00015703   -0.00057395   -0.00029876
     atom   95 type  3   force =     0.00018277    0.00059068   -0.00033500
     atom   96 type  3   force =    -0.00015703    0.00057395    0.00029876
     atom   97 type  1   force =     0.00177551   -0.00101778   -0.00124908
     atom   98 type  1   force =    -0.00210875   -0.00106888    0.00141460
     atom   99 type  1   force =    -0.00177551    0.00101778    0.00124908
     atom  100 type  1   force =     0.00210875    0.00106888   -0.00141460
     atom  101 type  3   force =    -0.00001906   -0.00169816   -0.00026967
     atom  102 type  3   force =     0.00013024   -0.00169504    0.00021995
     atom  103 type  3   force =     0.00001906    0.00169816    0.00026967
     atom  104 type  3   force =    -0.00013024    0.00169504   -0.00021995

     Total force =     0.033484     Total SCF correction =     0.000100


     Computing stress (Cartesian axis) and pressure

          total   stress  (Ry/bohr**3)                   (kbar)     P=   -1.10
  -0.00000491   0.00000002   0.00000170         -0.72      0.00      0.25
   0.00000002  -0.00000956  -0.00000007          0.00     -1.41     -0.01
   0.00000170  -0.00000007  -0.00000793          0.25     -0.01     -1.17


     Writing output data file scf.save
 
     init_run     :     35.81s CPU     37.58s WALL (       1 calls)
     electrons    :   1139.94s CPU   1203.42s WALL (       1 calls)
     forces       :     18.61s CPU     18.84s WALL (       1 calls)
     stress       :    121.03s CPU    121.35s WALL (       1 calls)

     Called by init_run:
     wfcinit      :     24.97s CPU     26.51s WALL (       1 calls)
     potinit      :      3.84s CPU      3.96s WALL (       1 calls)

     Called by electrons:
     c_bands      :   1011.14s CPU   1064.31s WALL (      18 calls)
     sum_band     :    113.63s CPU    122.27s WALL (      18 calls)
     v_of_rho     :      2.29s CPU      2.58s WALL (      19 calls)
     newd         :      5.62s CPU      6.91s WALL (      19 calls)
     PAW_pot      :      6.66s CPU      6.67s WALL (      19 calls)
     mix_rho      :      0.63s CPU      0.67s WALL (      18 calls)

     Called by c_bands:
     init_us_2    :      7.29s CPU      7.32s WALL (     195 calls)
     cegterg      :    983.64s CPU   1036.78s WALL (      90 calls)

     Called by sum_band:
     sum_band:bec :      0.07s CPU      0.07s WALL (      90 calls)
     addusdens    :      6.05s CPU      7.33s WALL (      18 calls)

     Called by *egterg:
     h_psi        :    574.58s CPU    618.00s WALL (     405 calls)
     s_psi        :    108.16s CPU    108.17s WALL (     405 calls)
     g_psi        :      3.46s CPU      3.45s WALL (     310 calls)
     cdiaghg      :     57.56s CPU     57.57s WALL (     400 calls)

     Called by h_psi:
     h_psi:pot    :    570.07s CPU    613.42s WALL (     405 calls)
     h_psi:calbec :    102.01s CPU    102.25s WALL (     405 calls)
     vloc_psi     :    359.99s CPU    403.08s WALL (     405 calls)
     add_vuspsi   :    108.07s CPU    108.09s WALL (     405 calls)

     General routines
     calbec       :    152.49s CPU    152.84s WALL (     520 calls)
     fft          :      2.81s CPU      3.31s WALL (     271 calls)
     fftw         :    387.23s CPU    437.08s WALL (  128360 calls)
 
     Parallel routines
     fft_scatter  :     77.56s CPU    125.00s WALL (  128631 calls)
 
     PWSCF        : 22m 3.40s CPU    23m40.20s WALL

 
   This run was terminated on:  22: 7:54   3Nov2017            

=------------------------------------------------------------------------------=
   JOB DONE.
=------------------------------------------------------------------------------=
