
     Program PWSCF v.6.1 (svn rev. 13369) starts on 22Dec2017 at  7:21:19 

     This program is part of the open-source Quantum ESPRESSO suite
     for quantum simulation of materials; please cite
         "P. Giannozzi et al., J. Phys.:Condens. Matter 21 395502 (2009);
          URL http://www.quantum-espresso.org", 
     in publications or presentations arising from this work. More details at
     http://www.quantum-espresso.org/quote

     Parallel version (MPI), running on     8 processors
     R & G space division:  proc/nbgrp/npool/nimage =       8
     Waiting for input...
     Reading input from standard input

     Current dimensions of program PWSCF are:
     Max number of different atomic species (ntypx) = 10
     Max number of k-points (npk) =  40000
     Max angular momentum in pseudopotentials (lmaxx) =  3
               file C.pbe-n-kjpaw_psl.0.1.UPF: wavefunction(s)  2P renormalized
               file N.pbe-n-kjpaw_psl.0.1.UPF: wavefunction(s)  2P renormalized
               file H.pbe-kjpaw_psl.0.1.UPF: wavefunction(s)  1S renormalized
               file O.pbe-n-kjpaw_psl.0.1.UPF: wavefunction(s)  2P renormalized

     -------------------------------------
     Parameters for Dispersion Correction:
     -------------------------------------
       atom      VdW radius       C_6     

        C          2.744         60.710
        N          2.640         42.670
        H          1.892          4.857
        O          2.536         24.284

     Subspace diagonalization in iterative solution of the eigenvalue problem:
     a serial algorithm will be used

 
     Parallelization info
     --------------------
     sticks:   dense  smooth     PW     G-vecs:    dense   smooth      PW
     Min         957     957    251               124492   124492   16718
     Max         958     958    252               124495   124495   16723
     Sum        7659    7659   2013               995945   995945  133757
 


     bravais-lattice index     =            0
     lattice parameter (alat)  =      17.3392  a.u.
     unit-cell volume          =    7372.8805 (a.u.)^3
     number of atoms/cell      =          112
     number of atomic types    =            4
     number of electrons       =       424.00
     number of Kohn-Sham states=          254
     kinetic-energy cutoff     =     100.0000  Ry
     charge density cutoff     =     400.0000  Ry
     convergence threshold     =      1.0E-08
     mixing beta               =       0.5000
     number of iterations used =            8  plain     mixing
     Exchange-correlation      =  SLA  PW   PBX  PBC ( 1  4  3  4 0 0)

     celldm(1)=  17.339182  celldm(2)=   0.000000  celldm(3)=   0.000000
     celldm(4)=   0.000000  celldm(5)=   0.000000  celldm(6)=   0.000000

     crystal axes: (cart. coord. in units of alat)
               a(1) = (   1.000000   0.000000   0.000000 )  
               a(2) = (   0.000000   0.799749   0.000000 )  
               a(3) = (  -0.460849   0.000000   1.768469 )  

     reciprocal axes: (cart. coord. in units 2 pi/alat)
               b(1) = (  1.000000  0.000000  0.260592 )  
               b(2) = (  0.000000  1.250392  0.000000 )  
               b(3) = (  0.000000  0.000000  0.565461 )  


     PseudoPot. # 1 for  C read from file:
     /scratch/ahofstet/pseudo/C.pbe-n-kjpaw_psl.0.1.UPF
     MD5 check sum: 430fe95172b1e11ef3f8ed03bac87931
     Pseudo is Projector augmented-wave + core cor, Zval =  4.0
     Generated using "atomic" code by A. Dal Corso  v.5.0.99 svn rev. 10869
     Shape of augmentation charge: BESSEL
     Using radial grid of 1073 points,  4 beta functions with: 
                l(1) =   0
                l(2) =   0
                l(3) =   1
                l(4) =   1
     Q(r) pseudized with 0 coefficients 


     PseudoPot. # 2 for  N read from file:
     /scratch/ahofstet/pseudo/N.pbe-n-kjpaw_psl.0.1.UPF
     MD5 check sum: f73187c8b701007e77325f868c9291d7
     Pseudo is Projector augmented-wave + core cor, Zval =  5.0
     Generated using "atomic" code by A. Dal Corso  v.5.0.99 svn rev. 10869
     Shape of augmentation charge: PSQ
     Using radial grid of 1085 points,  4 beta functions with: 
                l(1) =   0
                l(2) =   0
                l(3) =   1
                l(4) =   1
     Q(r) pseudized with 0 coefficients 


     PseudoPot. # 3 for  H read from file:
     /scratch/ahofstet/pseudo/H.pbe-kjpaw_psl.0.1.UPF
     MD5 check sum: 94e484f906d9e9773b2f6e52662335b2
     Pseudo is Projector augmented-wave, Zval =  1.0
     Generated using "atomic" code by A. Dal Corso  v.5.0.99 svn rev. 10869
     Shape of augmentation charge: PSQ
     Using radial grid of  929 points,  2 beta functions with: 
                l(1) =   0
                l(2) =   0
     Q(r) pseudized with 0 coefficients 


     PseudoPot. # 4 for  O read from file:
     /scratch/ahofstet/pseudo/O.pbe-n-kjpaw_psl.0.1.UPF
     MD5 check sum: 3f94a2996a3169367d6eb21d9b593f20
     Pseudo is Projector augmented-wave + core cor, Zval =  6.0
     Generated using "atomic" code by A. Dal Corso  v.5.0.99 svn rev. 10869
     Shape of augmentation charge: BESSEL
     Using radial grid of 1095 points,  4 beta functions with: 
                l(1) =   0
                l(2) =   0
                l(3) =   1
                l(4) =   1
     Q(r) pseudized with 0 coefficients 


     atomic species   valence    mass     pseudopotential
        C              4.00    12.01070      C( 1.00)
        N              5.00    14.00670      N( 1.00)
        H              1.00     1.00794      H( 1.00)
        O              6.00    15.99940      O( 1.00)

      4 Sym. Ops., with inversion, found ( 2 have fractional translation)



   Cartesian axes

     site n.     atom                  positions (alat units)
         1           O   tau(   1) = (   0.6546347   0.0228494   0.3037820  )
         2           O   tau(   2) = (   0.1149405   0.4227241   0.5804526  )
         3           O   tau(   3) = (  -0.1154842   0.7768999   1.4646872  )
         4           O   tau(   4) = (   0.4242100   0.3770253   1.1880165  )
         5           O   tau(   5) = (   0.0853658   0.3054320   1.4777612  )
         6           O   tau(   6) = (   0.2233600   0.7053066   1.1749425  )
         7           O   tau(   7) = (   0.4537847   0.4943174   0.2907079  )
         8           O   tau(   8) = (   0.3157905   0.0944427   0.5935267  )
         9           O   tau(   9) = (  -0.1315834   0.4038343   1.4907233  )
        10           O   tau(  10) = (   0.4403092   0.8037089   1.1619804  )
        11           O   tau(  11) = (   0.6707339   0.3959151   0.2777458  )
        12           O   tau(  12) = (   0.0988413  -0.0039596   0.6064888  )
        13           O   tau(  13) = (   0.0124147   0.2954548   0.1213063  )
        14           O   tau(  14) = (   0.7571605   0.6953295   0.7629282  )
        15           O   tau(  15) = (   0.5267358   0.5042945   1.6471628  )
        16           O   tau(  16) = (  -0.2180100   0.1044199   1.0055409  )
        17           O   tau(  17) = (   0.0975771   0.1994706   0.3221598  )
        18           O   tau(  18) = (   0.6719982   0.5993452   0.5620748  )
        19           O   tau(  19) = (   0.4415734   0.6002787   1.4463094  )
        20           O   tau(  20) = (  -0.1328476   0.2004041   1.2063943  )
        21           N   tau(  21) = (   0.6261470   0.0807890   0.1788358  )
        22           N   tau(  22) = (   0.1434283   0.4806637   0.7053987  )
        23           N   tau(  23) = (  -0.0869965   0.7189603   1.5896333  )
        24           N   tau(  24) = (   0.3957223   0.3190856   1.0630704  )
        25           N   tau(  25) = (   0.7233062   0.0894088   0.0702466  )
        26           N   tau(  26) = (   0.0462691   0.4892835   0.8139879  )
        27           N   tau(  27) = (  -0.1841556   0.7103405   1.6982225  )
        28           N   tau(  28) = (   0.4928814   0.3104659   0.9544812  )
        29           N   tau(  29) = (   0.2025864   0.1576266   1.7234861  )
        30           N   tau(  30) = (   0.1061394   0.5575013   0.9292175  )
        31           N   tau(  31) = (   0.3365642   0.6421227   0.0449830  )
        32           N   tau(  32) = (   0.4330111   0.2422480   0.8392516  )
        33           N   tau(  33) = (  -0.0320870   0.3281950   1.5407020  )
        34           N   tau(  34) = (   0.3408128   0.7280697   1.1120017  )
        35           N   tau(  35) = (   0.5712376   0.4715543   0.2277672  )
        36           N   tau(  36) = (   0.1983377   0.0716796   0.6564674  )
        37           N   tau(  37) = (   0.1116751   0.2404937   0.1946813  )
        38           N   tau(  38) = (   0.6579002   0.6403684   0.6895533  )
        39           N   tau(  39) = (   0.4274754   0.5592556   1.5737878  )
        40           N   tau(  40) = (  -0.1187496   0.1593810   1.0789159  )
        41           C   tau(  41) = (   0.4963823   0.1426746   0.1345786  )
        42           C   tau(  42) = (   0.2731930   0.5425492   0.7496560  )
        43           C   tau(  43) = (   0.0427682   0.6570748   1.6338905  )
        44           C   tau(  44) = (   0.2659576   0.2572001   1.0188132  )
        45           C   tau(  45) = (   0.0639134   0.1920361   1.7589104  )
        46           C   tau(  46) = (   0.2448124   0.5919107   0.8937933  )
        47           C   tau(  47) = (   0.4752371   0.6077133   0.0095587  )
        48           C   tau(  48) = (   0.2943381   0.2078386   0.8746758  )
        49           C   tau(  49) = (  -0.0517624   0.2640377   1.6850444  )
        50           C   tau(  50) = (   0.3604882   0.6639123   0.9676593  )
        51           C   tau(  51) = (   0.5909130   0.5357117   0.0834247  )
        52           C   tau(  52) = (   0.1786623   0.1358370   0.8008099  )
        53           C   tau(  53) = (  -0.1853453   0.2792473   1.7533209  )
        54           C   tau(  54) = (   0.4940711   0.6791220   0.8993828  )
        55           C   tau(  55) = (   0.7244959   0.5205020   0.0151483  )
        56           C   tau(  56) = (   0.0450794   0.1206274   0.8690863  )
        57           C   tau(  57) = (   0.2542987   0.2231320   0.1264165  )
        58           C   tau(  58) = (   0.5152765   0.6230066   0.7578181  )
        59           C   tau(  59) = (   0.2848518   0.5766173   1.6420526  )
        60           C   tau(  60) = (   0.0238740   0.1767427   1.0106511  )
        61           C   tau(  61) = (   0.3639010   0.1548970   0.2059715  )
        62           C   tau(  62) = (   0.4056743   0.5547717   0.6782630  )
        63           C   tau(  63) = (   0.1752495   0.6448523   1.5624976  )
        64           C   tau(  64) = (   0.1334763   0.2449777   1.0902061  )
        65           H   tau(  65) = (  -0.2736216   0.3363862   1.6984449  )
        66           H   tau(  66) = (   0.5823474   0.7362608   0.9542588  )
        67           H   tau(  67) = (   0.8127721   0.4633632   0.0700242  )
        68           H   tau(  68) = (  -0.0431968   0.0634885   0.8142104  )
        69           H   tau(  69) = (   0.3454285   0.1145673   0.3161513  )
        70           H   tau(  70) = (   0.4241467   0.5144420   0.5680833  )
        71           H   tau(  71) = (   0.1937220   0.6851820   1.4523179  )
        72           H   tau(  72) = (   0.1150038   0.2853073   1.2003858  )
        73           N   tau(  73) = (   0.1421730   0.5729067   0.2993191  )
        74           N   tau(  74) = (   0.6274023   0.1730320   0.5849155  )
        75           N   tau(  75) = (   0.3969776   0.2268427   1.4691501  )
        76           N   tau(  76) = (  -0.0882518   0.6267173   1.1835536  )
        77           N   tau(  77) = (   0.0044898   0.7162835   0.1435585  )
        78           N   tau(  78) = (   0.7650854   0.3164088   0.7406761  )
        79           N   tau(  79) = (   0.5346607   0.0834658   1.6249107  )
        80           N   tau(  80) = (  -0.2259349   0.4833405   1.0277930  )
        81           N   tau(  81) = (  -0.0899880   0.6476134   0.3666149  )
        82           N   tau(  82) = (   0.8595633   0.2477387   0.5176196  )
        83           N   tau(  83) = (   0.6291385   0.1521359   1.4018542  )
        84           N   tau(  84) = (  -0.3204127   0.5520106   1.2508495  )
        85           C   tau(  85) = (   0.0191035   0.6446374   0.2714485  )
        86           C   tau(  86) = (   0.7504718   0.2447627   0.6127861  )
        87           C   tau(  87) = (   0.5200470   0.1551120   1.4970207  )
        88           C   tau(  88) = (  -0.2113212   0.5549866   1.1556830  )
        89           H   tau(  89) = (   0.1549120   0.5229088   0.3984420  )
        90           H   tau(  90) = (   0.6146633   0.1230341   0.4857926  )
        91           H   tau(  91) = (   0.3842385   0.2768405   1.3700272  )
        92           H   tau(  92) = (  -0.0755127   0.6767152   1.2826765  )
        93           H   tau(  93) = (   0.2285048   0.5856834   0.2292789  )
        94           H   tau(  94) = (   0.5410705   0.1858087   0.6549557  )
        95           H   tau(  95) = (   0.3106457   0.2140659   1.5391902  )
        96           H   tau(  96) = (  -0.0019199   0.6139406   1.1135135  )
        97           H   tau(  97) = (   0.0664281   0.6816615   0.0586207  )
        98           H   tau(  98) = (   0.7031472   0.2817868   0.8256139  )
        99           H   tau(  99) = (   0.4727225   0.1180879   1.7098484  )
       100           H   tau( 100) = (  -0.1639967   0.5179625   0.9428553  )
       101           H   tau( 101) = (   0.9057809   0.7619219   0.1189006  )
       102           H   tau( 102) = (  -0.1362056   0.3620473   0.7653339  )
       103           H   tau( 103) = (  -0.3666304   0.0378274   1.6495685  )
       104           H   tau( 104) = (   0.6753562   0.4377021   1.0031352  )
       105           H   tau( 105) = (   0.8157486   0.7032800   0.3436018  )
       106           H   tau( 106) = (  -0.0461733   0.3034053   0.5406328  )
       107           H   tau( 107) = (  -0.2765981   0.0964693   1.4248674  )
       108           H   tau( 108) = (   0.5853239   0.4963440   1.2278363  )
       109           H   tau( 109) = (  -0.0779158   0.6039807   0.4673321  )
       110           H   tau( 110) = (   0.8474911   0.2041060   0.4169025  )
       111           H   tau( 111) = (   0.6170663   0.1957686   1.3011370  )
       112           H   tau( 112) = (  -0.3083405   0.5956433   1.3515667  )

     number of k points=     4
                       cart. coord. in units 2pi/alat
        k(    1) = (   0.0000000   0.0000000   0.0000000), wk =   0.3333333
        k(    2) = (   0.0000000   0.4167973   0.0000000), wk =   0.6666667
        k(    3) = (  -0.5000000   0.0000000  -0.1302962), wk =   0.3333333
        k(    4) = (  -0.5000000   0.4167973  -0.1302962), wk =   0.6666667

     Dense  grid:   995945 G-vectors     FFT dimensions: ( 120,  90, 216)

     Estimated max dynamical RAM per process >    1061.13MB

     Estimated total allocated dynamical RAM >    8489.05MB

     Check: negative/imaginary core charge=   -0.000002    0.000000

     Initial potential from superposition of free atoms

     starting charge  423.99827, renormalised to  424.00000
     Starting wfc are  352 randomized atomic wfcs
     Checking if some PAW data can be deallocated... 

     total cpu time spent up to now is       52.0 secs

     per-process dynamical memory:   601.3 Mb

     Self-consistent Calculation

     iteration #  1     ecut=   100.00 Ry     beta=0.50
     Davidson diagonalization with overlap
     ethr =  1.00E-02,  avg # of iterations =  3.0

     total cpu time spent up to now is      186.9 secs

     total energy              =   -2286.03426303 Ry
     Harris-Foulkes estimate   =   -2292.65109899 Ry
     estimated scf accuracy    <      12.01293942 Ry

     iteration #  2     ecut=   100.00 Ry     beta=0.50
     Davidson diagonalization with overlap
     ethr =  2.83E-03,  avg # of iterations =  3.0

     total cpu time spent up to now is      286.3 secs

     total energy              =   -2288.16057806 Ry
     Harris-Foulkes estimate   =   -2289.48165588 Ry
     estimated scf accuracy    <       2.81950634 Ry

     iteration #  3     ecut=   100.00 Ry     beta=0.50
     Davidson diagonalization with overlap
     ethr =  6.65E-04,  avg # of iterations =  8.2

     total cpu time spent up to now is      396.6 secs

     total energy              =   -2288.74216053 Ry
     Harris-Foulkes estimate   =   -2288.94201625 Ry
     estimated scf accuracy    <       0.49083723 Ry

     iteration #  4     ecut=   100.00 Ry     beta=0.50
     Davidson diagonalization with overlap
     ethr =  1.16E-04,  avg # of iterations =  8.2

     total cpu time spent up to now is      502.8 secs

     total energy              =   -2288.81977070 Ry
     Harris-Foulkes estimate   =   -2288.88546741 Ry
     estimated scf accuracy    <       0.16935239 Ry

     iteration #  5     ecut=   100.00 Ry     beta=0.50
     Davidson diagonalization with overlap
     ethr =  3.99E-05,  avg # of iterations =  8.2

     total cpu time spent up to now is      598.4 secs

     total energy              =   -2288.84942987 Ry
     Harris-Foulkes estimate   =   -2288.87031243 Ry
     estimated scf accuracy    <       0.06013632 Ry

     iteration #  6     ecut=   100.00 Ry     beta=0.50
     Davidson diagonalization with overlap
     ethr =  1.42E-05,  avg # of iterations =  3.2

     total cpu time spent up to now is      677.4 secs

     total energy              =   -2288.86033510 Ry
     Harris-Foulkes estimate   =   -2288.86246924 Ry
     estimated scf accuracy    <       0.00576665 Ry

     iteration #  7     ecut=   100.00 Ry     beta=0.50
     Davidson diagonalization with overlap
     ethr =  1.36E-06,  avg # of iterations =  9.2

     total cpu time spent up to now is      841.6 secs

     total energy              =   -2288.86283985 Ry
     Harris-Foulkes estimate   =   -2288.86380572 Ry
     estimated scf accuracy    <       0.00277466 Ry

     iteration #  8     ecut=   100.00 Ry     beta=0.50
     Davidson diagonalization with overlap
     ethr =  6.54E-07,  avg # of iterations =  2.0

     total cpu time spent up to now is      915.6 secs

     total energy              =   -2288.86323148 Ry
     Harris-Foulkes estimate   =   -2288.86331730 Ry
     estimated scf accuracy    <       0.00026193 Ry

     iteration #  9     ecut=   100.00 Ry     beta=0.50
     Davidson diagonalization with overlap
     ethr =  6.18E-08,  avg # of iterations =  4.0

     total cpu time spent up to now is     1033.4 secs

     total energy              =   -2288.86331690 Ry
     Harris-Foulkes estimate   =   -2288.86334504 Ry
     estimated scf accuracy    <       0.00008359 Ry

     iteration # 10     ecut=   100.00 Ry     beta=0.50
     Davidson diagonalization with overlap
     ethr =  1.97E-08,  avg # of iterations =  3.0

     total cpu time spent up to now is     1110.7 secs

     total energy              =   -2288.86332707 Ry
     Harris-Foulkes estimate   =   -2288.86333516 Ry
     estimated scf accuracy    <       0.00002224 Ry

     iteration # 11     ecut=   100.00 Ry     beta=0.50
     Davidson diagonalization with overlap
     ethr =  5.25E-09,  avg # of iterations =  4.0

     total cpu time spent up to now is     1206.8 secs

     total energy              =   -2288.86333321 Ry
     Harris-Foulkes estimate   =   -2288.86333561 Ry
     estimated scf accuracy    <       0.00000808 Ry

     iteration # 12     ecut=   100.00 Ry     beta=0.50
     Davidson diagonalization with overlap
     ethr =  1.91E-09,  avg # of iterations =  2.0

     total cpu time spent up to now is     1280.5 secs

     total energy              =   -2288.86333439 Ry
     Harris-Foulkes estimate   =   -2288.86333453 Ry
     estimated scf accuracy    <       0.00000067 Ry

     iteration # 13     ecut=   100.00 Ry     beta=0.50
     Davidson diagonalization with overlap
     ethr =  1.59E-10,  avg # of iterations =  4.0

     total cpu time spent up to now is     1411.5 secs

     total energy              =   -2288.86333471 Ry
     Harris-Foulkes estimate   =   -2288.86333475 Ry
     estimated scf accuracy    <       0.00000015 Ry

     iteration # 14     ecut=   100.00 Ry     beta=0.50
     Davidson diagonalization with overlap
     ethr =  3.50E-11,  avg # of iterations =  1.5

     total cpu time spent up to now is     1480.6 secs

     total energy              =   -2288.86333471 Ry
     Harris-Foulkes estimate   =   -2288.86333472 Ry
     estimated scf accuracy    <       0.00000002 Ry

     iteration # 15     ecut=   100.00 Ry     beta=0.50
     Davidson diagonalization with overlap
     ethr =  5.55E-12,  avg # of iterations =  4.0

     total cpu time spent up to now is     1611.6 secs

     total energy              =   -2288.86333473 Ry
     Harris-Foulkes estimate   =   -2288.86333473 Ry
     estimated scf accuracy    <       0.00000002 Ry

     iteration # 16     ecut=   100.00 Ry     beta=0.50
     Davidson diagonalization with overlap
     ethr =  3.83E-12,  avg # of iterations =  1.0

     total cpu time spent up to now is     1679.8 secs

     End of self-consistent calculation

          k = 0.0000 0.0000 0.0000 (124517 PWs)   bands (ev):

   -23.4491 -23.4468 -23.4441 -23.4439 -23.4138 -23.4118 -23.4074 -23.4073
   -21.5586 -21.5584 -21.5341 -21.5341 -19.0016 -19.0012 -18.9995 -18.9990
   -18.9645 -18.9638 -18.9432 -18.9425 -18.5672 -18.5660 -18.5487 -18.5437
   -17.7075 -17.6967 -17.6736 -17.6728 -15.2834 -15.2808 -15.2806 -15.2774
   -14.7473 -14.7335 -14.6279 -14.5994 -14.5742 -14.5633 -14.5619 -14.5488
   -13.9823 -13.9761 -13.9724 -13.9691 -13.2938 -13.2857 -13.2382 -13.2373
   -12.9330 -12.9318 -12.9052 -12.9012 -10.7864 -10.7550 -10.7316 -10.7231
   -10.5174 -10.4810 -10.4803 -10.4440  -9.2769  -9.2675  -9.2421  -9.2346
    -8.5528  -8.5304  -8.3555  -8.2533  -7.7126  -7.6820  -7.6664  -7.6655
    -7.3070  -7.2640  -7.1827  -7.1035  -6.9952  -6.9834  -6.8986  -6.8245
    -6.7973  -6.7613  -6.6190  -6.6154  -6.4541  -6.4477  -6.3191  -6.2985
    -6.2836  -6.2450  -6.1324  -6.0893  -6.0657  -6.0054  -5.9345  -5.9071
    -5.8757  -5.8627  -5.8165  -5.7854  -5.7813  -5.7389  -5.7333  -5.6891
    -5.6088  -5.5727  -5.5593  -5.5201  -5.4102  -5.3103  -5.2687  -5.2045
    -5.1187  -5.1074  -5.0930  -5.0250  -5.0031  -4.9247  -4.9089  -4.8219
    -4.6904  -4.5848  -4.5560  -4.4879  -4.4667  -4.4454  -4.3538  -4.3289
    -4.1899  -4.1707  -4.1615  -4.1490  -3.9395  -3.8881  -3.8711  -3.8272
    -3.4494  -3.4462  -3.4043  -3.3893  -2.9678  -2.9493  -2.9352  -2.8939
    -2.6077  -2.6010  -2.5663  -2.5395  -2.4807  -2.4556  -2.4020  -2.3881
    -2.0116  -1.9942  -1.3112  -1.2655  -1.1437  -1.0918  -1.0144  -0.9818
    -0.5192  -0.5122  -0.4315  -0.4303  -0.4255  -0.3862  -0.3641  -0.3288
    -0.3178  -0.2990  -0.2632  -0.2584  -0.2204  -0.1675  -0.0788  -0.0566
    -0.0340   0.0089   0.0249   0.0406   0.0954   0.1721   0.2187   0.2292
     0.2606   0.2767   0.5371   0.5558   0.5946   0.5956   0.6231   0.6256
     0.6332   0.6382   0.7485   0.7701   0.8476   0.8889   0.9120   0.9261
     0.9548   1.0271   1.0327   1.0376   1.0630   1.1370   1.1634   1.1719
     1.8416   1.8599   2.0713   2.0979   3.6285   3.6793   3.7105   3.7288
     3.9614   3.9761   3.9787   4.0049   5.4271   5.4580   5.4693   5.5053
     6.5269   6.5269   6.5437   6.5455   6.7297   6.8144   7.0184   7.0349
     7.0907   7.1972   7.3010   7.4163   7.6834   8.0380   8.4851   8.5959
     8.6451   8.7423   8.8734   8.9341   9.1089   9.1111   9.1185   9.3331
     9.3744   9.5328   9.5345   9.5552   9.6970   9.7981

          k = 0.0000 0.4168 0.0000 (124550 PWs)   bands (ev):

   -23.4483 -23.4471 -23.4440 -23.4439 -23.4132 -23.4121 -23.4075 -23.4074
   -21.5597 -21.5596 -21.5338 -21.5338 -19.0008 -19.0004 -18.9998 -18.9993
   -18.9649 -18.9646 -18.9428 -18.9424 -18.5643 -18.5630 -18.5507 -18.5476
   -17.7058 -17.7005 -17.6729 -17.6724 -15.3097 -15.3097 -15.2518 -15.2514
   -14.7435 -14.7364 -14.6214 -14.6072 -14.5699 -14.5636 -14.5605 -14.5529
   -14.0157 -14.0130 -13.9365 -13.9345 -13.2811 -13.2757 -13.2500 -13.2483
   -12.9521 -12.9512 -12.8815 -12.8799 -10.7754 -10.7551 -10.7391 -10.7302
   -10.5149 -10.5028 -10.4594 -10.4473  -9.2793  -9.2744  -9.2371  -9.2336
    -8.5556  -8.5439  -8.3259  -8.2757  -7.7332  -7.7254  -7.6309  -7.6234
    -7.2990  -7.2762  -7.1674  -7.1292  -6.9651  -6.9537  -6.9096  -6.8891
    -6.7706  -6.7626  -6.6560  -6.6499  -6.4105  -6.4089  -6.3207  -6.3053
    -6.1580  -6.1340  -6.1023  -6.0802  -6.0658  -6.0343  -5.8808  -5.8508
    -5.8358  -5.8291  -5.8083  -5.7893  -5.7819  -5.7535  -5.7172  -5.7026
    -5.5959  -5.5837  -5.5503  -5.5285  -5.4218  -5.3980  -5.3542  -5.2508
    -5.2235  -5.1969  -5.1358  -5.0993  -4.9012  -4.8970  -4.8569  -4.8424
    -4.6974  -4.6494  -4.5499  -4.5060  -4.4750  -4.4371  -4.3498  -4.2845
    -4.2467  -4.1936  -4.1630  -4.1338  -3.9170  -3.8906  -3.8621  -3.8388
    -3.4801  -3.4786  -3.3745  -3.3705  -3.0145  -2.9971  -2.9780  -2.9539
    -2.6378  -2.6250  -2.5878  -2.5849  -2.5070  -2.4979  -2.2703  -2.2685
    -1.9774  -1.9660  -1.4965  -1.4745  -1.1393  -1.1187  -0.9965  -0.9802
    -0.4446  -0.4428  -0.4248  -0.3967  -0.3936  -0.3890  -0.3469  -0.3057
    -0.2984  -0.2902  -0.2570  -0.2543  -0.0912  -0.0724  -0.0618  -0.0311
    -0.0054   0.0194   0.0838   0.0905   0.1095   0.1490   0.1523   0.1722
     0.3296   0.3315   0.5074   0.5291   0.5776   0.5824   0.6194   0.6206
     0.6364   0.6420   0.7464   0.7595   0.8838   0.9128   0.9246   0.9514
     0.9535   0.9960   1.0611   1.0651   1.0760   1.1146   1.1303   1.1454
     1.9136   1.9150   2.0304   2.0504   3.5978   3.6154   3.7576   3.7577
     3.9090   3.9101   4.0112   4.0160   5.3463   5.3464   5.5907   5.5933
     6.4414   6.4525   6.5790   6.5835   6.6589   6.6812   7.0137   7.0736
     7.1766   7.1868   7.3054   7.3553   8.0402   8.1878   8.3702   8.7482
     8.7865   8.8264   8.9552   9.0412   9.0963   9.1800   9.2348   9.2455
     9.4235   9.5557   9.5971   9.6086   9.7216   9.8156

          k =-0.5000 0.0000-0.1303 (124466 PWs)   bands (ev):

   -23.4482 -23.4469 -23.4446 -23.4438 -23.4136 -23.4128 -23.4078 -23.4066
   -21.5585 -21.5583 -21.5345 -21.5342 -19.0020 -19.0018 -18.9995 -18.9985
   -18.9643 -18.9641 -18.9431 -18.9424 -18.5700 -18.5657 -18.5453 -18.5445
   -17.7067 -17.6972 -17.6732 -17.6732 -15.2825 -15.2811 -15.2766 -15.2740
   -14.7373 -14.7311 -14.6255 -14.5993 -14.5758 -14.5642 -14.5622 -14.5526
   -13.9981 -13.9914 -13.9616 -13.9524 -13.3042 -13.3010 -13.2481 -13.2421
   -12.9409 -12.9336 -12.9042 -12.9005 -10.7412 -10.7271 -10.7243 -10.7229
   -10.5094 -10.4786 -10.4738 -10.4456  -9.2804  -9.2754  -9.2393  -9.2291
    -8.5975  -8.5191  -8.3426  -8.3007  -7.7557  -7.6954  -7.6792  -7.6521
    -7.2850  -7.2201  -7.2078  -7.1820  -6.9855  -6.9451  -6.8707  -6.8649
    -6.7993  -6.7461  -6.6751  -6.5624  -6.4011  -6.3572  -6.3267  -6.3169
    -6.2743  -6.2353  -6.1595  -6.1408  -6.0714  -6.0572  -5.9032  -5.8820
    -5.8694  -5.8551  -5.8390  -5.8282  -5.8009  -5.7731  -5.7288  -5.6856
    -5.5893  -5.5693  -5.5542  -5.5392  -5.3158  -5.3003  -5.2907  -5.2435
    -5.1141  -5.1023  -5.0691  -5.0516  -4.9266  -4.9070  -4.8437  -4.8129
    -4.6802  -4.5909  -4.5530  -4.5477  -4.4807  -4.4408  -4.3496  -4.2917
    -4.2503  -4.2260  -4.1776  -4.1459  -3.8974  -3.8496  -3.8454  -3.8427
    -3.4894  -3.4525  -3.4498  -3.3952  -3.0020  -2.9509  -2.9142  -2.8813
    -2.6164  -2.6113  -2.5257  -2.5167  -2.4838  -2.4718  -2.4081  -2.4035
    -2.0289  -2.0165  -1.2945  -1.2908  -1.1329  -1.1298  -0.9742  -0.9711
    -0.4774  -0.4690  -0.4567  -0.4253  -0.4217  -0.3928  -0.3626  -0.3577
    -0.3165  -0.2972  -0.2698  -0.2568  -0.2290  -0.1511  -0.0966  -0.0641
    -0.0362  -0.0198   0.0486   0.0505   0.1193   0.1398   0.2121   0.2258
     0.2874   0.3061   0.5309   0.5387   0.5724   0.5847   0.6367   0.6375
     0.6748   0.6955   0.7247   0.7252   0.8620   0.9042   0.9254   0.9323
     0.9903   1.0374   1.0494   1.0749   1.0901   1.0983   1.1789   1.1801
     1.8407   1.8695   2.0519   2.0740   3.5674   3.6413   3.6671   3.6750
     3.8947   3.9095   3.9420   3.9858   5.4857   5.4966   5.5247   5.5294
     6.5577   6.5734   6.5744   6.6141   6.7677   6.8239   6.9435   7.0214
     7.0626   7.2074   7.2870   7.4110   8.0633   8.1610   8.2676   8.3387
     8.5796   8.6664   8.6772   8.7580   9.1964   9.2422   9.2802   9.3508
     9.4563   9.5239   9.5337   9.6795   9.7739   9.7885

          k =-0.5000 0.4168-0.1303 (124536 PWs)   bands (ev):

   -23.4477 -23.4470 -23.4442 -23.4438 -23.4133 -23.4129 -23.4076 -23.4070
   -21.5595 -21.5595 -21.5341 -21.5339 -19.0014 -19.0011 -18.9997 -18.9990
   -18.9647 -18.9646 -18.9427 -18.9424 -18.5661 -18.5634 -18.5485 -18.5475
   -17.7052 -17.7006 -17.6727 -17.6726 -15.3119 -15.3109 -15.2469 -15.2459
   -14.7351 -14.7317 -14.6186 -14.6055 -14.5711 -14.5645 -14.5617 -14.5557
   -14.0270 -14.0266 -13.9248 -13.9229 -13.2903 -13.2896 -13.2625 -13.2586
   -12.9551 -12.9529 -12.8834 -12.8830 -10.7565 -10.7518 -10.7024 -10.6994
   -10.5092 -10.4987 -10.4563 -10.4471  -9.2732  -9.2691  -9.2448  -9.2381
    -8.5856  -8.5468  -8.3340  -8.3127  -7.7599  -7.7378  -7.6457  -7.6398
    -7.2663  -7.2350  -7.1995  -7.1889  -6.9680  -6.9353  -6.9256  -6.8902
    -6.7677  -6.7511  -6.6463  -6.5884  -6.3918  -6.3676  -6.3063  -6.2935
    -6.1572  -6.1373  -6.1367  -6.1067  -6.0801  -6.0356  -5.8698  -5.8665
    -5.8454  -5.8408  -5.8303  -5.7813  -5.7642  -5.7584  -5.7474  -5.6992
    -5.5949  -5.5844  -5.5474  -5.5445  -5.4348  -5.4008  -5.2760  -5.2605
    -5.2303  -5.1906  -5.0536  -5.0076  -4.9099  -4.9029  -4.8904  -4.8535
    -4.6885  -4.6508  -4.5830  -4.5712  -4.4083  -4.4033  -4.3169  -4.3026
    -4.3016  -4.2714  -4.1681  -4.1476  -3.8841  -3.8573  -3.8412  -3.8410
    -3.4817  -3.4598  -3.4369  -3.4061  -3.0347  -3.0100  -2.9479  -2.9313
    -2.6762  -2.6621  -2.5443  -2.5259  -2.5141  -2.5100  -2.2780  -2.2686
    -2.0004  -1.9931  -1.5019  -1.4889  -1.1242  -1.1138  -0.9728  -0.9704
    -0.4529  -0.4511  -0.4137  -0.3853  -0.3794  -0.3681  -0.3287  -0.3063
    -0.2911  -0.2724  -0.2645  -0.2573  -0.0923  -0.0891  -0.0783  -0.0432
    -0.0095  -0.0064   0.0581   0.0621   0.1098   0.1346   0.1601   0.1797
     0.3499   0.3681   0.5404   0.5517   0.5836   0.5938   0.6161   0.6197
     0.6416   0.6453   0.7251   0.7285   0.8889   0.9102   0.9426   0.9501
     1.0201   1.0499   1.0532   1.0705   1.1005   1.1157   1.1382   1.1530
     1.9026   1.9150   2.0229   2.0351   3.5223   3.5517   3.7191   3.7300
     3.8783   3.8825   3.9330   3.9535   5.3805   5.3853   5.6471   5.6483
     6.5414   6.5501   6.5869   6.6027   6.6733   6.6878   6.9804   7.0781
     7.1239   7.1261   7.2956   7.3453   8.1970   8.4176   8.4361   8.4888
     8.5097   8.7198   8.8849   9.0568   9.1076   9.1975   9.3011   9.3421
     9.3879   9.5577   9.7077   9.7216   9.7381   9.7888

     highest occupied, lowest unoccupied level (ev):     2.0979    3.5223

!    total energy              =   -2288.86333473 Ry
     Harris-Foulkes estimate   =   -2288.86333473 Ry
     estimated scf accuracy    <          4.9E-09 Ry

     total all-electron energy =     -8684.757520 Ry

     The total energy is the sum of the following terms:

     one-electron contribution =   -1109.95264691 Ry
     hartree contribution      =     731.44293399 Ry
     xc contribution           =    -459.63584529 Ry
     ewald contribution        =    -808.53610534 Ry
     Dispersion Correction     =      -0.56966087 Ry
     one-center paw contrib.   =    -641.61201031 Ry

     convergence has been achieved in  16 iterations

     Forces acting on atoms (cartesian axes, Ry/au):

     atom    1 type  4   force =     0.00033425    0.00024467   -0.00050076
     atom    2 type  4   force =    -0.00033425    0.00024467    0.00050076
     atom    3 type  4   force =    -0.00033425   -0.00024467    0.00050076
     atom    4 type  4   force =     0.00033425   -0.00024467   -0.00050076
     atom    5 type  4   force =    -0.00089009    0.00051600    0.00096409
     atom    6 type  4   force =     0.00089009    0.00051600   -0.00096409
     atom    7 type  4   force =     0.00089009   -0.00051600   -0.00096409
     atom    8 type  4   force =    -0.00089009   -0.00051600    0.00096409
     atom    9 type  4   force =     0.00052529   -0.00019923   -0.00111567
     atom   10 type  4   force =    -0.00052529   -0.00019923    0.00111567
     atom   11 type  4   force =    -0.00052529    0.00019923    0.00111567
     atom   12 type  4   force =     0.00052529    0.00019923   -0.00111567
     atom   13 type  4   force =     0.00184535   -0.00368205    0.00080289
     atom   14 type  4   force =    -0.00184535   -0.00368205   -0.00080289
     atom   15 type  4   force =    -0.00184535    0.00368205   -0.00080289
     atom   16 type  4   force =     0.00184535    0.00368205    0.00080289
     atom   17 type  4   force =     0.00107037    0.00032769   -0.00084508
     atom   18 type  4   force =    -0.00107037    0.00032769    0.00084508
     atom   19 type  4   force =    -0.00107037   -0.00032769    0.00084508
     atom   20 type  4   force =     0.00107037   -0.00032769   -0.00084508
     atom   21 type  2   force =     0.00211725   -0.00073192   -0.00048723
     atom   22 type  2   force =    -0.00211725   -0.00073192    0.00048723
     atom   23 type  2   force =    -0.00211725    0.00073192    0.00048723
     atom   24 type  2   force =     0.00211725    0.00073192   -0.00048723
     atom   25 type  2   force =    -0.00091519    0.00205496    0.00071421
     atom   26 type  2   force =     0.00091519    0.00205496   -0.00071421
     atom   27 type  2   force =     0.00091519   -0.00205496   -0.00071421
     atom   28 type  2   force =    -0.00091519   -0.00205496    0.00071421
     atom   29 type  2   force =     0.00076840   -0.00032540    0.00059201
     atom   30 type  2   force =    -0.00076840   -0.00032540   -0.00059201
     atom   31 type  2   force =    -0.00076840    0.00032540   -0.00059201
     atom   32 type  2   force =     0.00076840    0.00032540    0.00059201
     atom   33 type  2   force =    -0.00080353   -0.00020248   -0.00083435
     atom   34 type  2   force =     0.00080353   -0.00020248    0.00083435
     atom   35 type  2   force =     0.00080353    0.00020248    0.00083435
     atom   36 type  2   force =    -0.00080353    0.00020248   -0.00083435
     atom   37 type  2   force =    -0.00393461    0.00219045    0.00091242
     atom   38 type  2   force =     0.00393461    0.00219045   -0.00091242
     atom   39 type  2   force =     0.00393461   -0.00219045   -0.00091242
     atom   40 type  2   force =    -0.00393461   -0.00219045    0.00091242
     atom   41 type  1   force =    -0.00158912   -0.00100666   -0.00087934
     atom   42 type  1   force =     0.00158912   -0.00100666    0.00087934
     atom   43 type  1   force =     0.00158912    0.00100666    0.00087934
     atom   44 type  1   force =    -0.00158912    0.00100666   -0.00087934
     atom   45 type  1   force =    -0.00148100   -0.00232829    0.00016230
     atom   46 type  1   force =     0.00148100   -0.00232829   -0.00016230
     atom   47 type  1   force =     0.00148100    0.00232829   -0.00016230
     atom   48 type  1   force =    -0.00148100    0.00232829    0.00016230
     atom   49 type  1   force =     0.00068709   -0.00005395    0.00057326
     atom   50 type  1   force =    -0.00068709   -0.00005395   -0.00057326
     atom   51 type  1   force =    -0.00068709    0.00005395   -0.00057326
     atom   52 type  1   force =     0.00068709    0.00005395    0.00057326
     atom   53 type  1   force =     0.00000081   -0.00050538    0.00070347
     atom   54 type  1   force =    -0.00000081   -0.00050538   -0.00070347
     atom   55 type  1   force =    -0.00000081    0.00050538   -0.00070347
     atom   56 type  1   force =     0.00000081    0.00050538    0.00070347
     atom   57 type  1   force =     0.00296362    0.00213509   -0.00114987
     atom   58 type  1   force =    -0.00296362    0.00213509    0.00114987
     atom   59 type  1   force =    -0.00296362   -0.00213509    0.00114987
     atom   60 type  1   force =     0.00296362   -0.00213509   -0.00114987
     atom   61 type  1   force =     0.00103618    0.00003367    0.00070358
     atom   62 type  1   force =    -0.00103618    0.00003367   -0.00070358
     atom   63 type  1   force =    -0.00103618   -0.00003367   -0.00070358
     atom   64 type  1   force =     0.00103618   -0.00003367    0.00070358
     atom   65 type  3   force =     0.00065157   -0.00023195    0.00008915
     atom   66 type  3   force =    -0.00065157   -0.00023195   -0.00008915
     atom   67 type  3   force =    -0.00065157    0.00023195   -0.00008915
     atom   68 type  3   force =     0.00065157    0.00023195    0.00008915
     atom   69 type  3   force =    -0.00021195   -0.00019287    0.00048727
     atom   70 type  3   force =     0.00021195   -0.00019287   -0.00048727
     atom   71 type  3   force =     0.00021195    0.00019287   -0.00048727
     atom   72 type  3   force =    -0.00021195    0.00019287    0.00048727
     atom   73 type  2   force =     0.00037377    0.00061479    0.00080189
     atom   74 type  2   force =    -0.00037377    0.00061479   -0.00080189
     atom   75 type  2   force =    -0.00037377   -0.00061479   -0.00080189
     atom   76 type  2   force =     0.00037377   -0.00061479    0.00080189
     atom   77 type  2   force =    -0.00072579   -0.00114731   -0.00057989
     atom   78 type  2   force =     0.00072579   -0.00114731    0.00057989
     atom   79 type  2   force =     0.00072579    0.00114731    0.00057989
     atom   80 type  2   force =    -0.00072579    0.00114731   -0.00057989
     atom   81 type  2   force =     0.00096988    0.00032290    0.00008304
     atom   82 type  2   force =    -0.00096988    0.00032290   -0.00008304
     atom   83 type  2   force =    -0.00096988   -0.00032290   -0.00008304
     atom   84 type  2   force =     0.00096988   -0.00032290    0.00008304
     atom   85 type  1   force =     0.00011789    0.00006003    0.00052287
     atom   86 type  1   force =    -0.00011789    0.00006003   -0.00052287
     atom   87 type  1   force =    -0.00011789   -0.00006003   -0.00052287
     atom   88 type  1   force =     0.00011789   -0.00006003    0.00052287
     atom   89 type  3   force =    -0.00045634    0.00030566   -0.00008340
     atom   90 type  3   force =     0.00045634    0.00030566    0.00008340
     atom   91 type  3   force =     0.00045634   -0.00030566    0.00008340
     atom   92 type  3   force =    -0.00045634   -0.00030566   -0.00008340
     atom   93 type  3   force =     0.00018065   -0.00017307   -0.00078025
     atom   94 type  3   force =    -0.00018065   -0.00017307    0.00078025
     atom   95 type  3   force =    -0.00018065    0.00017307    0.00078025
     atom   96 type  3   force =     0.00018065    0.00017307   -0.00078025
     atom   97 type  3   force =     0.00062093   -0.00000112    0.00039858
     atom   98 type  3   force =    -0.00062093   -0.00000112   -0.00039858
     atom   99 type  3   force =    -0.00062093    0.00000112   -0.00039858
     atom  100 type  3   force =     0.00062093    0.00000112    0.00039858
     atom  101 type  3   force =    -0.00034489    0.00008335    0.00063233
     atom  102 type  3   force =     0.00034489    0.00008335   -0.00063233
     atom  103 type  3   force =     0.00034489   -0.00008335   -0.00063233
     atom  104 type  3   force =    -0.00034489   -0.00008335    0.00063233
     atom  105 type  3   force =    -0.00084640   -0.00004176   -0.00007648
     atom  106 type  3   force =     0.00084640   -0.00004176    0.00007648
     atom  107 type  3   force =     0.00084640    0.00004176    0.00007648
     atom  108 type  3   force =    -0.00084640    0.00004176   -0.00007648
     atom  109 type  3   force =     0.00028387    0.00106616    0.00040627
     atom  110 type  3   force =    -0.00028387    0.00106616   -0.00040627
     atom  111 type  3   force =    -0.00028387   -0.00106616   -0.00040627
     atom  112 type  3   force =     0.00028387   -0.00106616    0.00040627

     Total force =     0.019728     Total SCF correction =     0.000119


     Computing stress (Cartesian axis) and pressure

          total   stress  (Ry/bohr**3)                   (kbar)     P=   -1.90
  -0.00000367   0.00000000  -0.00000490         -0.54      0.00     -0.72
   0.00000000  -0.00001041   0.00000000          0.00     -1.53      0.00
  -0.00000490   0.00000000  -0.00002465         -0.72      0.00     -3.63


     Writing output data file scf.save
 
     init_run     :     49.94s CPU     51.35s WALL (       1 calls)
     electrons    :   1570.03s CPU   1627.92s WALL (       1 calls)
     forces       :     27.10s CPU     27.35s WALL (       1 calls)
     stress       :    117.11s CPU    117.43s WALL (       1 calls)

     Called by init_run:
     wfcinit      :     37.33s CPU     38.55s WALL (       1 calls)
     potinit      :      4.48s CPU      4.52s WALL (       1 calls)

     Called by electrons:
     c_bands      :   1413.21s CPU   1460.92s WALL (      16 calls)
     sum_band     :    140.01s CPU    148.36s WALL (      16 calls)
     v_of_rho     :      2.60s CPU      2.86s WALL (      17 calls)
     newd         :      6.41s CPU      7.93s WALL (      17 calls)
     PAW_pot      :      7.28s CPU      7.28s WALL (      17 calls)
     mix_rho      :      0.61s CPU      0.70s WALL (      16 calls)

     Called by c_bands:
     init_us_2    :      5.49s CPU      5.53s WALL (     140 calls)
     cegterg      :   1387.19s CPU   1434.81s WALL (      64 calls)

     Called by sum_band:
     sum_band:bec :      0.09s CPU      0.09s WALL (      64 calls)
     addusdens    :      6.64s CPU      8.05s WALL (      16 calls)

     Called by *egterg:
     h_psi        :    698.56s CPU    736.56s WALL (     343 calls)
     s_psi        :    172.20s CPU    172.20s WALL (     343 calls)
     g_psi        :      2.76s CPU      2.76s WALL (     275 calls)
     cdiaghg      :    101.05s CPU    101.06s WALL (     339 calls)

     Called by h_psi:
     h_psi:pot    :    694.34s CPU    732.26s WALL (     343 calls)
     h_psi:calbec :    173.16s CPU    173.45s WALL (     343 calls)
     vloc_psi     :    348.80s CPU    386.42s WALL (     343 calls)
     add_vuspsi   :    172.38s CPU    172.39s WALL (     343 calls)

     General routines
     calbec       :    261.23s CPU    261.67s WALL (     427 calls)
     fft          :      2.42s CPU      2.86s WALL (     245 calls)
     fftw         :    377.55s CPU    421.72s WALL (  106226 calls)
 
     Parallel routines
     fft_scatter  :     84.71s CPU    128.29s WALL (  106471 calls)
 
     PWSCF        : 29m32.99s CPU    31m 2.14s WALL

 
   This run was terminated on:   7:52:21  22Dec2017            

=------------------------------------------------------------------------------=
   JOB DONE.
=------------------------------------------------------------------------------=
