
     Program PWSCF v.6.1 (svn rev. 13369) starts on 15Jan2018 at 11: 8:15 

     This program is part of the open-source Quantum ESPRESSO suite
     for quantum simulation of materials; please cite
         "P. Giannozzi et al., J. Phys.:Condens. Matter 21 395502 (2009);
          URL http://www.quantum-espresso.org", 
     in publications or presentations arising from this work. More details at
     http://www.quantum-espresso.org/quote

     Parallel version (MPI), running on     8 processors
     R & G space division:  proc/nbgrp/npool/nimage =       8
     Waiting for input...
     Reading input from standard input

     Current dimensions of program PWSCF are:
     Max number of different atomic species (ntypx) = 10
     Max number of k-points (npk) =  40000
     Max angular momentum in pseudopotentials (lmaxx) =  3
               file C.pbe-n-kjpaw_psl.0.1.UPF: wavefunction(s)  2P renormalized
               file N.pbe-n-kjpaw_psl.0.1.UPF: wavefunction(s)  2P renormalized
               file H.pbe-kjpaw_psl.0.1.UPF: wavefunction(s)  1S renormalized
               file O.pbe-n-kjpaw_psl.0.1.UPF: wavefunction(s)  2P renormalized

     -------------------------------------
     Parameters for Dispersion Correction:
     -------------------------------------
       atom      VdW radius       C_6     

        C          2.744         60.710
        N          2.640         42.670
        H          1.892          4.857
        O          2.536         24.284

     Subspace diagonalization in iterative solution of the eigenvalue problem:
     a serial algorithm will be used

 
     Parallelization info
     --------------------
     sticks:   dense  smooth     PW     G-vecs:    dense   smooth      PW
     Min         577     577    157                69680    69680    9911
     Max         578     578    158                69685    69685    9915
     Sum        4617    4617   1261               557453   557453   79297
 


     bravais-lattice index     =            0
     lattice parameter (alat)  =       8.5399  a.u.
     unit-cell volume          =    4126.3479 (a.u.)^3
     number of atoms/cell      =           60
     number of atomic types    =            4
     number of electrons       =       240.00
     number of Kohn-Sham states=          144
     kinetic-energy cutoff     =     100.0000  Ry
     charge density cutoff     =     400.0000  Ry
     convergence threshold     =      1.0E-08
     mixing beta               =       0.5000
     number of iterations used =            8  plain     mixing
     Exchange-correlation      =  SLA  PW   PBX  PBC ( 1  4  3  4 0 0)

     celldm(1)=   8.539861  celldm(2)=   0.000000  celldm(3)=   0.000000
     celldm(4)=   0.000000  celldm(5)=   0.000000  celldm(6)=   0.000000

     crystal axes: (cart. coord. in units of alat)
               a(1) = (   1.000000   0.000000   0.000000 )  
               a(2) = (   0.000000   1.986103   0.000000 )  
               a(3) = (  -0.392113   0.000000   3.335888 )  

     reciprocal axes: (cart. coord. in units 2 pi/alat)
               b(1) = (  1.000000  0.000000  0.117544 )  
               b(2) = (  0.000000  0.503498  0.000000 )  
               b(3) = (  0.000000  0.000000  0.299770 )  


     PseudoPot. # 1 for  C read from file:
     /scratch/ahofstet/pseudo/C.pbe-n-kjpaw_psl.0.1.UPF
     MD5 check sum: 430fe95172b1e11ef3f8ed03bac87931
     Pseudo is Projector augmented-wave + core cor, Zval =  4.0
     Generated using "atomic" code by A. Dal Corso  v.5.0.99 svn rev. 10869
     Shape of augmentation charge: BESSEL
     Using radial grid of 1073 points,  4 beta functions with: 
                l(1) =   0
                l(2) =   0
                l(3) =   1
                l(4) =   1
     Q(r) pseudized with 0 coefficients 


     PseudoPot. # 2 for  N read from file:
     /scratch/ahofstet/pseudo/N.pbe-n-kjpaw_psl.0.1.UPF
     MD5 check sum: f73187c8b701007e77325f868c9291d7
     Pseudo is Projector augmented-wave + core cor, Zval =  5.0
     Generated using "atomic" code by A. Dal Corso  v.5.0.99 svn rev. 10869
     Shape of augmentation charge: PSQ
     Using radial grid of 1085 points,  4 beta functions with: 
                l(1) =   0
                l(2) =   0
                l(3) =   1
                l(4) =   1
     Q(r) pseudized with 0 coefficients 


     PseudoPot. # 3 for  H read from file:
     /scratch/ahofstet/pseudo/H.pbe-kjpaw_psl.0.1.UPF
     MD5 check sum: 94e484f906d9e9773b2f6e52662335b2
     Pseudo is Projector augmented-wave, Zval =  1.0
     Generated using "atomic" code by A. Dal Corso  v.5.0.99 svn rev. 10869
     Shape of augmentation charge: PSQ
     Using radial grid of  929 points,  2 beta functions with: 
                l(1) =   0
                l(2) =   0
     Q(r) pseudized with 0 coefficients 


     PseudoPot. # 4 for  O read from file:
     /scratch/ahofstet/pseudo/O.pbe-n-kjpaw_psl.0.1.UPF
     MD5 check sum: 3f94a2996a3169367d6eb21d9b593f20
     Pseudo is Projector augmented-wave + core cor, Zval =  6.0
     Generated using "atomic" code by A. Dal Corso  v.5.0.99 svn rev. 10869
     Shape of augmentation charge: BESSEL
     Using radial grid of 1095 points,  4 beta functions with: 
                l(1) =   0
                l(2) =   0
                l(3) =   1
                l(4) =   1
     Q(r) pseudized with 0 coefficients 


     atomic species   valence    mass     pseudopotential
        C              4.00    12.01070      C( 1.00)
        N              5.00    14.00670      N( 1.00)
        H              1.00     1.00794      H( 1.00)
        O              6.00    15.99940      O( 1.00)

      2 Sym. Ops., with inversion, found



   Cartesian axes

     site n.     atom                  positions (alat units)
         1           N   tau(   1) = (   0.3102804   1.6089805   3.0515348  )
         2           N   tau(   2) = (   0.6015626   0.6159395   1.9522981  )
         3           N   tau(   3) = (   0.2976066   0.3771229   0.2843537  )
         4           N   tau(   4) = (   0.0063245   1.3701639   1.3835903  )
         5           N   tau(   5) = (   0.3134883   1.9098798   3.0525685  )
         6           N   tau(   6) = (   0.5983483   0.9168302   1.9512975  )
         7           N   tau(   7) = (   0.2943987   0.0762236   0.2833200  )
         8           N   tau(   8) = (   0.0095388   1.0692733   1.3845910  )
         9           N   tau(   9) = (   0.5305411   0.0039001   2.8886006  )
        10           N   tau(  10) = (   0.3813685   0.9969348   2.1152140  )
        11           N   tau(  11) = (   0.0773459   1.9822033   0.4472879  )
        12           N   tau(  12) = (   0.2265186   0.9891687   1.2206745  )
        13           N   tau(  13) = (   0.6691700   1.7441396   2.7801279  )
        14           N   tau(  14) = (   0.2426870   0.7510949   2.2237074  )
        15           N   tau(  15) = (  -0.0612830   0.2419638   0.5557606  )
        16           N   tau(  16) = (   0.3652001   1.2350085   1.1121811  )
        17           H   tau(  17) = (  -0.1566935   1.7657294   2.6241580  )
        18           H   tau(  18) = (   0.0685589   0.7726839   2.3796756  )
        19           H   tau(  19) = (   0.7645806   0.2203741   0.7117305  )
        20           H   tau(  20) = (   0.5393281   1.2134195   0.9562129  )
        21           C   tau(  21) = (   0.5295228   1.4963829   2.8770976  )
        22           C   tau(  22) = (   0.3823326   0.5033489   2.1267199  )
        23           C   tau(  23) = (   0.0783642   0.4897205   0.4587909  )
        24           C   tau(  24) = (   0.2255545   1.4827545   1.2091686  )
        25           O   tau(  25) = (   0.1045575   1.4534723   3.2014624  )
        26           O   tau(  26) = (  -0.1927059   0.4604087   1.8023551  )
        27           O   tau(  27) = (   0.5033296   0.5326311   0.1344260  )
        28           O   tau(  28) = (   0.8005930   1.5256947   1.5335333  )
        29           C   tau(  29) = (   0.6213598   1.3606148   0.1522547  )
        30           C   tau(  30) = (   0.6825887   0.3675625   1.5156817  )
        31           C   tau(  31) = (  -0.0134728   0.6254886   3.1836337  )
        32           C   tau(  32) = (  -0.0747016   1.6185410   1.8202068  )
        33           H   tau(  33) = (   0.4459160   1.2342831   0.2591709  )
        34           H   tau(  34) = (  -0.1419711   0.2412191   1.4087652  )
        35           H   tau(  35) = (   0.1619711   0.7518203   3.0767176  )
        36           H   tau(  36) = (   0.7498582   1.7448843   1.9271233  )
        37           H   tau(  37) = (   0.6780249   1.5567342   0.2831845  )
        38           H   tau(  38) = (   0.6259391   0.5636829   1.3847480  )
        39           H   tau(  39) = (  -0.0701379   0.4293692   3.0527040  )
        40           H   tau(  40) = (  -0.0180521   1.4224205   1.9511404  )
        41           H   tau(  41) = (   0.8162024   1.2243584   0.1081915  )
        42           H   tau(  42) = (   0.4877433   0.2313162   1.5597512  )
        43           H   tau(  43) = (  -0.2083153   0.7617450   3.2276969  )
        44           H   tau(  44) = (   0.1201438   1.7547872   1.7761372  )
        45           N   tau(  45) = (   0.5467361   1.2021981   2.8333284  )
        46           N   tau(  46) = (   0.3650986   0.2091249   2.1705049  )
        47           N   tau(  47) = (   0.0611510   0.7839054   0.5025601  )
        48           N   tau(  48) = (   0.2427885   1.7769785   1.1653836  )
        49           N   tau(  49) = (  -0.2316591   1.1144781   2.6563040  )
        50           N   tau(  50) = (   0.1435324   0.1214427   2.3475064  )
        51           N   tau(  51) = (   0.8395461   0.8716253   0.6795845  )
        52           N   tau(  52) = (   0.4643547   1.8646607   0.9883821  )
        53           O   tau(  53) = (  -0.0467389   1.2861195   2.5447860  )
        54           O   tau(  54) = (  -0.0414109   0.2930680   2.4590516  )
        55           O   tau(  55) = (   0.6546260   0.6999839   0.7911024  )
        56           O   tau(  56) = (   0.6492980   1.6930354   0.8768369  )
        57           O   tau(  57) = (  -0.2215272   0.8391475   2.6069987  )
        58           O   tau(  58) = (   0.1333813   1.8321833   2.3968325  )
        59           O   tau(  59) = (   0.8294143   1.1469559   0.7288898  )
        60           O   tau(  60) = (   0.4745058   0.1539201   0.9390559  )

     number of k points=    12
                       cart. coord. in units 2pi/alat
        k(    1) = (   0.0000000   0.0000000   0.0000000), wk =   0.1250000
        k(    2) = (   0.0000000   0.0000000  -0.1498851), wk =   0.1250000
        k(    3) = (   0.0000000  -0.2517492   0.0000000), wk =   0.1250000
        k(    4) = (   0.0000000  -0.2517492  -0.1498851), wk =   0.1250000
        k(    5) = (   0.2500000   0.0000000   0.0293859), wk =   0.2500000
        k(    6) = (   0.2500000   0.0000000  -0.1204992), wk =   0.2500000
        k(    7) = (   0.2500000  -0.2517492   0.0293859), wk =   0.2500000
        k(    8) = (   0.2500000  -0.2517492  -0.1204992), wk =   0.2500000
        k(    9) = (  -0.5000000   0.0000000  -0.0587719), wk =   0.1250000
        k(   10) = (  -0.5000000   0.0000000  -0.2086570), wk =   0.1250000
        k(   11) = (  -0.5000000  -0.2517492  -0.0587719), wk =   0.1250000
        k(   12) = (  -0.5000000  -0.2517492  -0.2086570), wk =   0.1250000

     Dense  grid:   557453 G-vectors     FFT dimensions: (  60, 108, 192)

     Estimated max dynamical RAM per process >     505.68MB

     Estimated total allocated dynamical RAM >    4045.48MB

     Check: negative/imaginary core charge=   -0.000002    0.000000

     Initial potential from superposition of free atoms

     starting charge  239.99932, renormalised to  240.00000
     Starting wfc are  192 randomized atomic wfcs
     Checking if some PAW data can be deallocated... 

     total cpu time spent up to now is       30.5 secs

     per-process dynamical memory:   383.7 Mb

     Self-consistent Calculation

     iteration #  1     ecut=   100.00 Ry     beta=0.50
     Davidson diagonalization with overlap
     ethr =  1.00E-02,  avg # of iterations =  3.0

     total cpu time spent up to now is      111.0 secs

     total energy              =   -1340.64842901 Ry
     Harris-Foulkes estimate   =   -1343.48987558 Ry
     estimated scf accuracy    <       5.38231600 Ry

     iteration #  2     ecut=   100.00 Ry     beta=0.50
     Davidson diagonalization with overlap
     ethr =  2.24E-03,  avg # of iterations =  3.0

     total cpu time spent up to now is      169.8 secs

     total energy              =   -1341.51398666 Ry
     Harris-Foulkes estimate   =   -1342.13975030 Ry
     estimated scf accuracy    <       1.36382181 Ry

     iteration #  3     ecut=   100.00 Ry     beta=0.50
     Davidson diagonalization with overlap
     ethr =  5.68E-04,  avg # of iterations =  6.9

     total cpu time spent up to now is      237.9 secs

     total energy              =   -1341.80791072 Ry
     Harris-Foulkes estimate   =   -1341.89613425 Ry
     estimated scf accuracy    <       0.22468622 Ry

     iteration #  4     ecut=   100.00 Ry     beta=0.50
     Davidson diagonalization with overlap
     ethr =  9.36E-05,  avg # of iterations = 10.2

     total cpu time spent up to now is      312.6 secs

     total energy              =   -1341.84283156 Ry
     Harris-Foulkes estimate   =   -1341.86068657 Ry
     estimated scf accuracy    <       0.04734786 Ry

     iteration #  5     ecut=   100.00 Ry     beta=0.50
     Davidson diagonalization with overlap
     ethr =  1.97E-05,  avg # of iterations =  8.4

     total cpu time spent up to now is      383.7 secs

     total energy              =   -1341.85305674 Ry
     Harris-Foulkes estimate   =   -1341.85514721 Ry
     estimated scf accuracy    <       0.00672736 Ry

     iteration #  6     ecut=   100.00 Ry     beta=0.50
     Davidson diagonalization with overlap
     c_bands:  1 eigenvalues not converged
     ethr =  2.80E-06,  avg # of iterations = 11.3

     total cpu time spent up to now is      461.4 secs

     total energy              =   -1341.85430395 Ry
     Harris-Foulkes estimate   =   -1341.85446619 Ry
     estimated scf accuracy    <       0.00058477 Ry

     iteration #  7     ecut=   100.00 Ry     beta=0.50
     Davidson diagonalization with overlap
     ethr =  2.44E-07,  avg # of iterations =  3.5

     total cpu time spent up to now is      531.8 secs

     total energy              =   -1341.85444177 Ry
     Harris-Foulkes estimate   =   -1341.85453642 Ry
     estimated scf accuracy    <       0.00025192 Ry

     iteration #  8     ecut=   100.00 Ry     beta=0.50
     Davidson diagonalization with overlap
     ethr =  1.05E-07,  avg # of iterations =  2.8

     total cpu time spent up to now is      583.3 secs

     total energy              =   -1341.85448937 Ry
     Harris-Foulkes estimate   =   -1341.85450553 Ry
     estimated scf accuracy    <       0.00004968 Ry

     iteration #  9     ecut=   100.00 Ry     beta=0.50
     Davidson diagonalization with overlap
     ethr =  2.07E-08,  avg # of iterations =  3.0

     total cpu time spent up to now is      637.7 secs

     total energy              =   -1341.85449981 Ry
     Harris-Foulkes estimate   =   -1341.85450410 Ry
     estimated scf accuracy    <       0.00001336 Ry

     iteration # 10     ecut=   100.00 Ry     beta=0.50
     Davidson diagonalization with overlap
     ethr =  5.57E-09,  avg # of iterations =  2.1

     total cpu time spent up to now is      687.5 secs

     total energy              =   -1341.85450252 Ry
     Harris-Foulkes estimate   =   -1341.85450286 Ry
     estimated scf accuracy    <       0.00000125 Ry

     iteration # 11     ecut=   100.00 Ry     beta=0.50
     Davidson diagonalization with overlap
     ethr =  5.21E-10,  avg # of iterations =  3.2

     total cpu time spent up to now is      764.8 secs

     total energy              =   -1341.85450295 Ry
     Harris-Foulkes estimate   =   -1341.85450315 Ry
     estimated scf accuracy    <       0.00000058 Ry

     iteration # 12     ecut=   100.00 Ry     beta=0.50
     Davidson diagonalization with overlap
     ethr =  2.40E-10,  avg # of iterations =  2.2

     total cpu time spent up to now is      815.0 secs

     total energy              =   -1341.85450303 Ry
     Harris-Foulkes estimate   =   -1341.85450306 Ry
     estimated scf accuracy    <       0.00000008 Ry

     iteration # 13     ecut=   100.00 Ry     beta=0.50
     Davidson diagonalization with overlap
     ethr =  3.17E-11,  avg # of iterations =  4.0

     total cpu time spent up to now is      891.2 secs

     total energy              =   -1341.85450306 Ry
     Harris-Foulkes estimate   =   -1341.85450308 Ry
     estimated scf accuracy    <       0.00000005 Ry

     iteration # 14     ecut=   100.00 Ry     beta=0.50
     Davidson diagonalization with overlap
     ethr =  1.92E-11,  avg # of iterations =  2.0

     total cpu time spent up to now is      937.4 secs

     total energy              =   -1341.85450306 Ry
     Harris-Foulkes estimate   =   -1341.85450307 Ry
     estimated scf accuracy    <       0.00000001 Ry

     iteration # 15     ecut=   100.00 Ry     beta=0.50
     Davidson diagonalization with overlap
     ethr =  4.61E-12,  avg # of iterations =  4.0

     total cpu time spent up to now is     1009.5 secs

     End of self-consistent calculation

          k = 0.0000 0.0000 0.0000 ( 69671 PWs)   bands (ev):

   -23.6340 -23.6329 -23.5865 -23.5861 -22.9674 -22.9546 -22.9376 -22.9256
   -20.8618 -20.8587 -20.8569 -20.8537 -18.7640 -18.7638 -18.6655 -18.6651
   -17.3669 -17.3605 -17.3323 -17.3256 -16.3660 -16.3618 -16.2710 -16.2682
   -15.1949 -15.1741 -15.1659 -15.1414 -11.5258 -11.4761 -11.3382 -11.2692
   -10.9077 -10.9063 -10.8896 -10.8757  -9.9078  -9.8986  -9.5388  -9.5333
    -8.8869  -8.8042  -8.5916  -8.5365  -7.4332  -7.3844  -7.1006  -7.0468
    -6.7659  -6.7464  -6.6230  -6.5519  -6.3425  -6.2928  -6.2203  -6.2008
    -6.1654  -6.0936  -6.0500  -6.0317  -5.9086  -5.8421  -5.8343  -5.5825
    -5.3419  -5.2589  -5.0567  -5.0513  -4.3793  -4.3534  -4.2626  -4.2258
    -3.9797  -3.9471  -3.6784  -3.6669  -2.5621  -2.5149  -2.4481  -2.4102
    -2.2383  -2.1863  -2.1574  -2.0665  -2.0444  -2.0274  -1.8291  -1.8069
    -1.7430  -1.6628  -1.5142  -1.3993  -1.2319  -1.2296  -1.1394  -1.1372
    -0.9259  -0.8127  -0.7278  -0.6790  -0.4253  -0.3231  -0.3119  -0.2585
    -0.2579  -0.2545  -0.1293  -0.0612  -0.0275   0.0498   0.0706   0.0915
     0.6788   0.7854   0.8057   0.8590   0.9594   0.9730   0.9985   1.0112
     4.5062   4.5349   4.5906   4.6078   4.9980   5.1110   5.1833   5.2733
     6.9712   7.0376   7.0785   7.1016   7.1094   7.1422   7.2272   7.2637
     8.0687   8.4265   8.6630   8.8263   8.9405   9.0084   9.1754   9.2932

          k = 0.0000 0.0000-0.1499 ( 69700 PWs)   bands (ev):

   -23.6335 -23.6335 -23.5863 -23.5863 -22.9627 -22.9618 -22.9308 -22.9299
   -20.8612 -20.8601 -20.8554 -20.8544 -18.7639 -18.7639 -18.6653 -18.6653
   -17.3641 -17.3638 -17.3288 -17.3285 -16.3639 -16.3639 -16.2696 -16.2695
   -15.1893 -15.1871 -15.1510 -15.1488 -11.5052 -11.5049 -11.2999 -11.2994
   -10.9083 -10.9078 -10.8818 -10.8812  -9.9033  -9.9032  -9.5360  -9.5359
    -8.8503  -8.8501  -8.5595  -8.5593  -7.4119  -7.4116  -7.0645  -7.0642
    -6.7748  -6.7746  -6.5833  -6.5827  -6.3036  -6.3029  -6.1994  -6.1993
    -6.1222  -6.1221  -6.0537  -6.0532  -5.9452  -5.9450  -5.6551  -5.6550
    -5.2960  -5.2960  -5.0540  -5.0540  -4.3698  -4.3697  -4.2410  -4.2409
    -3.9650  -3.9641  -3.6729  -3.6719  -2.5397  -2.5387  -2.4300  -2.4294
    -2.2158  -2.2133  -2.1162  -2.1152  -2.0264  -2.0258  -1.8253  -1.8236
    -1.7095  -1.7093  -1.4481  -1.4480  -1.2279  -1.2270  -1.1405  -1.1393
    -0.8735  -0.8734  -0.7060  -0.7058  -0.3464  -0.3464  -0.2879  -0.2878
    -0.2738  -0.2736  -0.1181  -0.1180   0.0506   0.0506   0.0613   0.0615
     0.7255   0.7266   0.8402   0.8412   0.9644   0.9647   1.0066   1.0068
     4.5145   4.5148   4.6051   4.6054   5.0416   5.0421   5.2407   5.2412
     6.9968   6.9977   7.0951   7.0960   7.1220   7.1231   7.2453   7.2469
     8.2020   8.2028   8.8373   8.8376   9.0031   9.0033   9.1519   9.1527

          k = 0.0000-0.2517 0.0000 ( 69802 PWs)   bands (ev):

   -23.6115 -23.6111 -23.6098 -23.6094 -22.9531 -22.9508 -22.9407 -22.9384
   -20.8630 -20.8610 -20.8545 -20.8525 -18.7166 -18.7163 -18.7138 -18.7136
   -17.3515 -17.3499 -17.3453 -17.3437 -16.3160 -16.3147 -16.3144 -16.3131
   -15.1793 -15.1756 -15.1644 -15.1607 -11.4251 -11.4238 -11.3952 -11.3938
   -10.9167 -10.9161 -10.8738 -10.8733  -9.7268  -9.7258  -9.6882  -9.6871
    -8.7681  -8.7673  -8.7139  -8.7131  -7.2449  -7.2433  -7.1533  -7.1516
    -6.7164  -6.7162  -6.6098  -6.6097  -6.3146  -6.3140  -6.2618  -6.2612
    -6.1448  -6.1444  -6.0755  -6.0749  -5.8921  -5.8919  -5.6718  -5.6717
    -5.1876  -5.1871  -5.1357  -5.1352  -4.3531  -4.3521  -4.2858  -4.2849
    -3.8378  -3.8368  -3.7654  -3.7645  -2.5089  -2.5080  -2.4143  -2.4138
    -2.2221  -2.2205  -2.1494  -2.1489  -2.0738  -2.0726  -1.8091  -1.8077
    -1.6330  -1.6327  -1.5360  -1.5357  -1.2066  -1.2055  -1.1475  -1.1466
    -0.8284  -0.8283  -0.7241  -0.7239  -0.3506  -0.3503  -0.2986  -0.2986
    -0.2163  -0.2161  -0.1844  -0.1843  -0.0767  -0.0762   0.2183   0.2187
     0.7424   0.7439   0.8277   0.8289   0.9688   0.9693   0.9832   0.9836
     4.5287   4.5290   4.6074   4.6077   5.0384   5.0390   5.2471   5.2477
     6.9057   6.9071   7.0554   7.0561   7.0931   7.0938   7.3271   7.3288
     8.2746   8.2753   8.5397   8.5400   9.0499   9.0508   9.3108   9.3110

          k = 0.0000-0.2517-0.1499 ( 69748 PWs)   bands (ev):

   -23.6115 -23.6112 -23.6098 -23.6095 -22.9531 -22.9508 -22.9407 -22.9384
   -20.8630 -20.8610 -20.8545 -20.8525 -18.7165 -18.7164 -18.7138 -18.7137
   -17.3515 -17.3499 -17.3452 -17.3436 -16.3160 -16.3146 -16.3145 -16.3131
   -15.1792 -15.1754 -15.1646 -15.1608 -11.4251 -11.4238 -11.3952 -11.3938
   -10.9167 -10.9161 -10.8738 -10.8733  -9.7266  -9.7254  -9.6886  -9.6874
    -8.7639  -8.7630  -8.7183  -8.7174  -7.2451  -7.2433  -7.1547  -7.1528
    -6.6795  -6.6789  -6.6502  -6.6496  -6.3123  -6.3117  -6.2423  -6.2413
    -6.1578  -6.1572  -6.1012  -6.1003  -5.8594  -5.8584  -5.6846  -5.6841
    -5.1623  -5.1617  -5.1609  -5.1603  -4.3514  -4.3504  -4.2880  -4.2870
    -3.8360  -3.8351  -3.7663  -3.7653  -2.5087  -2.5077  -2.4146  -2.4141
    -2.2149  -2.2125  -2.1595  -2.1575  -2.0744  -2.0729  -1.8082  -1.8068
    -1.6330  -1.6328  -1.5340  -1.5337  -1.1992  -1.1980  -1.1557  -1.1547
    -0.8188  -0.8186  -0.7385  -0.7381  -0.3390  -0.3388  -0.3150  -0.3147
    -0.2043  -0.2037  -0.1821  -0.1811  -0.0781  -0.0776   0.2122   0.2125
     0.7496   0.7511   0.8222   0.8236   0.9675   0.9681   0.9846   0.9850
     4.5274   4.5277   4.6084   4.6087   5.0397   5.0403   5.2462   5.2468
     6.9057   6.9070   7.0657   7.0670   7.0789   7.0801   7.3276   7.3293
     8.3382   8.3393   8.4386   8.4387   9.2319   9.2331   9.2386   9.2405

          k = 0.2500 0.0000 0.0294 ( 69658 PWs)   bands (ev):

   -23.6168 -23.6160 -23.5819 -23.5816 -22.9448 -22.9369 -22.9249 -22.9175
   -20.8783 -20.8761 -20.8713 -20.8691 -18.7613 -18.7611 -18.6633 -18.6631
   -17.4007 -17.3982 -17.3548 -17.3526 -16.3987 -16.3982 -16.2958 -16.2946
   -15.1864 -15.1791 -15.1543 -15.1496 -11.4736 -11.4606 -11.2703 -11.2611
   -10.9279 -10.9196 -10.8818 -10.8755  -9.8814  -9.8485  -9.5163  -9.5055
    -8.8623  -8.7940  -8.5503  -8.5225  -7.4288  -7.4249  -7.1380  -7.0888
    -6.8303  -6.8283  -6.7013  -6.6087  -6.5657  -6.4627  -6.2596  -6.2350
    -6.1967  -6.1906  -6.0743  -6.0494  -5.9679  -5.9496  -5.6993  -5.5479
    -5.3126  -5.2727  -5.0113  -5.0075  -4.2490  -4.2126  -4.1426  -4.1012
    -3.8855  -3.8576  -3.7387  -3.7347  -2.5894  -2.5605  -2.4225  -2.3937
    -2.2211  -2.1853  -2.0531  -2.0488  -1.9494  -1.9470  -1.8258  -1.8149
    -1.7360  -1.6439  -1.5188  -1.3776  -1.1304  -1.1186  -1.0592  -1.0496
    -0.8839  -0.7763  -0.7326  -0.6250  -0.4236  -0.3443  -0.3423  -0.2896
    -0.2739  -0.2029  -0.0802  -0.0700   0.0007   0.0465   0.1038   0.1048
     0.7177   0.7531   0.8091   0.8217   0.9410   0.9480   1.0413   1.0556
     4.3759   4.4189   4.4430   4.4883   5.0693   5.0989   5.2243   5.2469
     6.8162   6.9036   7.0553   7.1113   7.2892   7.3683   7.4864   7.4883
     8.3339   8.6097   8.8531   8.8716   8.9229   9.0624   9.1424   9.2253

          k = 0.2500 0.0000-0.1205 ( 69655 PWs)   bands (ev):

   -23.6165 -23.6163 -23.5818 -23.5817 -22.9436 -22.9391 -22.9229 -22.9185
   -20.8786 -20.8753 -20.8722 -20.8687 -18.7614 -18.7610 -18.6633 -18.6631
   -17.4014 -17.3974 -17.3558 -17.3516 -16.4000 -16.3969 -16.2960 -16.2943
   -15.1883 -15.1729 -15.1629 -15.1452 -11.4828 -11.4475 -11.2931 -11.2418
   -10.9302 -10.9178 -10.8811 -10.8760  -9.8697  -9.8613  -9.5127  -9.5081
    -8.8571  -8.7987  -8.5549  -8.5184  -7.4345  -7.4195  -7.1384  -7.0958
    -6.8093  -6.8017  -6.7189  -6.6521  -6.5603  -6.4645  -6.2381  -6.2094
    -6.1790  -6.1774  -6.1050  -6.0944  -5.9881  -5.9157  -5.7032  -5.5405
    -5.3402  -5.2447  -5.0157  -5.0039  -4.2544  -4.1805  -4.1692  -4.1072
    -3.8730  -3.8655  -3.7430  -3.7303  -2.6174  -2.5266  -2.4148  -2.4014
    -2.2336  -2.1834  -2.0608  -2.0139  -1.9972  -1.9185  -1.8451  -1.7985
    -1.7306  -1.6659  -1.4758  -1.4027  -1.1364  -1.1125  -1.0676  -1.0487
    -0.8740  -0.8158  -0.6671  -0.6569  -0.4071  -0.3545  -0.3233  -0.3083
    -0.2424  -0.2342  -0.1035  -0.0502   0.0146   0.0299   0.0742   0.1312
     0.7240   0.7656   0.7945   0.8219   0.9416   0.9487   1.0421   1.0535
     4.3788   4.3974   4.4697   4.4808   5.0682   5.1013   5.2148   5.2546
     6.8141   6.9128   7.0317   7.1294   7.3212   7.3241   7.4552   7.5315
     8.3546   8.5207   8.8947   8.9198   9.0251   9.0596   9.0890   9.1866

          k = 0.2500-0.2517 0.0294 ( 69704 PWs)   bands (ev):

   -23.6004 -23.6000 -23.5987 -23.5983 -22.9365 -22.9341 -22.9276 -22.9252
   -20.8790 -20.8771 -20.8703 -20.8684 -18.7142 -18.7137 -18.7114 -18.7110
   -17.3812 -17.3796 -17.3763 -17.3747 -16.3459 -16.3450 -16.3443 -16.3434
   -15.1752 -15.1714 -15.1649 -15.1611 -11.3849 -11.3836 -11.3624 -11.3610
   -10.9174 -10.9168 -10.8884 -10.8878  -9.6928  -9.6918  -9.6575  -9.6564
    -8.7386  -8.7378  -8.6983  -8.6974  -7.2566  -7.2548  -7.1896  -7.1877
    -6.7768  -6.7760  -6.7211  -6.7206  -6.4693  -6.4690  -6.3297  -6.3296
    -6.1947  -6.1940  -6.1499  -6.1492  -5.8428  -5.8425  -5.6917  -5.6914
    -5.1358  -5.1353  -5.1136  -5.1131  -4.2179  -4.2168  -4.1050  -4.1038
    -3.8532  -3.8523  -3.7882  -3.7872  -2.5442  -2.5433  -2.4404  -2.4398
    -2.1958  -2.1933  -2.0745  -2.0727  -1.9886  -1.9873  -1.7788  -1.7772
    -1.6066  -1.6063  -1.5004  -1.5002  -1.1293  -1.1284  -1.0603  -1.0594
    -0.8662  -0.8660  -0.6400  -0.6396  -0.3502  -0.3499  -0.3242  -0.3240
    -0.2074  -0.2070  -0.1621  -0.1618  -0.0331  -0.0328   0.1714   0.1718
     0.7492   0.7500   0.8079   0.8084   0.9858   0.9861   1.0107   1.0111
     4.4069   4.4073   4.4640   4.4644   5.0831   5.0837   5.2362   5.2368
     6.8879   6.8890   7.0500   7.0512   7.2571   7.2587   7.5102   7.5121
     8.4167   8.4177   8.7382   8.7390   9.2309   9.2316   9.3227   9.3239

          k = 0.2500-0.2517-0.1205 ( 69702 PWs)   bands (ev):

   -23.6003 -23.6001 -23.5986 -23.5983 -22.9365 -22.9341 -22.9276 -22.9252
   -20.8790 -20.8771 -20.8703 -20.8684 -18.7142 -18.7137 -18.7115 -18.7110
   -17.3811 -17.3795 -17.3764 -17.3748 -16.3460 -16.3447 -16.3446 -16.3433
   -15.1752 -15.1715 -15.1648 -15.1611 -11.3849 -11.3836 -11.3623 -11.3610
   -10.9175 -10.9168 -10.8883 -10.8878  -9.6919  -9.6909  -9.6584  -9.6573
    -8.7395  -8.7387  -8.6974  -8.6965  -7.2566  -7.2550  -7.1893  -7.1876
    -6.7928  -6.7922  -6.6995  -6.6987  -6.4625  -6.4621  -6.3469  -6.3462
    -6.2116  -6.2111  -6.1293  -6.1288  -5.8407  -5.8404  -5.6924  -5.6922
    -5.1433  -5.1427  -5.1062  -5.1057  -4.2175  -4.2163  -4.1068  -4.1055
    -3.8531  -3.8521  -3.7874  -3.7864  -2.5448  -2.5439  -2.4375  -2.4368
    -2.2008  -2.1982  -2.0725  -2.0706  -1.9880  -1.9866  -1.7807  -1.7791
    -1.6031  -1.6028  -1.5026  -1.5024  -1.1256  -1.1247  -1.0627  -1.0618
    -0.8650  -0.8648  -0.6420  -0.6417  -0.3554  -0.3551  -0.3261  -0.3260
    -0.2139  -0.2138  -0.1388  -0.1384  -0.0377  -0.0374   0.1647   0.1650
     0.7566   0.7574   0.8022   0.8029   0.9878   0.9880   1.0090   1.0092
     4.4032   4.4036   4.4678   4.4682   5.0831   5.0837   5.2360   5.2366
     6.8870   6.8881   7.0500   7.0511   7.2665   7.2681   7.4975   7.4994
     8.4364   8.4375   8.7088   8.7095   9.2752   9.2762   9.3080   9.3088

          k =-0.5000 0.0000-0.0588 ( 69608 PWs)   bands (ev):

   -23.5962 -23.5962 -23.5802 -23.5802 -22.9196 -22.9186 -22.9121 -22.9111
   -20.8939 -20.8920 -20.8885 -20.8866 -18.7585 -18.7584 -18.6611 -18.6611
   -17.4320 -17.4320 -17.3800 -17.3800 -16.4314 -16.4313 -16.3218 -16.3218
   -15.1789 -15.1765 -15.1558 -15.1535 -11.4299 -11.4298 -11.2324 -11.2322
   -10.9388 -10.9382 -10.8756 -10.8750  -9.8169  -9.8167  -9.4870  -9.4867
    -8.8217  -8.8215  -8.5103  -8.5101  -7.4854  -7.4851  -7.1645  -7.1642
    -6.8955  -6.8950  -6.7500  -6.7497  -6.5149  -6.5145  -6.3565  -6.3560
    -6.1797  -6.1797  -6.1085  -6.1082  -6.0159  -6.0157  -5.6090  -5.6088
    -5.2845  -5.2844  -4.9765  -4.9765  -4.1084  -4.1075  -4.0726  -4.0715
    -3.8224  -3.8219  -3.7879  -3.7876  -2.5786  -2.5778  -2.5161  -2.5148
    -2.0669  -2.0651  -1.9251  -1.9227  -1.8203  -1.8202  -1.7826  -1.7818
    -1.7059  -1.7052  -1.3944  -1.3943  -1.0567  -1.0559  -1.0432  -1.0426
    -0.8133  -0.8130  -0.6051  -0.6050  -0.4106  -0.4104  -0.3258  -0.3256
    -0.2361  -0.2361  -0.0473  -0.0471   0.0391   0.0394   0.1189   0.1193
     0.8025   0.8029   0.8627   0.8629   0.9025   0.9030   0.9494   0.9501
     4.2772   4.2775   4.3280   4.3284   5.1542   5.1548   5.2199   5.2205
     6.7607   6.7612   7.0441   7.0448   7.6227   7.6232   7.6713   7.6720
     8.5556   8.5566   8.9401   8.9403   9.1143   9.1158   9.2889   9.2897

          k =-0.5000 0.0000-0.2087 ( 69660 PWs)   bands (ev):

   -23.5963 -23.5961 -23.5803 -23.5800 -22.9204 -22.9172 -22.9136 -22.9103
   -20.8939 -20.8920 -20.8886 -20.8865 -18.7588 -18.7581 -18.6613 -18.6609
   -17.4329 -17.4310 -17.3806 -17.3794 -16.4314 -16.4313 -16.3227 -16.3209
   -15.1834 -15.1673 -15.1634 -15.1506 -11.4389 -11.4199 -11.2401 -11.2256
   -10.9409 -10.9352 -10.8809 -10.8706  -9.8412  -9.7890  -9.4957  -9.4811
    -8.8688  -8.7659  -8.5361  -8.4933  -7.5045  -7.4633  -7.2058  -7.1213
    -6.9092  -6.8831  -6.7649  -6.7333  -6.5371  -6.4725  -6.3782  -6.3711
    -6.1818  -6.1810  -6.1732  -6.0502  -5.9900  -5.9698  -5.7387  -5.5179
    -5.3536  -5.2212  -4.9875  -4.9679  -4.1045  -4.1030  -4.0935  -4.0606
    -3.8180  -3.8120  -3.8025  -3.7866  -2.6074  -2.5478  -2.5400  -2.4902
    -2.0645  -2.0510  -1.9859  -1.8823  -1.8578  -1.7972  -1.7838  -1.7543
    -1.7374  -1.6165  -1.5572  -1.2929  -1.0610  -1.0521  -1.0456  -1.0408
    -0.8521  -0.7516  -0.6610  -0.5697  -0.4800  -0.3539  -0.3284  -0.3064
    -0.2340  -0.2265  -0.0629  -0.0420  -0.0094   0.0789   0.0821   0.1531
     0.7905   0.8157   0.8562   0.8562   0.9108   0.9167   0.9419   0.9486
     4.2610   4.3023   4.3073   4.3407   5.1433   5.1674   5.2187   5.2197
     6.7017   6.8659   6.9590   7.0813   7.6088   7.6453   7.6615   7.6728
     8.5015   8.6256   8.9645   9.0164   9.0579   9.1127   9.1480   9.3386

          k =-0.5000-0.2517-0.0588 ( 69652 PWs)   bands (ev):

   -23.5892 -23.5889 -23.5874 -23.5871 -22.9172 -22.9161 -22.9148 -22.9137
   -20.8958 -20.8939 -20.8867 -20.8848 -18.7117 -18.7111 -18.7090 -18.7084
   -17.4097 -17.4081 -17.4068 -17.4052 -16.3755 -16.3748 -16.3741 -16.3735
   -15.1692 -15.1683 -15.1654 -15.1645 -11.3376 -11.3376 -11.3363 -11.3362
   -10.9180 -10.9174 -10.9013 -10.9007  -9.6518  -9.6506  -9.6243  -9.6231
    -8.7153  -8.7144  -8.6923  -8.6914  -7.3069  -7.3052  -7.2669  -7.2650
    -6.8313  -6.8307  -6.6809  -6.6804  -6.5579  -6.5570  -6.5036  -6.5034
    -6.1968  -6.1961  -6.1858  -6.1850  -5.8134  -5.8130  -5.7406  -5.7403
    -5.1026  -5.1020  -5.0955  -5.0949  -4.0831  -4.0818  -4.0229  -4.0215
    -3.8677  -3.8667  -3.8282  -3.8272  -2.5949  -2.5940  -2.4733  -2.4724
    -2.1277  -2.1253  -1.9760  -1.9736  -1.7892  -1.7881  -1.7476  -1.7462
    -1.5271  -1.5268  -1.5094  -1.5092  -1.0615  -1.0608  -1.0159  -1.0151
    -0.8820  -0.8819  -0.5873  -0.5870  -0.3694  -0.3690  -0.3342  -0.3340
    -0.1950  -0.1944  -0.1602  -0.1592   0.0604   0.0610   0.0930   0.0933
     0.8340   0.8347   0.8537   0.8547   0.9186   0.9201   0.9480   0.9490
     4.2838   4.2844   4.3203   4.3208   5.1575   5.1581   5.2115   5.2121
     6.8357   6.8369   6.9593   6.9605   7.6517   7.6538   7.6750   7.6771
     8.6452   8.6462   8.7637   8.7649   9.2562   9.2570   9.2744   9.2752

          k =-0.5000-0.2517-0.2087 ( 69612 PWs)   bands (ev):

   -23.5892 -23.5889 -23.5874 -23.5871 -22.9172 -22.9161 -22.9148 -22.9137
   -20.8958 -20.8939 -20.8867 -20.8848 -18.7117 -18.7111 -18.7090 -18.7084
   -17.4098 -17.4082 -17.4068 -17.4051 -16.3756 -16.3752 -16.3738 -16.3734
   -15.1691 -15.1684 -15.1653 -15.1646 -11.3379 -11.3378 -11.3360 -11.3360
   -10.9181 -10.9175 -10.9012 -10.9006  -9.6532  -9.6524  -9.6225  -9.6217
    -8.7189  -8.7181  -8.6885  -8.6878  -7.3056  -7.3038  -7.2697  -7.2680
    -6.8337  -6.8333  -6.6420  -6.6413  -6.6170  -6.6167  -6.4657  -6.4653
    -6.2577  -6.2573  -6.1298  -6.1296  -5.8511  -5.8511  -5.7086  -5.7084
    -5.1236  -5.1232  -5.0761  -5.0757  -4.0858  -4.0845  -4.0214  -4.0201
    -3.8681  -3.8672  -3.8271  -3.8261  -2.5956  -2.5947  -2.4729  -2.4719
    -2.1280  -2.1256  -1.9746  -1.9722  -1.7935  -1.7927  -1.7420  -1.7410
    -1.5332  -1.5330  -1.5049  -1.5046  -1.0665  -1.0659  -1.0115  -1.0107
    -0.8827  -0.8827  -0.5740  -0.5736  -0.3942  -0.3939  -0.3382  -0.3382
    -0.2038  -0.2036  -0.1023  -0.1020   0.0037   0.0038   0.1178   0.1178
     0.8276   0.8280   0.8638   0.8640   0.9096   0.9102   0.9553   0.9557
     4.2797   4.2801   4.3245   4.3249   5.1577   5.1583   5.2112   5.2118
     6.8329   6.8340   6.9631   6.9643   7.6305   7.6311   7.6997   7.7003
     8.5950   8.5956   8.8302   8.8312   9.2202   9.2211   9.2768   9.2777

     highest occupied, lowest unoccupied level (ev):     1.0556    4.2610

!    total energy              =   -1341.85450307 Ry
     Harris-Foulkes estimate   =   -1341.85450307 Ry
     estimated scf accuracy    <          2.7E-09 Ry

     total all-electron energy =     -5061.301181 Ry

     The total energy is the sum of the following terms:

     one-electron contribution =    -781.84139105 Ry
     hartree contribution      =     488.39365571 Ry
     xc contribution           =    -262.48449062 Ry
     ewald contribution        =    -419.44201733 Ry
     Dispersion Correction     =      -0.28196057 Ry
     one-center paw contrib.   =    -366.19829920 Ry

     convergence has been achieved in  15 iterations

     Forces acting on atoms (cartesian axes, Ry/au):

     atom    1 type  2   force =     0.00110267    0.01202279   -0.00389223
     atom    2 type  2   force =    -0.00093354    0.01177834    0.00377258
     atom    3 type  2   force =    -0.00110267   -0.01202279    0.00389223
     atom    4 type  2   force =     0.00093354   -0.01177834   -0.00377258
     atom    5 type  2   force =     0.00560525   -0.00764769    0.00613482
     atom    6 type  2   force =    -0.00502895   -0.00775666   -0.00658418
     atom    7 type  2   force =    -0.00560525    0.00764769   -0.00613482
     atom    8 type  2   force =     0.00502895    0.00775666    0.00658418
     atom    9 type  2   force =     0.00548859   -0.00364050   -0.00349484
     atom   10 type  2   force =    -0.00610855   -0.00332078    0.00396446
     atom   11 type  2   force =    -0.00548859    0.00364050    0.00349484
     atom   12 type  2   force =     0.00610855    0.00332078   -0.00396446
     atom   13 type  2   force =    -0.01298292   -0.00353180    0.00337657
     atom   14 type  2   force =     0.01305006   -0.00357357   -0.00343619
     atom   15 type  2   force =     0.01298292    0.00353180   -0.00337657
     atom   16 type  2   force =    -0.01305006    0.00357357    0.00343619
     atom   17 type  3   force =    -0.00091819   -0.00030312    0.00453015
     atom   18 type  3   force =     0.00090243   -0.00029466   -0.00451163
     atom   19 type  3   force =     0.00091819    0.00030312   -0.00453015
     atom   20 type  3   force =    -0.00090243    0.00029466    0.00451163
     atom   21 type  1   force =    -0.00170215   -0.00935177   -0.01334108
     atom   22 type  1   force =     0.00158317   -0.00966456    0.01347212
     atom   23 type  1   force =     0.00170215    0.00935177    0.01334108
     atom   24 type  1   force =    -0.00158317    0.00966456   -0.01347212
     atom   25 type  4   force =     0.00194341   -0.00172861    0.00443072
     atom   26 type  4   force =    -0.00203021   -0.00162578   -0.00434973
     atom   27 type  4   force =    -0.00194341    0.00172861   -0.00443072
     atom   28 type  4   force =     0.00203021    0.00162578    0.00434973
     atom   29 type  1   force =     0.00008291    0.00916658   -0.00239501
     atom   30 type  1   force =    -0.00004996    0.00915618    0.00238242
     atom   31 type  1   force =    -0.00008291   -0.00916658    0.00239501
     atom   32 type  1   force =     0.00004996   -0.00915618   -0.00238242
     atom   33 type  3   force =    -0.00529213   -0.00508491    0.00034891
     atom   34 type  3   force =     0.00527421   -0.00507721   -0.00034664
     atom   35 type  3   force =     0.00529213    0.00508491   -0.00034891
     atom   36 type  3   force =    -0.00527421    0.00507721    0.00034664
     atom   37 type  3   force =    -0.00001666    0.00039242    0.00064703
     atom   38 type  3   force =     0.00001001    0.00039173   -0.00064929
     atom   39 type  3   force =     0.00001666   -0.00039242   -0.00064703
     atom   40 type  3   force =    -0.00001001   -0.00039173    0.00064929
     atom   41 type  3   force =     0.00346926   -0.00633372    0.00380665
     atom   42 type  3   force =    -0.00348172   -0.00633779   -0.00381033
     atom   43 type  3   force =    -0.00346926    0.00633372   -0.00380665
     atom   44 type  3   force =     0.00348172    0.00633779    0.00381033
     atom   45 type  2   force =     0.00475060    0.01556810    0.01036127
     atom   46 type  2   force =    -0.00453505    0.01593232   -0.01056535
     atom   47 type  2   force =    -0.00475060   -0.01556810   -0.01036127
     atom   48 type  2   force =     0.00453505   -0.01593232    0.01056535
     atom   49 type  2   force =     0.00850000   -0.00177941   -0.00692379
     atom   50 type  2   force =    -0.00882445   -0.00208375    0.00721331
     atom   51 type  2   force =    -0.00850000    0.00177941    0.00692379
     atom   52 type  2   force =     0.00882445    0.00208375   -0.00721331
     atom   53 type  4   force =    -0.01057393    0.00069718    0.00321411
     atom   54 type  4   force =     0.01068777    0.00066706   -0.00330082
     atom   55 type  4   force =     0.01057393   -0.00069718   -0.00321411
     atom   56 type  4   force =    -0.01068777   -0.00066706    0.00330082
     atom   57 type  4   force =    -0.00075838    0.00255827    0.00567443
     atom   58 type  4   force =     0.00078857    0.00279549   -0.00574055
     atom   59 type  4   force =     0.00075838   -0.00255827   -0.00567443
     atom   60 type  4   force =    -0.00078857   -0.00279549    0.00574055

     Total force =     0.083487     Total SCF correction =     0.000108


     Computing stress (Cartesian axis) and pressure

          total   stress  (Ry/bohr**3)                   (kbar)     P=   -2.14
  -0.00000096  -0.00000006   0.00003091         -0.14     -0.01      4.55
  -0.00000006  -0.00004610   0.00000013         -0.01     -6.78      0.02
   0.00003091   0.00000013   0.00000340          4.55      0.02      0.50


     Writing output data file scf.save
 
     init_run     :     28.91s CPU     29.89s WALL (       1 calls)
     electrons    :    942.26s CPU    979.09s WALL (       1 calls)
     forces       :     14.64s CPU     14.71s WALL (       1 calls)
     stress       :     54.45s CPU     54.63s WALL (       1 calls)

     Called by init_run:
     wfcinit      :     22.23s CPU     23.13s WALL (       1 calls)
     potinit      :      2.38s CPU      2.40s WALL (       1 calls)

     Called by electrons:
     c_bands      :    843.82s CPU    875.95s WALL (      15 calls)
     sum_band     :     90.26s CPU     94.42s WALL (      15 calls)
     v_of_rho     :      1.22s CPU      1.35s WALL (      16 calls)
     newd         :      2.65s CPU      3.05s WALL (      16 calls)
     PAW_pot      :      3.96s CPU      3.97s WALL (      16 calls)
     mix_rho      :      0.28s CPU      0.30s WALL (      15 calls)

     Called by c_bands:
     init_us_2    :      5.55s CPU      5.57s WALL (     396 calls)
     cegterg      :    821.76s CPU    853.83s WALL (     180 calls)

     Called by sum_band:
     sum_band:bec :      0.08s CPU      0.08s WALL (     180 calls)
     addusdens    :      2.63s CPU      3.02s WALL (      15 calls)

     Called by *egterg:
     h_psi        :    448.58s CPU    472.34s WALL (    1028 calls)
     s_psi        :     89.65s CPU     89.67s WALL (    1028 calls)
     g_psi        :      2.49s CPU      2.49s WALL (     836 calls)
     cdiaghg      :     63.51s CPU     63.49s WALL (    1016 calls)

     Called by h_psi:
     h_psi:pot    :    445.41s CPU    469.10s WALL (    1028 calls)
     h_psi:calbec :     89.73s CPU     89.92s WALL (    1028 calls)
     vloc_psi     :    265.93s CPU    289.41s WALL (    1028 calls)
     add_vuspsi   :     89.75s CPU     89.76s WALL (    1028 calls)

     General routines
     calbec       :    133.75s CPU    134.01s WALL (    1268 calls)
     fft          :      0.91s CPU      1.11s WALL (     232 calls)
     fftw         :    287.24s CPU    312.85s WALL (  168396 calls)
 
     Parallel routines
     fft_scatter  :     68.29s CPU     83.86s WALL (  168628 calls)
 
     PWSCF        : 17m28.88s CPU    19m 0.58s WALL

 
   This run was terminated on:  11:27:15  15Jan2018            

=------------------------------------------------------------------------------=
   JOB DONE.
=------------------------------------------------------------------------------=
