
     Program PWSCF v.6.1 (svn rev. 13369) starts on 15Dec2017 at  8:14: 2 

     This program is part of the open-source Quantum ESPRESSO suite
     for quantum simulation of materials; please cite
         "P. Giannozzi et al., J. Phys.:Condens. Matter 21 395502 (2009);
          URL http://www.quantum-espresso.org", 
     in publications or presentations arising from this work. More details at
     http://www.quantum-espresso.org/quote

     Parallel version (MPI), running on     8 processors
     R & G space division:  proc/nbgrp/npool/nimage =       8
     Waiting for input...
     Reading input from standard input

     Current dimensions of program PWSCF are:
     Max number of different atomic species (ntypx) = 10
     Max number of k-points (npk) =  40000
     Max angular momentum in pseudopotentials (lmaxx) =  3
               file C.pbe-n-kjpaw_psl.0.1.UPF: wavefunction(s)  2P renormalized
               file N.pbe-n-kjpaw_psl.0.1.UPF: wavefunction(s)  2P renormalized
               file H.pbe-kjpaw_psl.0.1.UPF: wavefunction(s)  1S renormalized
               file O.pbe-n-kjpaw_psl.0.1.UPF: wavefunction(s)  2P renormalized

     -------------------------------------
     Parameters for Dispersion Correction:
     -------------------------------------
       atom      VdW radius       C_6     

        C          2.744         60.710
        N          2.640         42.670
        H          1.892          4.857
        O          2.536         24.284

     Subspace diagonalization in iterative solution of the eigenvalue problem:
     a serial algorithm will be used

 
     Parallelization info
     --------------------
     sticks:   dense  smooth     PW     G-vecs:    dense   smooth      PW
     Min        3411    3411    890               197796   197796   26365
     Max        3412    3412    891               197797   197797   26366
     Sum       27289   27289   7127              1582375  1582375  210927
 


     bravais-lattice index     =            0
     lattice parameter (alat)  =      31.4694  a.u.
     unit-cell volume          =   11712.3543 (a.u.)^3
     number of atoms/cell      =          180
     number of atomic types    =            4
     number of electrons       =       552.00
     number of Kohn-Sham states=          331
     kinetic-energy cutoff     =     100.0000  Ry
     charge density cutoff     =     400.0000  Ry
     convergence threshold     =      1.0E-08
     mixing beta               =       0.5000
     number of iterations used =            8  plain     mixing
     Exchange-correlation      =  SLA  PW   PBX  PBC ( 1  4  3  4 0 0)

     celldm(1)=  31.469420  celldm(2)=   0.000000  celldm(3)=   0.000000
     celldm(4)=   0.000000  celldm(5)=   0.000000  celldm(6)=   0.000000

     crystal axes: (cart. coord. in units of alat)
               a(1) = (   1.000000   0.000000   0.000000 )  
               a(2) = (   0.000000   0.865573   0.000000 )  
               a(3) = (  -0.005449   0.000000   0.434184 )  

     reciprocal axes: (cart. coord. in units 2 pi/alat)
               b(1) = (  1.000000  0.000000  0.012550 )  
               b(2) = (  0.000000  1.155304  0.000000 )  
               b(3) = (  0.000000  0.000000  2.303168 )  


     PseudoPot. # 1 for  C read from file:
     /scratch/ahofstet/pseudo/C.pbe-n-kjpaw_psl.0.1.UPF
     MD5 check sum: 430fe95172b1e11ef3f8ed03bac87931
     Pseudo is Projector augmented-wave + core cor, Zval =  4.0
     Generated using "atomic" code by A. Dal Corso  v.5.0.99 svn rev. 10869
     Shape of augmentation charge: BESSEL
     Using radial grid of 1073 points,  4 beta functions with: 
                l(1) =   0
                l(2) =   0
                l(3) =   1
                l(4) =   1
     Q(r) pseudized with 0 coefficients 


     PseudoPot. # 2 for  N read from file:
     /scratch/ahofstet/pseudo/N.pbe-n-kjpaw_psl.0.1.UPF
     MD5 check sum: f73187c8b701007e77325f868c9291d7
     Pseudo is Projector augmented-wave + core cor, Zval =  5.0
     Generated using "atomic" code by A. Dal Corso  v.5.0.99 svn rev. 10869
     Shape of augmentation charge: PSQ
     Using radial grid of 1085 points,  4 beta functions with: 
                l(1) =   0
                l(2) =   0
                l(3) =   1
                l(4) =   1
     Q(r) pseudized with 0 coefficients 


     PseudoPot. # 3 for  H read from file:
     /scratch/ahofstet/pseudo/H.pbe-kjpaw_psl.0.1.UPF
     MD5 check sum: 94e484f906d9e9773b2f6e52662335b2
     Pseudo is Projector augmented-wave, Zval =  1.0
     Generated using "atomic" code by A. Dal Corso  v.5.0.99 svn rev. 10869
     Shape of augmentation charge: PSQ
     Using radial grid of  929 points,  2 beta functions with: 
                l(1) =   0
                l(2) =   0
     Q(r) pseudized with 0 coefficients 


     PseudoPot. # 4 for  O read from file:
     /scratch/ahofstet/pseudo/O.pbe-n-kjpaw_psl.0.1.UPF
     MD5 check sum: 3f94a2996a3169367d6eb21d9b593f20
     Pseudo is Projector augmented-wave + core cor, Zval =  6.0
     Generated using "atomic" code by A. Dal Corso  v.5.0.99 svn rev. 10869
     Shape of augmentation charge: BESSEL
     Using radial grid of 1095 points,  4 beta functions with: 
                l(1) =   0
                l(2) =   0
                l(3) =   1
                l(4) =   1
     Q(r) pseudized with 0 coefficients 


     atomic species   valence    mass     pseudopotential
        C              4.00    12.01070      C( 1.00)
        N              5.00    14.00670      N( 1.00)
        H              1.00     1.00794      H( 1.00)
        O              6.00    15.99940      O( 1.00)

      2 Sym. Ops., with inversion, found



   Cartesian axes

     site n.     atom                  positions (alat units)
         1           C   tau(   1) = (   0.3314288   0.5509551   0.4061424  )
         2           C   tau(   2) = (   0.6604220   0.1179737   0.2451383  )
         3           C   tau(   3) = (   0.6631223   0.3146178   0.0280421  )
         4           C   tau(   4) = (   0.3341291   0.7475993   0.1890462  )
         5           C   tau(   5) = (   0.2679464   0.5978496   0.4349534  )
         6           C   tau(   6) = (   0.7239081   0.1648590   0.2163227  )
         7           C   tau(   7) = (   0.7266048   0.2677234  -0.0007689  )
         8           C   tau(   8) = (   0.2706431   0.7007139   0.2178617  )
         9           H   tau(   9) = (   0.2196801   0.5689041   0.0237477  )
        10           H   tau(  10) = (   0.7776102   0.1358859   0.1933518  )
        11           H   tau(  11) = (   0.7748711   0.2966688   0.4104368  )
        12           H   tau(  12) = (   0.2169410   0.7296871   0.2408326  )
        13           C   tau(  13) = (   0.2729828   0.6815290   0.4341272  )
        14           C   tau(  14) = (   0.7188740   0.2485286   0.2171223  )
        15           C   tau(  15) = (   0.7215684   0.1840439   0.0000573  )
        16           C   tau(  16) = (   0.2756772   0.6170443   0.2170622  )
        17           C   tau(  17) = (   0.3424595   0.7185827   0.4049287  )
        18           C   tau(  18) = (   0.6493935   0.2855843   0.2463114  )
        19           C   tau(  19) = (   0.6520917   0.1469903   0.0292558  )
        20           C   tau(  20) = (   0.3451576   0.5799887   0.1878731  )
        21           H   tau(  21) = (   0.3461113   0.7838370   0.4048018  )
        22           H   tau(  22) = (   0.6457383   0.3508363   0.2463968  )
        23           H   tau(  23) = (   0.6484399   0.0817359   0.0293827  )
        24           H   tau(  24) = (   0.3488129   0.5147366   0.1877877  )
        25           C   tau(  25) = (   0.4061284   0.6722596   0.3760371  )
        26           C   tau(  26) = (   0.5857261   0.2392771   0.2752302  )
        27           C   tau(  27) = (   0.5884227   0.1933133   0.0581474  )
        28           C   tau(  28) = (   0.4088251   0.6262959   0.1589543  )
        29           C   tau(  29) = (   0.4002852   0.5884271   0.3766781  )
        30           C   tau(  30) = (   0.5915620   0.1554462   0.2746101  )
        31           C   tau(  31) = (   0.5942659   0.2771459   0.0575063  )
        32           C   tau(  32) = (   0.4029891   0.7101268   0.1595744  )
        33           H   tau(  33) = (   0.4499271   0.5525603   0.3537027  )
        34           H   tau(  34) = (   0.5419303   0.1195735   0.2976001  )
        35           H   tau(  35) = (   0.5446241   0.3130127   0.0804817  )
        36           H   tau(  36) = (   0.4526209   0.7459994   0.1365844  )
        37           C   tau(  37) = (   0.3249819   0.4615947   0.4043879  )
        38           C   tau(  38) = (   0.6669250   0.0286223   0.2468426  )
        39           C   tau(  39) = (   0.6695693   0.4039783   0.0297966  )
        40           C   tau(  40) = (   0.3276261   0.8369507   0.1873419  )
        41           O   tau(  41) = (   0.3756246   0.4179222   0.3721781  )
        42           O   tau(  42) = (   0.6163347   0.8504465   0.2790073  )
        43           O   tau(  43) = (   0.6189266   0.4476508   0.0620064  )
        44           O   tau(  44) = (   0.3782165   0.0151265   0.1551771  )
        45           O   tau(  45) = (   0.2598867   0.4342983   0.4403119  )
        46           O   tau(  46) = (   0.7320274   0.0014089   0.2108812  )
        47           O   tau(  47) = (   0.7346645   0.4312747  -0.0061275  )
        48           O   tau(  48) = (   0.2625238   0.8641640   0.2233033  )
        49           H   tau(  49) = (   0.2512089   0.3718847   0.4314801  )
        50           H   tau(  50) = (   0.7407705   0.8045376   0.2197387  )
        51           H   tau(  51) = (   0.7433422   0.4936883   0.0027043  )
        52           H   tau(  52) = (   0.2537806   0.0610353   0.2144458  )
        53           C   tau(  53) = (   0.2111084   0.7334240   0.0288291  )
        54           C   tau(  54) = (   0.7861655   0.3004584   0.1882042  )
        55           C   tau(  55) = (   0.7834428   0.1321489   0.4053554  )
        56           C   tau(  56) = (   0.2083857   0.5651145   0.2459802  )
        57           O   tau(  57) = (   0.1431842   0.6939257   0.0440103  )
        58           O   tau(  58) = (   0.8541105   0.2609984   0.1729730  )
        59           O   tau(  59) = (   0.8513670   0.1716472   0.3901742  )
        60           O   tau(  60) = (   0.1404406   0.6045746   0.2612115  )
        61           H   tau(  61) = (   0.0990347   0.7340729   0.0613787  )
        62           H   tau(  62) = (   0.8981823   0.3012026   0.1555652  )
        63           H   tau(  63) = (   0.8955164   0.1315000   0.3728058  )
        64           H   tau(  64) = (   0.0963689   0.5643704   0.2786193  )
        65           O   tau(  65) = (   0.2185600   0.8065506   0.0365642  )
        66           O   tau(  66) = (   0.7786881   0.3735770   0.1805241  )
        67           O   tau(  67) = (   0.7759911   0.0590223   0.3976203  )
        68           O   tau(  68) = (   0.2158631   0.4919960   0.2536604  )
        69           C   tau(  69) = (   0.4812826   0.7092003   0.3436395  )
        70           C   tau(  70) = (   0.5105977   0.2762764   0.3076129  )
        71           C   tau(  71) = (   0.5132686   0.1563727   0.0905450  )
        72           C   tau(  72) = (   0.4839534   0.5892965   0.1265716  )
        73           O   tau(  73) = (   0.4784179   0.7895880   0.3397308  )
        74           O   tau(  74) = (   0.5135235   0.3566671   0.3114855  )
        75           O   tau(  75) = (   0.5161333   0.0759850   0.0944537  )
        76           O   tau(  76) = (   0.4810277   0.5089058   0.1226990  )
        77           H   tau(  77) = (   0.5299952   0.8105827   0.3171894  )
        78           H   tau(  78) = (   0.4619786   0.3777212   0.3340070  )
        79           H   tau(  79) = (   0.4645560   0.0549903   0.1169951  )
        80           H   tau(  80) = (   0.5325726   0.4878517   0.1001775  )
        81           O   tau(  81) = (   0.5393309   0.6691225   0.3228653  )
        82           O   tau(  82) = (   0.4525013   0.2362558   0.3283963  )
        83           O   tau(  83) = (   0.4552203   0.1964505   0.1113192  )
        84           O   tau(  84) = (   0.5420498   0.6293172   0.1057882  )
        85           O   tau(  85) = (   0.2239033   0.2901170   0.4230305  )
        86           O   tau(  86) = (   0.7680007   0.7229319   0.2282749  )
        87           O   tau(  87) = (   0.7706478   0.5754559   0.0111540  )
        88           O   tau(  88) = (   0.2265505   0.1426410   0.2059096  )
        89           C   tau(  89) = (   0.2777732   0.2370658   0.4176700  )
        90           C   tau(  90) = (   0.7140847   0.6699303   0.2336260  )
        91           C   tau(  91) = (   0.7167780   0.6285072   0.0165145  )
        92           C   tau(  92) = (   0.2804664   0.1956427   0.2005585  )
        93           H   tau(  93) = (   0.3421050   0.2523989   0.4184331  )
        94           H   tau(  94) = (   0.6497648   0.6853098   0.2328550  )
        95           H   tau(  95) = (   0.6524462   0.6131741   0.0157514  )
        96           H   tau(  96) = (   0.3447863   0.1802631   0.2013295  )
        97           N   tau(  97) = (   0.2613975   0.1593512   0.4100841  )
        98           N   tau(  98) = (   0.7304482   0.5922139   0.2412208  )
        99           N   tau(  99) = (   0.7331537   0.7062218   0.0241004  )
       100           N   tau( 100) = (   0.2641030   0.2733591   0.1929637  )
       101           C   tau( 101) = (   0.3249862   0.0995988   0.4015440  )
       102           C   tau( 102) = (   0.6668510   0.5324755   0.2497322  )
       103           C   tau( 103) = (   0.6695650   0.7659741   0.0326405  )
       104           C   tau( 104) = (   0.3277002   0.3330975   0.1844522  )
       105           H   tau( 105) = (   0.3830222   0.1301701   0.3973005  )
       106           H   tau( 106) = (   0.6088265   0.5630703   0.2539582  )
       107           H   tau( 107) = (   0.6115290   0.7354029   0.0368840  )
       108           H   tau( 108) = (   0.3857247   0.3025026   0.1802263  )
       109           H   tau( 109) = (   0.3145437   0.0647002   0.3464983  )
       110           H   tau( 110) = (   0.6772565   0.4975730   0.3047825  )
       111           H   tau( 111) = (   0.6800075   0.8008728   0.0876862  )
       112           H   tau( 112) = (   0.3172947   0.3680000   0.1294020  )
       113           H   tau( 113) = (   0.3296545   0.0586283   0.0190433  )
       114           H   tau( 114) = (   0.6676235   0.4915093   0.1980426  )
       115           H   tau( 115) = (   0.6648966   0.8069447   0.4151412  )
       116           H   tau( 116) = (   0.3269277   0.3740636   0.2361419  )
       117           C   tau( 117) = (   0.1785340   0.1312857   0.4059511  )
       118           C   tau( 118) = (   0.8133341   0.5642235   0.2453676  )
       119           C   tau( 119) = (   0.8160171   0.7342873   0.0282334  )
       120           C   tau( 120) = (   0.1812171   0.3013495   0.1888169  )
       121           H   tau( 121) = (   0.1451957   0.1713616   0.0067061  )
       122           H   tau( 122) = (   0.8520736   0.6043642   0.2104499  )
       123           H   tau( 123) = (   0.8493555   0.6942113   0.4274784  )
       124           H   tau( 124) = (   0.1424776   0.2612088   0.2237346  )
       125           H   tau( 125) = (   0.1759896   0.0700860   0.4298706  )
       126           H   tau( 126) = (   0.8159641   0.5030348   0.2214278  )
       127           H   tau( 127) = (   0.8185615   0.7954869   0.0043139  )
       128           H   tau( 128) = (   0.1785871   0.3625382   0.2127567  )
       129           H   tau( 129) = (   0.1580832   0.1309448   0.3431529  )
       130           H   tau( 130) = (   0.8337700   0.5639058   0.3081714  )
       131           H   tau( 131) = (   0.8364680   0.7346281   0.0910316  )
       132           H   tau( 132) = (   0.1607811   0.3016671   0.1260131  )
       133           O   tau( 133) = (   0.0267664   0.7892172   0.0853391  )
       134           O   tau( 134) = (   0.9704236   0.3565081   0.1315320  )
       135           O   tau( 135) = (   0.9677847   0.0763557   0.3488454  )
       136           O   tau( 136) = (   0.0241276   0.5090648   0.3026525  )
       137           C   tau( 137) = (   0.0461615   0.8598703   0.1030507  )
       138           C   tau( 138) = (   0.9510215   0.4271702   0.1139390  )
       139           C   tau( 139) = (   0.9483897   0.0057027   0.3311338  )
       140           C   tau( 140) = (   0.0435297   0.4384028   0.3202454  )
       141           H   tau( 141) = (   0.1091688   0.0143920   0.0982432  )
       142           H   tau( 142) = (   0.8880330   0.4472806   0.1187448  )
       143           H   tau( 143) = (   0.8853823   0.8511809   0.3359413  )
       144           H   tau( 144) = (   0.1065181   0.4182923   0.3154397  )
       145           N   tau( 145) = (   0.9952175   0.0501995   0.1296344  )
       146           N   tau( 146) = (   0.0019999   0.4831720   0.0874687  )
       147           N   tau( 147) = (  -0.0006663   0.8153734   0.3045501  )
       148           N   tau( 148) = (   0.9925512   0.3824009   0.3467158  )
       149           C   tau( 149) = (   0.9098317   0.0336131   0.1389264  )
       150           C   tau( 150) = (   0.0873836   0.4666408   0.0781915  )
       151           C   tau( 151) = (   0.0847195   0.8319599   0.2952581  )
       152           C   tau( 152) = (   0.9071676   0.3989321   0.3559929  )
       153           H   tau( 153) = (   0.8759624   0.0543091   0.0861552  )
       154           H   tau( 154) = (   0.1212339   0.4874704   0.1309252  )
       155           H   tau( 155) = (   0.1185888   0.8112639   0.3480293  )
       156           H   tau( 156) = (   0.8733173   0.3781025   0.3032593  )
       157           H   tau( 157) = (   0.8876432   0.0650951   0.1923186  )
       158           H   tau( 158) = (   0.1095295   0.4980867   0.0247515  )
       159           H   tau( 159) = (   0.1069080   0.8004778   0.2418659  )
       160           H   tau( 160) = (   0.8850217   0.3674863   0.4094330  )
       161           H   tau( 161) = (   0.9007894   0.8345013   0.1460235  )
       162           H   tau( 162) = (   0.0965049   0.4019611   0.0711857  )
       163           H   tau( 163) = (   0.0937617   0.0310717   0.2881610  )
       164           H   tau( 164) = (   0.8980463   0.4636119   0.3629988  )
       165           C   tau( 165) = (   0.0222072   0.1315069   0.1477223  )
       166           C   tau( 166) = (   0.9749881   0.5644950   0.0695200  )
       167           C   tau( 167) = (   0.9723440   0.7340661   0.2864622  )
       168           C   tau( 168) = (   0.0195631   0.3010779   0.3646645  )
       169           H   tau( 169) = (   0.0879583   0.1347376   0.1440483  )
       170           H   tau( 170) = (   0.9092401   0.5677237   0.0731578  )
       171           H   tau( 171) = (   0.9065929   0.7308354   0.2901362  )
       172           H   tau( 172) = (   0.0853111   0.2978493   0.3610267  )
       173           H   tau( 173) = (   0.0033447   0.1471876   0.2090567  )
       174           H   tau( 174) = (   0.9938924   0.5802936   0.0082244  )
       175           H   tau( 175) = (   0.9912065   0.7183853   0.2251277  )
       176           H   tau( 176) = (   0.0006587   0.2852794   0.4259600  )
       177           H   tau( 177) = (  -0.0049990   0.1746019   0.1056477  )
       178           H   tau( 178) = (   1.0021762   0.6075203   0.1116851  )
       179           H   tau( 179) = (   0.9995502   0.6909710   0.3285368  )
       180           H   tau( 180) = (  -0.0076250   0.2580527   0.3224994  )

     number of k points=     8
                       cart. coord. in units 2pi/alat
        k(    1) = (   0.0000000   0.0000000   0.0000000), wk =   0.1666667
        k(    2) = (   0.0000000   0.0000000   0.7677228), wk =   0.3333333
        k(    3) = (   0.0000000  -0.5776521   0.0000000), wk =   0.1666667
        k(    4) = (   0.0000000  -0.5776521   0.7677228), wk =   0.3333333
        k(    5) = (  -0.5000000   0.0000000  -0.0062748), wk =   0.1666667
        k(    6) = (  -0.5000000   0.0000000   0.7614480), wk =   0.3333333
        k(    7) = (  -0.5000000  -0.5776521  -0.0062748), wk =   0.1666667
        k(    8) = (  -0.5000000  -0.5776521   0.7614480), wk =   0.3333333

     Dense  grid:  1582375 G-vectors     FFT dimensions: ( 216, 180,  90)

     Estimated max dynamical RAM per process >    2663.56MB

     Estimated total allocated dynamical RAM >   21308.50MB

     Check: negative/imaginary core charge=   -0.000002    0.000000

     Initial potential from superposition of free atoms

     starting charge  551.99664, renormalised to  552.00000
     Starting wfc are  480 randomized atomic wfcs
     Checking if some PAW data can be deallocated... 

     total cpu time spent up to now is      235.2 secs

     per-process dynamical memory:  1700.7 Mb

     Self-consistent Calculation

     iteration #  1     ecut=   100.00 Ry     beta=0.50
     Davidson diagonalization with overlap
     ethr =  1.00E-02,  avg # of iterations =  3.1

     total cpu time spent up to now is      996.0 secs

     total energy              =   -2757.80478554 Ry
     Harris-Foulkes estimate   =   -2767.30211570 Ry
     estimated scf accuracy    <      17.91661259 Ry

     iteration #  2     ecut=   100.00 Ry     beta=0.50
     Davidson diagonalization with overlap
     ethr =  3.25E-03,  avg # of iterations =  2.4

     total cpu time spent up to now is     1411.4 secs

     total energy              =   -2759.68621641 Ry
     Harris-Foulkes estimate   =   -2760.86049554 Ry
     estimated scf accuracy    <       2.48021256 Ry

     iteration #  3     ecut=   100.00 Ry     beta=0.50
     Davidson diagonalization with overlap
     ethr =  4.49E-04,  avg # of iterations =  7.2

     total cpu time spent up to now is     2250.1 secs

     total energy              =   -2760.92768740 Ry
     Harris-Foulkes estimate   =   -2761.61993082 Ry
     estimated scf accuracy    <       1.75943558 Ry

     iteration #  4     ecut=   100.00 Ry     beta=0.50
     Davidson diagonalization with overlap
     ethr =  3.19E-04,  avg # of iterations =  2.0

     total cpu time spent up to now is     2621.7 secs

     total energy              =   -2760.93494764 Ry
     Harris-Foulkes estimate   =   -2761.10983777 Ry
     estimated scf accuracy    <       0.35173296 Ry

     iteration #  5     ecut=   100.00 Ry     beta=0.50
     Davidson diagonalization with overlap
     ethr =  6.37E-05,  avg # of iterations =  6.5

     total cpu time spent up to now is     3434.6 secs

     total energy              =   -2761.15167105 Ry
     Harris-Foulkes estimate   =   -2761.23435199 Ry
     estimated scf accuracy    <       0.25952052 Ry

     iteration #  6     ecut=   100.00 Ry     beta=0.50
     Davidson diagonalization with overlap
     ethr =  4.70E-05,  avg # of iterations =  1.8

     total cpu time spent up to now is     3800.6 secs

     total energy              =   -2761.12689750 Ry
     Harris-Foulkes estimate   =   -2761.16726574 Ry
     estimated scf accuracy    <       0.10322361 Ry

     iteration #  7     ecut=   100.00 Ry     beta=0.50
     Davidson diagonalization with overlap
     ethr =  1.87E-05,  avg # of iterations =  7.1

     total cpu time spent up to now is     4443.5 secs

     total energy              =   -2761.15779701 Ry
     Harris-Foulkes estimate   =   -2761.15909696 Ry
     estimated scf accuracy    <       0.00397531 Ry

     iteration #  8     ecut=   100.00 Ry     beta=0.50
     Davidson diagonalization with overlap
     ethr =  7.20E-07,  avg # of iterations =  7.4

     total cpu time spent up to now is     5114.8 secs

     total energy              =   -2761.15834278 Ry
     Harris-Foulkes estimate   =   -2761.15933829 Ry
     estimated scf accuracy    <       0.00253452 Ry

     iteration #  9     ecut=   100.00 Ry     beta=0.50
     Davidson diagonalization with overlap
     ethr =  4.59E-07,  avg # of iterations =  2.0

     total cpu time spent up to now is     5484.3 secs

     total energy              =   -2761.15825652 Ry
     Harris-Foulkes estimate   =   -2761.15854354 Ry
     estimated scf accuracy    <       0.00056867 Ry

     iteration # 10     ecut=   100.00 Ry     beta=0.50
     Davidson diagonalization with overlap
     ethr =  1.03E-07,  avg # of iterations =  4.0

     total cpu time spent up to now is     6182.3 secs

     total energy              =   -2761.15866476 Ry
     Harris-Foulkes estimate   =   -2761.15877672 Ry
     estimated scf accuracy    <       0.00032006 Ry

     iteration # 11     ecut=   100.00 Ry     beta=0.50
     Davidson diagonalization with overlap
     ethr =  5.80E-08,  avg # of iterations =  1.6

     total cpu time spent up to now is     6547.9 secs

     total energy              =   -2761.15862821 Ry
     Harris-Foulkes estimate   =   -2761.15867709 Ry
     estimated scf accuracy    <       0.00011317 Ry

     iteration # 12     ecut=   100.00 Ry     beta=0.50
     Davidson diagonalization with overlap
     ethr =  2.05E-08,  avg # of iterations =  4.0

     total cpu time spent up to now is     7149.7 secs

     total energy              =   -2761.15867903 Ry
     Harris-Foulkes estimate   =   -2761.15868286 Ry
     estimated scf accuracy    <       0.00001017 Ry

     iteration # 13     ecut=   100.00 Ry     beta=0.50
     Davidson diagonalization with overlap
     ethr =  1.84E-09,  avg # of iterations =  2.0

     total cpu time spent up to now is     7524.5 secs

     total energy              =   -2761.15867803 Ry
     Harris-Foulkes estimate   =   -2761.15867976 Ry
     estimated scf accuracy    <       0.00000301 Ry

     iteration # 14     ecut=   100.00 Ry     beta=0.50
     Davidson diagonalization with overlap
     ethr =  5.46E-10,  avg # of iterations =  4.0

     total cpu time spent up to now is     8171.6 secs

     total energy              =   -2761.15868026 Ry
     Harris-Foulkes estimate   =   -2761.15868062 Ry
     estimated scf accuracy    <       0.00000158 Ry

     iteration # 15     ecut=   100.00 Ry     beta=0.50
     Davidson diagonalization with overlap
     ethr =  2.87E-10,  avg # of iterations =  1.0

     total cpu time spent up to now is     8533.7 secs

     total energy              =   -2761.15867986 Ry
     Harris-Foulkes estimate   =   -2761.15868029 Ry
     estimated scf accuracy    <       0.00000086 Ry

     iteration # 16     ecut=   100.00 Ry     beta=0.50
     Davidson diagonalization with overlap
     ethr =  1.57E-10,  avg # of iterations =  4.0

     total cpu time spent up to now is     9047.4 secs

     total energy              =   -2761.15868017 Ry
     Harris-Foulkes estimate   =   -2761.15868017 Ry
     estimated scf accuracy    <       0.00000005 Ry

     iteration # 17     ecut=   100.00 Ry     beta=0.50
     Davidson diagonalization with overlap
     ethr =  8.30E-12,  avg # of iterations =  3.2

     total cpu time spent up to now is     9489.3 secs

     total energy              =   -2761.15868016 Ry
     Harris-Foulkes estimate   =   -2761.15868018 Ry
     estimated scf accuracy    <       0.00000004 Ry

     iteration # 18     ecut=   100.00 Ry     beta=0.50
     Davidson diagonalization with overlap
     ethr =  8.08E-12,  avg # of iterations =  2.1

     total cpu time spent up to now is     9863.0 secs

     total energy              =   -2761.15868016 Ry
     Harris-Foulkes estimate   =   -2761.15868016 Ry
     estimated scf accuracy    <       0.00000002 Ry

     iteration # 19     ecut=   100.00 Ry     beta=0.50
     Davidson diagonalization with overlap
     ethr =  2.76E-12,  avg # of iterations =  4.0

     total cpu time spent up to now is    10431.9 secs

     End of self-consistent calculation

          k = 0.0000 0.0000 0.0000 (197795 PWs)   bands (ev):

   -21.2783 -21.2626 -21.2609 -21.2533 -21.2465 -21.2443 -21.2348 -21.2340
   -21.1545 -21.1488 -21.1456 -21.1448 -20.2149 -20.2133 -20.1569 -20.1559
   -20.1129 -20.1128 -20.0638 -20.0636 -19.0053 -19.0042 -18.9943 -18.9855
   -18.9266 -18.9264 -18.9229 -18.9204 -18.8402 -18.8401 -18.8389 -18.8318
   -17.7911 -17.7861 -17.7694 -17.7640 -17.5683 -17.5682 -17.5324 -17.5324
   -15.9106 -15.9055 -15.6954 -15.6902 -13.3992 -13.3737 -13.3500 -13.3441
   -13.2998 -13.2945 -13.2480 -13.2327 -12.2287 -12.1992 -12.0715 -12.0659
   -11.9228 -11.8902 -11.8572 -11.8545 -11.6384 -11.6270 -11.6204 -11.5862
   -11.3953 -11.3887 -11.3400 -11.3400 -10.5332 -10.4846 -10.4460 -10.4045
   -10.3354 -10.3004 -10.2485 -10.2201 -10.0098  -9.9782  -9.9579  -9.9247
    -8.6134  -8.6055  -8.5255  -8.5188  -8.2435  -8.2322  -8.1319  -8.1247
    -8.0823  -8.0102  -7.9874  -7.9520  -7.8188  -7.8145  -7.8135  -7.7585
    -7.2642  -7.2242  -7.1972  -7.1749  -6.8768  -6.8221  -6.7968  -6.7812
    -6.6379  -6.5773  -6.5644  -6.5598  -6.3892  -6.3420  -6.2965  -6.2829
    -6.2695  -6.2232  -6.2181  -6.1917  -6.1540  -6.0893  -5.9525  -5.8873
    -5.8849  -5.8510  -5.8495  -5.8458  -5.6727  -5.6667  -5.6420  -5.6058
    -5.6014  -5.5765  -5.5739  -5.5051  -5.4785  -5.4575  -5.4488  -5.4375
    -5.4316  -5.4246  -5.3798  -5.3722  -5.3555  -5.3466  -5.3384  -5.3258
    -5.2844  -5.2651  -5.2228  -5.1810  -5.1475  -5.1461  -4.9559  -4.9521
    -4.9466  -4.9055  -4.8896  -4.8503  -4.7423  -4.6721  -4.6337  -4.6154
    -4.6118  -4.6042  -4.5661  -4.5440  -4.4947  -4.4005  -4.3937  -4.3804
    -4.2964  -4.2937  -4.2405  -4.2136  -3.9926  -3.9640  -3.9619  -3.9098
    -3.8626  -3.8486  -3.8249  -3.7192  -3.6552  -3.6337  -3.6088  -3.5519
    -3.5465  -3.5298  -3.4978  -3.4757  -3.4511  -3.4213  -3.4107  -3.3803
    -3.3368  -3.3343  -3.3258  -3.3180  -3.3154  -3.2877  -3.2724  -3.2529
    -3.2360  -3.2355  -3.1847  -3.1119  -3.1060  -3.1008  -3.0848  -3.0535
    -3.0522  -3.0357  -2.9994  -2.9826  -2.9656  -2.9638  -2.7886  -2.7836
    -2.7704  -2.7658  -2.7076  -2.6797  -2.6016  -2.5854  -2.5759  -2.5528
    -2.4461  -2.4351  -2.4135  -2.3982  -1.5428  -1.4995  -1.4867  -1.4735
    -1.4499  -1.4489  -1.4283  -1.3688  -1.3411  -1.3305  -1.2816  -1.2275
    -0.9959  -0.9666  -0.7165  -0.7124  -0.7108  -0.7055  -0.6642  -0.6523
    -0.6446  -0.6407  -0.5696  -0.5659  -0.5574  -0.5449  -0.4907  -0.4665
    -0.4624  -0.4232  -0.3535  -0.2993  -0.2938  -0.2752  -0.2700  -0.2506
    -0.2240  -0.1532  -0.1523  -0.1511  -0.1474  -0.1450  -0.1219  -0.0966
    -0.0643  -0.0499   0.1296   0.1371   3.3798   3.3903   3.4500   3.5241
     3.5663   3.5869   3.6326   3.6499   4.5027   4.5764   4.7083   4.8263
     4.8729   4.9904   5.0164   5.0399   5.1505   5.1836   5.3565   5.3639
     5.7941   6.0792   6.2164   6.4406   6.5222   6.5880   6.6596   6.6930
     6.7356   6.7939   6.8559   6.8659   6.9005   6.9240   6.9572   7.0713
     7.1016   7.1636   7.2607   7.3221   7.3564   7.5832   7.6653   7.7589
     7.7945   7.8683   7.9033   7.9159   8.0399   8.0981   8.1270   8.1296
     8.1367   8.1745   8.2091

          k = 0.0000 0.0000 0.7677 (197819 PWs)   bands (ev):

   -21.2725 -21.2625 -21.2616 -21.2583 -21.2436 -21.2412 -21.2377 -21.2360
   -21.1539 -21.1514 -21.1447 -21.1444 -20.2006 -20.1992 -20.1712 -20.1700
   -20.1011 -20.1010 -20.0757 -20.0756 -19.0021 -18.9999 -18.9969 -18.9903
   -18.9257 -18.9252 -18.9236 -18.9220 -18.8408 -18.8397 -18.8375 -18.8337
   -17.8048 -17.7996 -17.7558 -17.7512 -17.5596 -17.5595 -17.5415 -17.5414
   -15.8597 -15.8545 -15.7522 -15.7470 -13.3713 -13.3442 -13.3431 -13.3324
   -13.3057 -13.2966 -13.2782 -13.2665 -12.2053 -12.1877 -12.0915 -12.0888
   -11.9084 -11.8769 -11.8751 -11.8567 -11.6392 -11.6300 -11.6105 -11.5927
   -11.3818 -11.3768 -11.3543 -11.3522 -10.5261 -10.5025 -10.4373 -10.4161
   -10.3241 -10.3059 -10.2377 -10.2240 -10.0066  -9.9912  -9.9422  -9.9246
    -8.6079  -8.6038  -8.5310  -8.5276  -8.2178  -8.2153  -8.1397  -8.1114
    -8.0831  -8.0248  -8.0191  -8.0020  -7.8267  -7.8226  -7.7845  -7.7477
    -7.2418  -7.2282  -7.2004  -7.1839  -6.8663  -6.8340  -6.8046  -6.7751
    -6.6371  -6.6038  -6.5690  -6.5593  -6.3834  -6.3556  -6.3058  -6.3043
    -6.2085  -6.2057  -6.1424  -6.1411  -6.1037  -6.0961  -5.9161  -5.9077
    -5.8753  -5.8097  -5.7711  -5.7181  -5.6749  -5.6623  -5.6493  -5.5952
    -5.5760  -5.5631  -5.5147  -5.5101  -5.4915  -5.4585  -5.4418  -5.4310
    -5.4158  -5.3999  -5.3879  -5.3876  -5.3678  -5.3619  -5.3420  -5.3300
    -5.3009  -5.2954  -5.2306  -5.2274  -5.1467  -5.1311  -5.0077  -4.9727
    -4.9054  -4.8806  -4.8730  -4.8024  -4.7900  -4.7629  -4.6884  -4.6858
    -4.6311  -4.6053  -4.5826  -4.5682  -4.4559  -4.4472  -4.3871  -4.3475
    -4.2613  -4.2558  -4.2326  -4.2234  -4.0007  -3.9690  -3.9445  -3.9240
    -3.8839  -3.8359  -3.7779  -3.7030  -3.6977  -3.6783  -3.5981  -3.5844
    -3.5422  -3.5255  -3.5016  -3.4918  -3.4805  -3.4748  -3.4209  -3.4033
    -3.3534  -3.3362  -3.3252  -3.3171  -3.2957  -3.2935  -3.2597  -3.2358
    -3.2150  -3.1732  -3.1441  -3.1162  -3.1095  -3.0889  -3.0887  -3.0762
    -3.0655  -3.0607  -2.9802  -2.9744  -2.9732  -2.9419  -2.8855  -2.8396
    -2.7912  -2.7762  -2.7701  -2.7656  -2.7115  -2.6812  -2.5734  -2.5682
    -2.4366  -2.4359  -2.4156  -2.4082  -1.5200  -1.5021  -1.5018  -1.4699
    -1.4402  -1.4317  -1.4242  -1.3730  -1.3515  -1.3428  -1.3138  -1.2606
    -0.9252  -0.9017  -0.7406  -0.7274  -0.6814  -0.6737  -0.6465  -0.6449
    -0.5951  -0.5936  -0.5859  -0.5647  -0.5639  -0.5340  -0.4850  -0.4827
    -0.4416  -0.4183  -0.4141  -0.3789  -0.3368  -0.3307  -0.2808  -0.2656
    -0.2254  -0.2135  -0.1529  -0.1402  -0.1380  -0.1249  -0.0502  -0.0285
    -0.0135  -0.0107   0.0798   0.0863   3.3239   3.3611   3.3712   3.4068
     3.6063   3.6708   3.7547   3.8102   4.5431   4.6374   4.6395   4.7583
     4.8601   4.9059   5.0006   5.0171   5.1595   5.1728   5.2578   5.2665
     6.2383   6.4623   6.5318   6.6809   6.7278   6.7806   6.7915   6.8169
     6.8550   6.8570   6.8872   6.9091   6.9434   7.0136   7.0905   7.1373
     7.1880   7.1953   7.2485   7.3726   7.4565   7.5492   7.5536   7.5701
     7.6225   7.6666   7.7557   7.8688   7.8790   7.9486   8.0238   8.0324
     8.1438   8.1497   8.2685

          k = 0.0000-0.5777 0.0000 (197726 PWs)   bands (ev):

   -21.2723 -21.2720 -21.2575 -21.2571 -21.2428 -21.2426 -21.2352 -21.2350
   -21.1527 -21.1525 -21.1444 -21.1442 -20.2147 -20.2134 -20.1569 -20.1559
   -20.1129 -20.1129 -20.0637 -20.0637 -19.0051 -19.0051 -18.9896 -18.9896
   -18.9267 -18.9264 -18.9217 -18.9214 -18.8408 -18.8405 -18.8351 -18.8347
   -17.7911 -17.7861 -17.7691 -17.7643 -17.5683 -17.5683 -17.5324 -17.5324
   -15.9079 -15.9079 -15.6929 -15.6929 -13.3884 -13.3882 -13.3447 -13.3444
   -13.2984 -13.2984 -13.2391 -13.2390 -12.2170 -12.2131 -12.0692 -12.0663
   -11.9079 -11.9070 -11.8548 -11.8540 -11.6343 -11.6320 -11.6044 -11.6024
   -11.3992 -11.3991 -11.3436 -11.3435 -10.4755 -10.4754 -10.4566 -10.4565
   -10.2776 -10.2770 -10.2555 -10.2551  -9.9749  -9.9742  -9.9668  -9.9661
    -8.5910  -8.5906  -8.5470  -8.5466  -8.2558  -8.2539  -8.1324  -8.1314
    -8.0249  -8.0240  -7.9477  -7.9464  -7.8453  -7.8443  -7.8007  -7.7995
    -7.2531  -7.2529  -7.2105  -7.2104  -6.8518  -6.8496  -6.7823  -6.7809
    -6.5516  -6.5506  -6.5160  -6.5154  -6.3820  -6.3819  -6.3425  -6.3423
    -6.2349  -6.2298  -6.1700  -6.1684  -6.1364  -6.1353  -5.9057  -5.9043
    -5.8839  -5.8835  -5.8240  -5.8226  -5.6954  -5.6946  -5.6092  -5.6082
    -5.5972  -5.5967  -5.5174  -5.5160  -5.4921  -5.4908  -5.4324  -5.4315
    -5.4032  -5.4030  -5.4001  -5.3996  -5.3735  -5.3733  -5.2830  -5.2826
    -5.2746  -5.2736  -5.2264  -5.2257  -5.1930  -5.1929  -4.9836  -4.9833
    -4.9096  -4.9095  -4.8107  -4.8105  -4.7569  -4.7567  -4.6271  -4.6271
    -4.6124  -4.6123  -4.5438  -4.5436  -4.4594  -4.4589  -4.4163  -4.4160
    -4.2775  -4.2751  -4.2399  -4.2371  -3.9656  -3.9639  -3.9289  -3.9253
    -3.8885  -3.8864  -3.7302  -3.7298  -3.6431  -3.6422  -3.6054  -3.6052
    -3.5282  -3.5276  -3.5165  -3.5160  -3.4272  -3.4272  -3.4160  -3.4152
    -3.3743  -3.3743  -3.2985  -3.2977  -3.2791  -3.2789  -3.2407  -3.2407
    -3.2180  -3.2166  -3.1602  -3.1587  -3.0979  -3.0970  -3.0700  -3.0690
    -3.0322  -3.0310  -2.9823  -2.9820  -2.9609  -2.9602  -2.7923  -2.7920
    -2.7613  -2.7610  -2.6463  -2.6459  -2.6262  -2.6261  -2.5858  -2.5854
    -2.4421  -2.4414  -2.4105  -2.4100  -1.5293  -1.5286  -1.4782  -1.4779
    -1.4553  -1.4551  -1.3825  -1.3821  -1.3508  -1.3501  -1.2458  -1.2453
    -0.9831  -0.9830  -0.7185  -0.7182  -0.7041  -0.7038  -0.6546  -0.6536
    -0.6433  -0.6425  -0.5645  -0.5643  -0.5564  -0.5562  -0.4714  -0.4712
    -0.4433  -0.4426  -0.3059  -0.3032  -0.2813  -0.2813  -0.2634  -0.2632
    -0.2151  -0.2140  -0.1532  -0.1532  -0.1335  -0.1322  -0.1163  -0.1146
    -0.0736  -0.0731   0.1386   0.1386   3.3859   3.3860   3.4815   3.4816
     3.5815   3.5815   3.6411   3.6413   4.5430   4.5431   4.7642   4.7644
     4.9364   4.9370   5.0206   5.0210   5.1652   5.1655   5.3603   5.3607
     5.9163   5.9165   6.3133   6.3142   6.5276   6.5278   6.7060   6.7062
     6.8152   6.8153   6.8841   6.8847   6.9031   6.9041   6.9584   6.9600
     7.1063   7.1076   7.3123   7.3128   7.5729   7.5749   7.7114   7.7123
     7.7926   7.7930   7.9199   7.9199   8.0055   8.0057   8.0934   8.0943
     8.1321   8.1325   8.2753

          k = 0.0000-0.5777 0.7677 (197706 PWs)   bands (ev):

   -21.2685 -21.2681 -21.2599 -21.2594 -21.2418 -21.2414 -21.2373 -21.2370
   -21.1527 -21.1525 -21.1448 -21.1445 -20.2005 -20.1993 -20.1712 -20.1701
   -20.1010 -20.1010 -20.0757 -20.0757 -19.0013 -19.0013 -18.9933 -18.9933
   -18.9256 -18.9253 -18.9229 -18.9226 -18.8402 -18.8397 -18.8362 -18.8357
   -17.8048 -17.7996 -17.7558 -17.7512 -17.5595 -17.5595 -17.5414 -17.5414
   -15.8570 -15.8570 -15.7497 -15.7497 -13.3597 -13.3593 -13.3353 -13.3347
   -13.3025 -13.3024 -13.2715 -13.2714 -12.1987 -12.1947 -12.0920 -12.0892
   -11.8960 -11.8944 -11.8631 -11.8617 -11.6332 -11.6279 -11.6088 -11.6037
   -11.3852 -11.3852 -11.3574 -11.3574 -10.4834 -10.4821 -10.4547 -10.4536
   -10.2817 -10.2814 -10.2465 -10.2457  -9.9730  -9.9721  -9.9677  -9.9669
    -8.5807  -8.5802  -8.5566  -8.5562  -8.2339  -8.2320  -8.1560  -8.1548
    -8.0227  -8.0218  -7.9635  -7.9621  -7.8434  -7.8422  -7.8047  -7.8033
    -7.2426  -7.2424  -7.2212  -7.2211  -6.8522  -6.8489  -6.7881  -6.7856
    -6.5471  -6.5464  -6.5300  -6.5291  -6.3671  -6.3667  -6.3426  -6.3425
    -6.1814  -6.1800  -6.1507  -6.1490  -6.1159  -6.1113  -5.8958  -5.8947
    -5.8445  -5.8430  -5.7436  -5.7433  -5.6737  -5.6728  -5.6265  -5.6255
    -5.5502  -5.5490  -5.5097  -5.5091  -5.4929  -5.4919  -5.4410  -5.4405
    -5.4097  -5.4095  -5.3975  -5.3972  -5.3489  -5.3485  -5.3323  -5.3320
    -5.2959  -5.2955  -5.2361  -5.2354  -5.1880  -5.1876  -4.9933  -4.9933
    -4.8902  -4.8900  -4.8070  -4.8068  -4.7617  -4.7614  -4.7136  -4.7133
    -4.6161  -4.6158  -4.5727  -4.5725  -4.4866  -4.4857  -4.3987  -4.3979
    -4.2399  -4.2370  -4.2240  -4.2207  -3.9766  -3.9739  -3.9266  -3.9233
    -3.8912  -3.8875  -3.7244  -3.7236  -3.6835  -3.6830  -3.5916  -3.5909
    -3.5392  -3.5391  -3.5040  -3.5032  -3.4902  -3.4891  -3.4136  -3.4126
    -3.3419  -3.3411  -3.3142  -3.3126  -3.2750  -3.2744  -3.2537  -3.2535
    -3.1811  -3.1809  -3.1241  -3.1234  -3.1113  -3.1110  -3.0879  -3.0871
    -3.0347  -3.0342  -2.9855  -2.9851  -2.9629  -2.9619  -2.8678  -2.8676
    -2.7942  -2.7935  -2.7785  -2.7776  -2.6320  -2.6314  -2.6000  -2.5995
    -2.4390  -2.4386  -2.4208  -2.4205  -1.5135  -1.5126  -1.4799  -1.4793
    -1.4348  -1.4346  -1.4104  -1.4100  -1.3448  -1.3438  -1.2804  -1.2795
    -0.9192  -0.9190  -0.7320  -0.7318  -0.6715  -0.6701  -0.6540  -0.6523
    -0.5867  -0.5851  -0.5752  -0.5724  -0.5548  -0.5532  -0.4816  -0.4812
    -0.4311  -0.4307  -0.3917  -0.3909  -0.3391  -0.3353  -0.2609  -0.2607
    -0.2398  -0.2389  -0.1456  -0.1455  -0.1302  -0.1300  -0.0425  -0.0409
    -0.0162  -0.0144   0.0837   0.0838   3.3366   3.3367   3.3951   3.3953
     3.6345   3.6345   3.7870   3.7871   4.5903   4.5905   4.6996   4.6997
     4.9014   4.9018   4.9879   4.9883   5.1629   5.1635   5.2628   5.2634
     6.3359   6.3367   6.6137   6.6146   6.7196   6.7202   6.8151   6.8154
     6.8617   6.8621   6.8807   6.8813   6.9446   6.9452   7.1719   7.1734
     7.2305   7.2310   7.3448   7.3451   7.4131   7.4157   7.4757   7.4767
     7.7216   7.7225   7.8344   7.8354   7.9939   7.9956   8.0615   8.0625
     8.1245   8.1250   8.2486

          k =-0.5000 0.0000-0.0063 (197868 PWs)   bands (ev):

   -21.2781 -21.2628 -21.2608 -21.2534 -21.2479 -21.2429 -21.2359 -21.2330
   -21.1545 -21.1487 -21.1456 -21.1448 -20.2149 -20.2133 -20.1569 -20.1559
   -20.1129 -20.1129 -20.0638 -20.0637 -19.0053 -19.0042 -18.9943 -18.9855
   -18.9266 -18.9263 -18.9227 -18.9206 -18.8402 -18.8401 -18.8389 -18.8318
   -17.7911 -17.7861 -17.7694 -17.7640 -17.5683 -17.5682 -17.5324 -17.5324
   -15.9106 -15.9055 -15.6954 -15.6902 -13.3993 -13.3736 -13.3500 -13.3440
   -13.2999 -13.2944 -13.2482 -13.2326 -12.2288 -12.1993 -12.0715 -12.0658
   -11.9231 -11.8899 -11.8574 -11.8543 -11.6379 -11.6271 -11.6205 -11.5862
   -11.3934 -11.3906 -11.3401 -11.3400 -10.5343 -10.4864 -10.4434 -10.4005
   -10.3364 -10.3002 -10.2500 -10.2245 -10.0169  -9.9865  -9.9494  -9.9141
    -8.6037  -8.6023  -8.5351  -8.5323  -8.2290  -8.2257  -8.1363  -8.1107
    -8.0975  -8.0288  -7.9781  -7.9562  -7.8494  -7.7899  -7.7859  -7.7789
    -7.2505  -7.2055  -7.1993  -7.1869  -6.8728  -6.8232  -6.7958  -6.7817
    -6.6604  -6.5771  -6.5617  -6.5548  -6.3970  -6.3365  -6.3166  -6.3010
    -6.2565  -6.2074  -6.2008  -6.1826  -6.1543  -6.1017  -5.9631  -5.9580
    -5.9249  -5.8160  -5.8089  -5.7846  -5.6655  -5.6564  -5.6350  -5.6279
    -5.6082  -5.5771  -5.5450  -5.4939  -5.4607  -5.4565  -5.4485  -5.4390
    -5.4245  -5.4178  -5.3965  -5.3949  -5.3790  -5.3712  -5.3612  -5.3443
    -5.3413  -5.2197  -5.2160  -5.1755  -5.1431  -5.1388  -4.9707  -4.9309
    -4.9159  -4.9097  -4.8550  -4.8188  -4.7556  -4.7095  -4.6498  -4.6249
    -4.6132  -4.5686  -4.5526  -4.5513  -4.4859  -4.4278  -4.4228  -4.3972
    -4.2623  -4.2559  -4.2487  -4.2470  -3.9974  -3.9746  -3.9693  -3.9111
    -3.8594  -3.8443  -3.8281  -3.7163  -3.6729  -3.6158  -3.6095  -3.5516
    -3.5372  -3.5034  -3.4935  -3.4519  -3.4516  -3.4153  -3.3789  -3.3742
    -3.3464  -3.3345  -3.3277  -3.3234  -3.3011  -3.2911  -3.2890  -3.2740
    -3.2656  -3.2424  -3.2277  -3.1950  -3.1064  -3.0755  -3.0709  -3.0352
    -3.0328  -3.0262  -2.9851  -2.9793  -2.9623  -2.9321  -2.8015  -2.7889
    -2.7650  -2.7581  -2.7159  -2.6804  -2.5966  -2.5863  -2.5785  -2.5590
    -2.4333  -2.4324  -2.4231  -2.4061  -1.5422  -1.4967  -1.4866  -1.4685
    -1.4514  -1.4472  -1.4392  -1.3685  -1.3431  -1.3290  -1.2786  -1.2264
    -1.0004  -0.9631  -0.7154  -0.7138  -0.7098  -0.6919  -0.6719  -0.6634
    -0.6342  -0.6329  -0.5976  -0.5683  -0.5622  -0.5442  -0.4776  -0.4659
    -0.4441  -0.4436  -0.3313  -0.2984  -0.2923  -0.2845  -0.2769  -0.2508
    -0.2102  -0.1840  -0.1760  -0.1482  -0.1311  -0.1276  -0.1129  -0.1006
    -0.0582  -0.0559   0.1311   0.1351   3.3798   3.3904   3.4505   3.5234
     3.5648   3.5864   3.6329   3.6524   4.5007   4.5793   4.7051   4.7987
     4.8872   5.0160   5.0400   5.0467   5.1277   5.1635   5.3570   5.3633
     5.8753   6.0321   6.0863   6.4882   6.5532   6.6669   6.6986   6.7076
     6.7121   6.7435   6.8078   6.8549   6.9114   6.9540   6.9625   7.0302
     7.0918   7.1288   7.2239   7.2986   7.5390   7.5649   7.6282   7.7391
     7.7669   7.9023   7.9061   7.9189   8.0373   8.0989   8.1484   8.1529
     8.1789   8.1863   8.2496

          k =-0.5000 0.0000 0.7614 (197802 PWs)   bands (ev):

   -21.2724 -21.2625 -21.2616 -21.2582 -21.2445 -21.2404 -21.2385 -21.2353
   -21.1539 -21.1514 -21.1447 -21.1444 -20.2006 -20.1992 -20.1712 -20.1700
   -20.1011 -20.1010 -20.0757 -20.0756 -19.0021 -18.9999 -18.9969 -18.9903
   -18.9257 -18.9252 -18.9236 -18.9219 -18.8408 -18.8397 -18.8375 -18.8337
   -17.8048 -17.7996 -17.7558 -17.7512 -17.5596 -17.5595 -17.5414 -17.5414
   -15.8597 -15.8545 -15.7522 -15.7471 -13.3712 -13.3442 -13.3432 -13.3323
   -13.3058 -13.2965 -13.2781 -13.2666 -12.2054 -12.1878 -12.0913 -12.0886
   -11.9086 -11.8769 -11.8752 -11.8571 -11.6388 -11.6300 -11.6106 -11.5928
   -11.3806 -11.3780 -11.3539 -11.3526 -10.5255 -10.5015 -10.4385 -10.4186
   -10.3237 -10.3055 -10.2366 -10.2221 -10.0031  -9.9874  -9.9465  -9.9297
    -8.6083  -8.6077  -8.5260  -8.5248  -8.2197  -8.2168  -8.1281  -8.1247
    -8.0780  -8.0407  -8.0193  -7.9861  -7.8472  -7.8159  -7.7607  -7.7564
    -7.2567  -7.2327  -7.1888  -7.1851  -6.8684  -6.8344  -6.8021  -6.7743
    -6.6381  -6.5980  -6.5633  -6.5593  -6.3817  -6.3529  -6.2977  -6.2920
    -6.2188  -6.2165  -6.1429  -6.1373  -6.1085  -6.0996  -5.9270  -5.9031
    -5.8665  -5.8525  -5.7611  -5.7184  -5.7041  -5.6369  -5.6164  -5.6153
    -5.5788  -5.5653  -5.5279  -5.5115  -5.4615  -5.4564  -5.4401  -5.4263
    -5.4193  -5.3990  -5.3947  -5.3757  -5.3592  -5.3532  -5.3435  -5.3151
    -5.3001  -5.2788  -5.2470  -5.2408  -5.1662  -5.1301  -5.0015  -4.9829
    -4.9003  -4.8756  -4.8700  -4.8049  -4.7992  -4.7653  -4.7063  -4.6954
    -4.6451  -4.6054  -4.5722  -4.5295  -4.4511  -4.4229  -4.3934  -4.3662
    -4.2833  -4.2690  -4.2244  -4.2098  -4.0072  -3.9644  -3.9469  -3.9196
    -3.8895  -3.8349  -3.7838  -3.7016  -3.7007  -3.6779  -3.5872  -3.5846
    -3.5479  -3.5345  -3.5205  -3.4794  -3.4774  -3.4681  -3.3919  -3.3901
    -3.3410  -3.3389  -3.3378  -3.2986  -3.2749  -3.2711  -3.2545  -3.2508
    -3.2301  -3.2202  -3.1493  -3.1459  -3.1270  -3.1069  -3.0847  -3.0829
    -3.0321  -3.0134  -2.9959  -2.9853  -2.9641  -2.9561  -2.8741  -2.8435
    -2.7903  -2.7831  -2.7813  -2.7602  -2.6985  -2.6831  -2.5739  -2.5613
    -2.4464  -2.4443  -2.4087  -2.4003  -1.5194  -1.5037  -1.5017  -1.4635
    -1.4419  -1.4381  -1.4269  -1.3728  -1.3452  -1.3443  -1.3136  -1.2603
    -0.9277  -0.8995  -0.7410  -0.7266  -0.6774  -0.6731  -0.6564  -0.6548
    -0.5925  -0.5892  -0.5724  -0.5659  -0.5602  -0.5329  -0.5027  -0.4734
    -0.4368  -0.4232  -0.3982  -0.3882  -0.3397  -0.3320  -0.2758  -0.2531
    -0.2382  -0.2379  -0.1467  -0.1374  -0.1295  -0.1248  -0.0521  -0.0233
    -0.0161  -0.0119   0.0803   0.0859   3.3247   3.3601   3.3710   3.4067
     3.6077   3.6694   3.7541   3.8111   4.5389   4.6418   4.6450   4.7516
     4.8598   4.9028   5.0147   5.0180   5.1508   5.1715   5.2569   5.2680
     6.2873   6.4112   6.4822   6.7047   6.7236   6.7847   6.7960   6.8264
     6.8656   6.8661   6.8816   6.9307   6.9551   6.9784   7.0782   7.1304
     7.1969   7.2064   7.2648   7.3825   7.4074   7.4334   7.5505   7.5654
     7.6719   7.6921   7.8330   7.8448   7.9207   7.9265   8.0371   8.0563
     8.1220   8.2403   8.2464

          k =-0.5000-0.5777-0.0063 (197820 PWs)   bands (ev):

   -21.2722 -21.2718 -21.2576 -21.2572 -21.2432 -21.2429 -21.2350 -21.2346
   -21.1527 -21.1525 -21.1445 -21.1442 -20.2147 -20.2134 -20.1569 -20.1559
   -20.1129 -20.1129 -20.0637 -20.0637 -19.0051 -19.0051 -18.9896 -18.9896
   -18.9266 -18.9264 -18.9217 -18.9214 -18.8408 -18.8405 -18.8351 -18.8347
   -17.7911 -17.7861 -17.7691 -17.7643 -17.5683 -17.5683 -17.5324 -17.5324
   -15.9079 -15.9079 -15.6929 -15.6929 -13.3884 -13.3882 -13.3447 -13.3444
   -13.2984 -13.2984 -13.2391 -13.2390 -12.2171 -12.2132 -12.0692 -12.0663
   -11.9078 -11.9069 -11.8547 -11.8540 -11.6344 -11.6320 -11.6042 -11.6021
   -11.3992 -11.3992 -11.3436 -11.3435 -10.4752 -10.4751 -10.4557 -10.4557
   -10.2794 -10.2788 -10.2567 -10.2563  -9.9735  -9.9733  -9.9658  -9.9658
    -8.5903  -8.5898  -8.5474  -8.5470  -8.2520  -8.2501  -8.1400  -8.1390
    -8.0238  -8.0228  -7.9486  -7.9473  -7.8354  -7.8348  -7.8083  -7.8073
    -7.2503  -7.2501  -7.2114  -7.2114  -6.8522  -6.8501  -6.7817  -6.7803
    -6.5514  -6.5512  -6.5193  -6.5193  -6.3724  -6.3722  -6.3315  -6.3315
    -6.2324  -6.2271  -6.1835  -6.1823  -6.1474  -6.1462  -5.9448  -5.9446
    -5.8756  -5.8750  -5.7974  -5.7963  -5.6855  -5.6845  -5.6084  -5.6079
    -5.5866  -5.5848  -5.5037  -5.5026  -5.4716  -5.4713  -5.4366  -5.4355
    -5.4174  -5.4168  -5.4058  -5.4055  -5.3714  -5.3712  -5.3365  -5.3362
    -5.2849  -5.2848  -5.2164  -5.2162  -5.1703  -5.1699  -4.9758  -4.9758
    -4.9085  -4.9083  -4.8084  -4.8083  -4.7474  -4.7471  -4.6453  -4.6451
    -4.5892  -4.5891  -4.5548  -4.5548  -4.4609  -4.4603  -4.4327  -4.4326
    -4.2703  -4.2672  -4.2322  -4.2292  -3.9726  -3.9708  -3.9373  -3.9336
    -3.8828  -3.8806  -3.7326  -3.7321  -3.6430  -3.6419  -3.6089  -3.6085
    -3.5352  -3.5343  -3.4948  -3.4942  -3.4418  -3.4415  -3.3934  -3.3931
    -3.3330  -3.3326  -3.3038  -3.3027  -3.2932  -3.2929  -3.2686  -3.2685
    -3.2106  -3.2098  -3.2002  -3.2001  -3.0950  -3.0941  -3.0603  -3.0601
    -3.0302  -3.0300  -2.9819  -2.9816  -2.9379  -2.9375  -2.8124  -2.8119
    -2.7746  -2.7736  -2.6303  -2.6303  -2.6132  -2.6130  -2.5770  -2.5764
    -2.4502  -2.4498  -2.4175  -2.4172  -1.5281  -1.5274  -1.4770  -1.4767
    -1.4578  -1.4577  -1.3802  -1.3797  -1.3533  -1.3526  -1.2449  -1.2444
    -0.9834  -0.9834  -0.7188  -0.7186  -0.6972  -0.6970  -0.6576  -0.6563
    -0.6460  -0.6451  -0.5714  -0.5685  -0.5598  -0.5569  -0.4688  -0.4687
    -0.4421  -0.4417  -0.3031  -0.3009  -0.2751  -0.2748  -0.2570  -0.2566
    -0.2307  -0.2295  -0.1502  -0.1501  -0.1392  -0.1373  -0.1102  -0.1092
    -0.0737  -0.0730   0.1383   0.1384   3.3859   3.3859   3.4820   3.4821
     3.5812   3.5813   3.6410   3.6412   4.5436   4.5438   4.7518   4.7518
     4.9560   4.9567   5.0296   5.0301   5.1476   5.1478   5.3602   5.3604
     5.9571   5.9571   6.2084   6.2100   6.6080   6.6083   6.7079   6.7085
     6.7865   6.7872   6.8627   6.8636   6.8973   6.8980   6.9779   6.9786
     7.1342   7.1353   7.3335   7.3336   7.5303   7.5310   7.7019   7.7023
     7.8372   7.8373   7.8801   7.8806   7.9830   7.9839   8.0780   8.0789
     8.1936   8.1937   8.2694

          k =-0.5000-0.5777 0.7614 (197808 PWs)   bands (ev):

   -21.2685 -21.2680 -21.2599 -21.2594 -21.2423 -21.2417 -21.2370 -21.2365
   -21.1526 -21.1524 -21.1448 -21.1445 -20.2005 -20.1993 -20.1712 -20.1701
   -20.1011 -20.1010 -20.0757 -20.0757 -19.0013 -19.0013 -18.9933 -18.9933
   -18.9256 -18.9253 -18.9229 -18.9226 -18.8401 -18.8397 -18.8362 -18.8357
   -17.8048 -17.7996 -17.7558 -17.7512 -17.5595 -17.5595 -17.5414 -17.5414
   -15.8570 -15.8570 -15.7497 -15.7497 -13.3597 -13.3593 -13.3353 -13.3347
   -13.3025 -13.3024 -13.2715 -13.2714 -12.1987 -12.1947 -12.0918 -12.0890
   -11.8960 -11.8944 -11.8632 -11.8619 -11.6331 -11.6278 -11.6088 -11.6038
   -11.3853 -11.3852 -11.3574 -11.3573 -10.4839 -10.4826 -10.4548 -10.4536
   -10.2803 -10.2800 -10.2464 -10.2456  -9.9744  -9.9734  -9.9674  -9.9663
    -8.5801  -8.5795  -8.5581  -8.5576  -8.2291  -8.2272  -8.1538  -8.1527
    -8.0293  -8.0286  -7.9738  -7.9726  -7.8387  -7.8375  -7.7967  -7.7951
    -7.2429  -7.2427  -7.2232  -7.2231  -6.8521  -6.8488  -6.7863  -6.7838
    -6.5497  -6.5482  -6.5282  -6.5266  -6.3693  -6.3688  -6.3488  -6.3480
    -6.1750  -6.1740  -6.1506  -6.1492  -6.1040  -6.1001  -5.9062  -5.9046
    -5.8527  -5.8509  -5.7455  -5.7454  -5.6718  -5.6709  -5.6202  -5.6196
    -5.5531  -5.5524  -5.5176  -5.5171  -5.4968  -5.4955  -5.4417  -5.4414
    -5.4146  -5.4144  -5.3988  -5.3986  -5.3364  -5.3362  -5.3046  -5.3043
    -5.2925  -5.2922  -5.2308  -5.2302  -5.2129  -5.2123  -4.9928  -4.9927
    -4.8843  -4.8842  -4.8056  -4.8056  -4.7590  -4.7587  -4.7273  -4.7271
    -4.6339  -4.6336  -4.5435  -4.5432  -4.4751  -4.4743  -4.4195  -4.4187
    -4.2498  -4.2471  -4.2158  -4.2125  -3.9785  -3.9761  -3.9240  -3.9209
    -3.8887  -3.8851  -3.7329  -3.7322  -3.6870  -3.6865  -3.5902  -3.5897
    -3.5456  -3.5450  -3.5206  -3.5199  -3.4740  -3.4727  -3.3758  -3.3750
    -3.3570  -3.3567  -3.2972  -3.2968  -3.2679  -3.2677  -3.2511  -3.2506
    -3.1906  -3.1891  -3.1524  -3.1518  -3.1176  -3.1173  -3.0835  -3.0824
    -3.0284  -3.0278  -2.9817  -2.9817  -2.9691  -2.9685  -2.8657  -2.8655
    -2.7935  -2.7927  -2.7712  -2.7704  -2.6359  -2.6355  -2.6116  -2.6111
    -2.4331  -2.4325  -2.4182  -2.4177  -1.5137  -1.5128  -1.4791  -1.4786
    -1.4383  -1.4381  -1.4069  -1.4062  -1.3462  -1.3451  -1.2800  -1.2791
    -0.9192  -0.9191  -0.7331  -0.7328  -0.6679  -0.6666  -0.6593  -0.6577
    -0.5889  -0.5873  -0.5692  -0.5667  -0.5516  -0.5500  -0.4832  -0.4830
    -0.4333  -0.4331  -0.3899  -0.3893  -0.3372  -0.3333  -0.2588  -0.2585
    -0.2482  -0.2480  -0.1437  -0.1436  -0.1297  -0.1296  -0.0430  -0.0416
    -0.0149  -0.0131   0.0838   0.0840   3.3360   3.3361   3.3956   3.3957
     3.6349   3.6350   3.7865   3.7867   4.5925   4.5927   4.6964   4.6966
     4.9027   4.9031   4.9912   4.9916   5.1598   5.1602   5.2631   5.2635
     6.3599   6.3607   6.5578   6.5592   6.7274   6.7279   6.8273   6.8277
     6.8565   6.8572   6.8846   6.8851   6.9595   6.9603   7.1694   7.1705
     7.2261   7.2276   7.3337   7.3343   7.3879   7.3895   7.5098   7.5108
     7.7259   7.7271   7.8215   7.8227   7.9858   7.9864   8.0342   8.0352
     8.1773   8.1776   8.2489

     highest occupied, lowest unoccupied level (ev):     0.1386    3.3239

!    total energy              =   -2761.15868016 Ry
     Harris-Foulkes estimate   =   -2761.15868016 Ry
     estimated scf accuracy    <          1.3E-09 Ry

     total all-electron energy =    -10360.495385 Ry

     The total energy is the sum of the following terms:

     one-electron contribution =   -1579.81804043 Ry
     hartree contribution      =     998.88871790 Ry
     xc contribution           =    -586.24835219 Ry
     ewald contribution        =    -823.44217563 Ry
     Dispersion Correction     =      -0.76168644 Ry
     one-center paw contrib.   =    -769.77714337 Ry

     convergence has been achieved in  19 iterations

     Forces acting on atoms (cartesian axes, Ry/au):

     atom    1 type  1   force =     0.00025773    0.00119336    0.00006954
     atom    2 type  1   force =    -0.00033819    0.00132444   -0.00000157
     atom    3 type  1   force =    -0.00025773   -0.00119336   -0.00006954
     atom    4 type  1   force =     0.00033819   -0.00132444    0.00000157
     atom    5 type  1   force =    -0.00288636    0.00112563    0.00077122
     atom    6 type  1   force =     0.00290810    0.00107385   -0.00080671
     atom    7 type  1   force =     0.00288636   -0.00112563   -0.00077122
     atom    8 type  1   force =    -0.00290810   -0.00107385    0.00080671
     atom    9 type  3   force =    -0.00067139    0.00013333   -0.00007223
     atom   10 type  3   force =     0.00069439    0.00020324    0.00004879
     atom   11 type  3   force =     0.00067139   -0.00013333    0.00007223
     atom   12 type  3   force =    -0.00069439   -0.00020324   -0.00004879
     atom   13 type  1   force =    -0.00308266   -0.00030858   -0.00010038
     atom   14 type  1   force =     0.00305239   -0.00002496    0.00005083
     atom   15 type  1   force =     0.00308266    0.00030858    0.00010038
     atom   16 type  1   force =    -0.00305239    0.00002496   -0.00005083
     atom   17 type  1   force =     0.00053659    0.00317857   -0.00024031
     atom   18 type  1   force =    -0.00048178    0.00316379    0.00021311
     atom   19 type  1   force =    -0.00053659   -0.00317857    0.00024031
     atom   20 type  1   force =     0.00048178   -0.00316379   -0.00021311
     atom   21 type  3   force =    -0.00009901    0.00001322   -0.00013696
     atom   22 type  3   force =     0.00009476    0.00005292    0.00015903
     atom   23 type  3   force =     0.00009901   -0.00001322    0.00013696
     atom   24 type  3   force =    -0.00009476   -0.00005292   -0.00015903
     atom   25 type  1   force =     0.00266208    0.00018448    0.00029595
     atom   26 type  1   force =    -0.00265462    0.00030926   -0.00028732
     atom   27 type  1   force =    -0.00266208   -0.00018448   -0.00029595
     atom   28 type  1   force =     0.00265462   -0.00030926    0.00028732
     atom   29 type  1   force =     0.00252268    0.00093559   -0.00145031
     atom   30 type  1   force =    -0.00239435    0.00072061    0.00141336
     atom   31 type  1   force =    -0.00252268   -0.00093559    0.00145031
     atom   32 type  1   force =     0.00239435   -0.00072061   -0.00141336
     atom   33 type  3   force =    -0.00000477   -0.00021838    0.00046870
     atom   34 type  3   force =    -0.00002584   -0.00018503   -0.00047548
     atom   35 type  3   force =     0.00000477    0.00021838   -0.00046870
     atom   36 type  3   force =     0.00002584    0.00018503    0.00047548
     atom   37 type  1   force =     0.00073088   -0.00318301    0.00032124
     atom   38 type  1   force =    -0.00032703   -0.00284469   -0.00069565
     atom   39 type  1   force =    -0.00073088    0.00318301   -0.00032124
     atom   40 type  1   force =     0.00032703    0.00284469    0.00069565
     atom   41 type  4   force =    -0.00155615    0.00102691    0.00101495
     atom   42 type  4   force =     0.00113730    0.00074458   -0.00071274
     atom   43 type  4   force =     0.00155615   -0.00102691   -0.00101495
     atom   44 type  4   force =    -0.00113730   -0.00074458    0.00071274
     atom   45 type  4   force =    -0.00024741    0.00051080   -0.00140228
     atom   46 type  4   force =     0.00022590    0.00045989    0.00147384
     atom   47 type  4   force =     0.00024741   -0.00051080    0.00140228
     atom   48 type  4   force =    -0.00022590   -0.00045989   -0.00147384
     atom   49 type  3   force =    -0.00023163    0.00016427   -0.00003913
     atom   50 type  3   force =     0.00020698    0.00028276    0.00001792
     atom   51 type  3   force =     0.00023163   -0.00016427    0.00003913
     atom   52 type  3   force =    -0.00020698   -0.00028276   -0.00001792
     atom   53 type  1   force =     0.00046061    0.00026059    0.00042796
     atom   54 type  1   force =    -0.00043405   -0.00002360   -0.00020297
     atom   55 type  1   force =    -0.00046061   -0.00026059   -0.00042796
     atom   56 type  1   force =     0.00043405    0.00002360    0.00020297
     atom   57 type  4   force =    -0.00008560    0.00035435   -0.00043183
     atom   58 type  4   force =     0.00015963    0.00047516    0.00031885
     atom   59 type  4   force =     0.00008560   -0.00035435    0.00043183
     atom   60 type  4   force =    -0.00015963   -0.00047516   -0.00031885
     atom   61 type  3   force =     0.00054176   -0.00084070   -0.00052748
     atom   62 type  3   force =    -0.00060369   -0.00093886    0.00056572
     atom   63 type  3   force =    -0.00054176    0.00084070    0.00052748
     atom   64 type  3   force =     0.00060369    0.00093886   -0.00056572
     atom   65 type  4   force =    -0.00088609    0.00052582   -0.00055505
     atom   66 type  4   force =     0.00087474    0.00093089    0.00046491
     atom   67 type  4   force =     0.00088609   -0.00052582    0.00055505
     atom   68 type  4   force =    -0.00087474   -0.00093089   -0.00046491
     atom   69 type  1   force =    -0.00001646   -0.00030784    0.00016498
     atom   70 type  1   force =    -0.00043647   -0.00056049   -0.00006817
     atom   71 type  1   force =     0.00001646    0.00030784   -0.00016498
     atom   72 type  1   force =     0.00043647    0.00056049    0.00006817
     atom   73 type  4   force =     0.00116505   -0.00024203    0.00004549
     atom   74 type  4   force =    -0.00109397   -0.00025511   -0.00005249
     atom   75 type  4   force =    -0.00116505    0.00024203   -0.00004549
     atom   76 type  4   force =     0.00109397    0.00025511    0.00005249
     atom   77 type  3   force =    -0.00070083   -0.00020207    0.00043932
     atom   78 type  3   force =     0.00055307   -0.00021111   -0.00037613
     atom   79 type  3   force =     0.00070083    0.00020207   -0.00043932
     atom   80 type  3   force =    -0.00055307    0.00021111    0.00037613
     atom   81 type  4   force =     0.00068740   -0.00018831    0.00017699
     atom   82 type  4   force =    -0.00025692    0.00003447   -0.00030895
     atom   83 type  4   force =    -0.00068740    0.00018831   -0.00017699
     atom   84 type  4   force =     0.00025692   -0.00003447    0.00030895
     atom   85 type  4   force =    -0.00149015    0.00191732   -0.00042110
     atom   86 type  4   force =     0.00165852    0.00207730    0.00038938
     atom   87 type  4   force =     0.00149015   -0.00191732    0.00042110
     atom   88 type  4   force =    -0.00165852   -0.00207730   -0.00038938
     atom   89 type  1   force =     0.00159568   -0.00124833    0.00031580
     atom   90 type  1   force =    -0.00168109   -0.00162049   -0.00027167
     atom   91 type  1   force =    -0.00159568    0.00124833   -0.00031580
     atom   92 type  1   force =     0.00168109    0.00162049    0.00027167
     atom   93 type  3   force =    -0.00070963    0.00016501   -0.00005223
     atom   94 type  3   force =     0.00072460    0.00015803    0.00004744
     atom   95 type  3   force =     0.00070963   -0.00016501    0.00005223
     atom   96 type  3   force =    -0.00072460   -0.00015803   -0.00004744
     atom   97 type  2   force =     0.00005766    0.00011365   -0.00004062
     atom   98 type  2   force =    -0.00010501    0.00040968   -0.00002016
     atom   99 type  2   force =    -0.00005766   -0.00011365    0.00004062
     atom  100 type  2   force =     0.00010501   -0.00040968    0.00002016
     atom  101 type  1   force =     0.00033259   -0.00026896   -0.00021457
     atom  102 type  1   force =    -0.00031626   -0.00037325    0.00023483
     atom  103 type  1   force =    -0.00033259    0.00026896    0.00021457
     atom  104 type  1   force =     0.00031626    0.00037325   -0.00023483
     atom  105 type  3   force =    -0.00007569   -0.00015577    0.00026361
     atom  106 type  3   force =     0.00005641   -0.00016768   -0.00026278
     atom  107 type  3   force =     0.00007569    0.00015577   -0.00026361
     atom  108 type  3   force =    -0.00005641    0.00016768    0.00026278
     atom  109 type  3   force =     0.00064366    0.00000070    0.00059665
     atom  110 type  3   force =    -0.00062242   -0.00002249   -0.00060230
     atom  111 type  3   force =    -0.00064366   -0.00000070   -0.00059665
     atom  112 type  3   force =     0.00062242    0.00002249    0.00060230
     atom  113 type  3   force =    -0.00021325    0.00015378    0.00003401
     atom  114 type  3   force =     0.00024496    0.00014802   -0.00001694
     atom  115 type  3   force =     0.00021325   -0.00015378   -0.00003401
     atom  116 type  3   force =    -0.00024496   -0.00014802    0.00001694
     atom  117 type  1   force =     0.00023273    0.00003656    0.00053625
     atom  118 type  1   force =    -0.00022583   -0.00013059   -0.00051578
     atom  119 type  1   force =    -0.00023273   -0.00003656   -0.00053625
     atom  120 type  1   force =     0.00022583    0.00013059    0.00051578
     atom  121 type  3   force =     0.00027844   -0.00014271   -0.00015974
     atom  122 type  3   force =    -0.00024069   -0.00022490    0.00013860
     atom  123 type  3   force =    -0.00027844    0.00014271    0.00015974
     atom  124 type  3   force =     0.00024069    0.00022490   -0.00013860
     atom  125 type  3   force =     0.00003618   -0.00013098    0.00004399
     atom  126 type  3   force =    -0.00008872   -0.00019227   -0.00002765
     atom  127 type  3   force =    -0.00003618    0.00013098   -0.00004399
     atom  128 type  3   force =     0.00008872    0.00019227    0.00002765
     atom  129 type  3   force =    -0.00004163    0.00035798   -0.00031329
     atom  130 type  3   force =     0.00005423    0.00027334    0.00033066
     atom  131 type  3   force =     0.00004163   -0.00035798    0.00031329
     atom  132 type  3   force =    -0.00005423   -0.00027334   -0.00033066
     atom  133 type  4   force =     0.00067018   -0.00085664    0.00000623
     atom  134 type  4   force =    -0.00066019   -0.00119705    0.00008189
     atom  135 type  4   force =    -0.00067018    0.00085664   -0.00000623
     atom  136 type  4   force =     0.00066019    0.00119705   -0.00008189
     atom  137 type  1   force =     0.00143027    0.00084958    0.00112382
     atom  138 type  1   force =    -0.00032015    0.00206714   -0.00162306
     atom  139 type  1   force =    -0.00143027   -0.00084958   -0.00112382
     atom  140 type  1   force =     0.00032015   -0.00206714    0.00162306
     atom  141 type  3   force =    -0.00045004   -0.00007168    0.00030316
     atom  142 type  3   force =     0.00016330   -0.00006759   -0.00027355
     atom  143 type  3   force =     0.00045004    0.00007168   -0.00030316
     atom  144 type  3   force =    -0.00016330    0.00006759    0.00027355
     atom  145 type  2   force =    -0.00012120    0.00072105   -0.00008031
     atom  146 type  2   force =    -0.00101403   -0.00040370    0.00056445
     atom  147 type  2   force =     0.00012120   -0.00072105    0.00008031
     atom  148 type  2   force =     0.00101403    0.00040370   -0.00056445
     atom  149 type  1   force =     0.00072961   -0.00029216   -0.00012459
     atom  150 type  1   force =    -0.00053920   -0.00003555    0.00007043
     atom  151 type  1   force =    -0.00072961    0.00029216    0.00012459
     atom  152 type  1   force =     0.00053920    0.00003555   -0.00007043
     atom  153 type  3   force =    -0.00012913   -0.00005361   -0.00009914
     atom  154 type  3   force =     0.00015229   -0.00010766    0.00009193
     atom  155 type  3   force =     0.00012913    0.00005361    0.00009914
     atom  156 type  3   force =    -0.00015229    0.00010766   -0.00009193
     atom  157 type  3   force =     0.00023733   -0.00018321   -0.00039274
     atom  158 type  3   force =    -0.00020080   -0.00027024    0.00045523
     atom  159 type  3   force =    -0.00023733    0.00018321    0.00039274
     atom  160 type  3   force =     0.00020080    0.00027024   -0.00045523
     atom  161 type  3   force =    -0.00022669    0.00011913   -0.00015795
     atom  162 type  3   force =     0.00019426    0.00002427    0.00016777
     atom  163 type  3   force =     0.00022669   -0.00011913    0.00015795
     atom  164 type  3   force =    -0.00019426   -0.00002427   -0.00016777
     atom  165 type  1   force =     0.00047500   -0.00055699   -0.00056093
     atom  166 type  1   force =    -0.00019259   -0.00042278    0.00048406
     atom  167 type  1   force =    -0.00047500    0.00055699    0.00056093
     atom  168 type  1   force =     0.00019259    0.00042278   -0.00048406
     atom  169 type  3   force =    -0.00037850   -0.00003218   -0.00014492
     atom  170 type  3   force =     0.00027762   -0.00009966    0.00015634
     atom  171 type  3   force =     0.00037850    0.00003218    0.00014492
     atom  172 type  3   force =    -0.00027762    0.00009966   -0.00015634
     atom  173 type  3   force =     0.00025447    0.00012196   -0.00034373
     atom  174 type  3   force =    -0.00030354    0.00012915    0.00039255
     atom  175 type  3   force =    -0.00025447   -0.00012196    0.00034373
     atom  176 type  3   force =     0.00030354   -0.00012915   -0.00039255
     atom  177 type  3   force =    -0.00004516   -0.00001222   -0.00005183
     atom  178 type  3   force =    -0.00001443   -0.00002478    0.00000778
     atom  179 type  3   force =     0.00004516    0.00001222    0.00005183
     atom  180 type  3   force =     0.00001443    0.00002478   -0.00000778

     Total force =     0.019465     Total SCF correction =     0.000071


     Computing stress (Cartesian axis) and pressure

          total   stress  (Ry/bohr**3)                   (kbar)     P=   -3.70
  -0.00003366  -0.00000034   0.00000117         -4.95     -0.05      0.17
  -0.00000034  -0.00001200   0.00000002         -0.05     -1.77      0.00
   0.00000117   0.00000002  -0.00002984          0.17      0.00     -4.39


     Writing output data file scf.save
 
     init_run     :    229.60s CPU    234.25s WALL (       1 calls)
     electrons    :   9955.42s CPU  10197.01s WALL (       1 calls)
     forces       :    107.39s CPU    107.95s WALL (       1 calls)
     stress       :    564.01s CPU    565.07s WALL (       1 calls)

     Called by init_run:
     wfcinit      :    210.08s CPU    214.44s WALL (       1 calls)
     potinit      :      6.63s CPU      6.67s WALL (       1 calls)

     Called by electrons:
     c_bands      :   9020.11s CPU   9224.78s WALL (      19 calls)
     sum_band     :    901.53s CPU    934.56s WALL (      19 calls)
     v_of_rho     :      5.31s CPU      5.72s WALL (      20 calls)
     newd         :     15.48s CPU     18.97s WALL (      20 calls)
     PAW_pot      :     11.78s CPU     11.79s WALL (      20 calls)
     mix_rho      :      1.31s CPU      1.39s WALL (      19 calls)

     Called by c_bands:
     init_us_2    :     28.82s CPU     28.95s WALL (     328 calls)
     cegterg      :   8898.69s CPU   9102.93s WALL (     152 calls)

     Called by sum_band:
     sum_band:bec :      0.39s CPU      0.39s WALL (     152 calls)
     addusdens    :     15.44s CPU     18.94s WALL (      19 calls)

     Called by *egterg:
     h_psi        :   4602.84s CPU   4758.97s WALL (     716 calls)
     s_psi        :   1165.88s CPU   1166.09s WALL (     716 calls)
     g_psi        :     14.27s CPU     14.28s WALL (     556 calls)
     cdiaghg      :    482.49s CPU    482.57s WALL (     708 calls)

     Called by h_psi:
     h_psi:pot    :   4581.03s CPU   4736.81s WALL (     716 calls)
     h_psi:calbec :   1154.55s CPU   1155.82s WALL (     716 calls)
     vloc_psi     :   2265.37s CPU   2419.68s WALL (     716 calls)
     add_vuspsi   :   1161.10s CPU   1161.31s WALL (     716 calls)

     General routines
     calbec       :   1678.46s CPU   1680.18s WALL (     908 calls)
     fft          :     11.52s CPU     12.23s WALL (     284 calls)
     fftw         :   2340.76s CPU   2523.40s WALL (  333076 calls)
 
     Parallel routines
     fft_scatter  :    533.98s CPU    716.82s WALL (  333360 calls)
 
     PWSCF        :     3h 1m CPU        3h 7m WALL

 
   This run was terminated on:  11:21:24  15Dec2017            

=------------------------------------------------------------------------------=
   JOB DONE.
=------------------------------------------------------------------------------=
