
     Program PWSCF v.6.1 (svn rev. 13369) starts on  4Nov2017 at  5:37:14 

     This program is part of the open-source Quantum ESPRESSO suite
     for quantum simulation of materials; please cite
         "P. Giannozzi et al., J. Phys.:Condens. Matter 21 395502 (2009);
          URL http://www.quantum-espresso.org", 
     in publications or presentations arising from this work. More details at
     http://www.quantum-espresso.org/quote

     Parallel version (MPI), running on     8 processors
     R & G space division:  proc/nbgrp/npool/nimage =       8
     Waiting for input...
     Reading input from standard input

     Current dimensions of program PWSCF are:
     Max number of different atomic species (ntypx) = 10
     Max number of k-points (npk) =  40000
     Max angular momentum in pseudopotentials (lmaxx) =  3
               file C.pbe-n-kjpaw_psl.0.1.UPF: wavefunction(s)  2P renormalized
               file N.pbe-n-kjpaw_psl.0.1.UPF: wavefunction(s)  2P renormalized
               file H.pbe-kjpaw_psl.0.1.UPF: wavefunction(s)  1S renormalized
               file O.pbe-n-kjpaw_psl.0.1.UPF: wavefunction(s)  2P renormalized

     -------------------------------------
     Parameters for Dispersion Correction:
     -------------------------------------
       atom      VdW radius       C_6     

        C          2.744         60.710
        N          2.640         42.670
        H          1.892          4.857
        O          2.536         24.284

     Subspace diagonalization in iterative solution of the eigenvalue problem:
     a serial algorithm will be used

 
     Parallelization info
     --------------------
     sticks:   dense  smooth     PW     G-vecs:    dense   smooth      PW
     Min         921     921    244                94002    94002   12861
     Max         922     922    245                94004    94004   12866
     Sum        7371    7371   1955               752025   752025  102907
 


     bravais-lattice index     =            0
     lattice parameter (alat)  =      18.1826  a.u.
     unit-cell volume          =    5566.0793 (a.u.)^3
     number of atoms/cell      =          100
     number of atomic types    =            4
     number of electrons       =       280.00
     number of Kohn-Sham states=          168
     kinetic-energy cutoff     =     100.0000  Ry
     charge density cutoff     =     400.0000  Ry
     convergence threshold     =      1.0E-08
     mixing beta               =       0.5000
     number of iterations used =            8  plain     mixing
     Exchange-correlation      =  SLA  PW   PBX  PBC ( 1  4  3  4 0 0)

     celldm(1)=  18.182567  celldm(2)=   0.000000  celldm(3)=   0.000000
     celldm(4)=   0.000000  celldm(5)=   0.000000  celldm(6)=   0.000000

     crystal axes: (cart. coord. in units of alat)
               a(1) = (   1.000000   0.000000   0.000000 )  
               a(2) = (   0.000000   0.699776   0.000000 )  
               a(3) = (  -0.463170   0.000000   1.323199 )  

     reciprocal axes: (cart. coord. in units 2 pi/alat)
               b(1) = (  1.000000  0.000000  0.350038 )  
               b(2) = (  0.000000  1.429030  0.000000 )  
               b(3) = (  0.000000  0.000000  0.755744 )  


     PseudoPot. # 1 for  C read from file:
     /scratch/ahofstet/pseudo/C.pbe-n-kjpaw_psl.0.1.UPF
     MD5 check sum: 430fe95172b1e11ef3f8ed03bac87931
     Pseudo is Projector augmented-wave + core cor, Zval =  4.0
     Generated using "atomic" code by A. Dal Corso  v.5.0.99 svn rev. 10869
     Shape of augmentation charge: BESSEL
     Using radial grid of 1073 points,  4 beta functions with: 
                l(1) =   0
                l(2) =   0
                l(3) =   1
                l(4) =   1
     Q(r) pseudized with 0 coefficients 


     PseudoPot. # 2 for  N read from file:
     /scratch/ahofstet/pseudo/N.pbe-n-kjpaw_psl.0.1.UPF
     MD5 check sum: f73187c8b701007e77325f868c9291d7
     Pseudo is Projector augmented-wave + core cor, Zval =  5.0
     Generated using "atomic" code by A. Dal Corso  v.5.0.99 svn rev. 10869
     Shape of augmentation charge: PSQ
     Using radial grid of 1085 points,  4 beta functions with: 
                l(1) =   0
                l(2) =   0
                l(3) =   1
                l(4) =   1
     Q(r) pseudized with 0 coefficients 


     PseudoPot. # 3 for  H read from file:
     /scratch/ahofstet/pseudo/H.pbe-kjpaw_psl.0.1.UPF
     MD5 check sum: 94e484f906d9e9773b2f6e52662335b2
     Pseudo is Projector augmented-wave, Zval =  1.0
     Generated using "atomic" code by A. Dal Corso  v.5.0.99 svn rev. 10869
     Shape of augmentation charge: PSQ
     Using radial grid of  929 points,  2 beta functions with: 
                l(1) =   0
                l(2) =   0
     Q(r) pseudized with 0 coefficients 


     PseudoPot. # 4 for  O read from file:
     /scratch/ahofstet/pseudo/O.pbe-n-kjpaw_psl.0.1.UPF
     MD5 check sum: 3f94a2996a3169367d6eb21d9b593f20
     Pseudo is Projector augmented-wave + core cor, Zval =  6.0
     Generated using "atomic" code by A. Dal Corso  v.5.0.99 svn rev. 10869
     Shape of augmentation charge: BESSEL
     Using radial grid of 1095 points,  4 beta functions with: 
                l(1) =   0
                l(2) =   0
                l(3) =   1
                l(4) =   1
     Q(r) pseudized with 0 coefficients 


     atomic species   valence    mass     pseudopotential
        C              4.00    12.01070      C( 1.00)
        N              5.00    14.00670      N( 1.00)
        H              1.00     1.00794      H( 1.00)
        O              6.00    15.99940      O( 1.00)

      2 Sym. Ops., with inversion, found



   Cartesian axes

     site n.     atom                  positions (alat units)
         1           O   tau(   1) = (   0.7220911   0.1023060   0.5110907  )
         2           O   tau(   2) = (   0.0463216   0.4521960   0.1505083  )
         3           O   tau(   3) = (  -0.1852613   0.5974695   0.8121080  )
         4           O   tau(   4) = (   0.4905082   0.2475795   1.1726904  )
         5           H   tau(   5) = (   0.7557027   0.1334938   0.6046110  )
         6           H   tau(   6) = (   0.0127175   0.4833719   0.0569816  )
         7           H   tau(   7) = (  -0.2188729   0.5662817   0.7185877  )
         8           H   tau(   8) = (   0.5241123   0.2164036   1.2662171  )
         9           H   tau(   9) = (   0.7200624  -0.0006519   0.5171941  )
        10           H   tau(  10) = (   0.0483479   0.3492380   0.1444219  )
        11           H   tau(  11) = (  -0.1832326   0.7004274   0.8060046  )
        12           H   tau(  12) = (   0.4884819   0.3505375   1.1787769  )
        13           O   tau(  13) = (   0.7251934   0.5184252   0.5600563  )
        14           O   tau(  14) = (   0.0432212   0.1685431   0.1015611  )
        15           O   tau(  15) = (  -0.1883636   0.1813503   0.7631424  )
        16           O   tau(  16) = (   0.4936086   0.5312324   1.2216376  )
        17           H   tau(  17) = (   0.6355734   0.4670670   0.5447051  )
        18           H   tau(  18) = (   0.1328386   0.1171823   0.1169119  )
        19           H   tau(  19) = (  -0.0987436   0.2327086   0.7784936  )
        20           H   tau(  20) = (   0.4039912   0.5825932   1.2062868  )
        21           H   tau(  21) = (   0.8027502   0.4675675   0.5130210  )
        22           H   tau(  22) = (  -0.0343389   0.1176808   0.1485881  )
        23           H   tau(  23) = (  -0.2659204   0.2322080   0.8101777  )
        24           H   tau(  24) = (   0.5711687   0.5820947   1.1746106  )
        25           N   tau(  25) = (   0.2193895   0.2482230   0.4873561  )
        26           N   tau(  26) = (   0.5490301   0.5981125   0.1742320  )
        27           N   tau(  27) = (   0.3174403   0.4515525   0.8358426  )
        28           N   tau(  28) = (  -0.0122003   0.1016630   1.1489667  )
        29           N   tau(  29) = (   0.4570289   0.2485648   0.5330800  )
        30           N   tau(  30) = (   0.3113940   0.5984539   0.1285252  )
        31           N   tau(  31) = (   0.0798009   0.4512107   0.7901187  )
        32           N   tau(  32) = (   0.2254358   0.1013216   1.1946735  )
        33           H   tau(  33) = (   0.5505833   0.1985793   0.5192177  )
        34           H   tau(  34) = (   0.2178263   0.5484577   0.1423896  )
        35           H   tau(  35) = (  -0.0137535   0.5011962   0.8039810  )
        36           H   tau(  36) = (   0.3190035   0.1513178   1.1808092  )
        37           N   tau(  37) = (   0.4630335   0.3944611   0.5205078  )
        38           N   tau(  38) = (   0.3053779   0.0445647   0.1411046  )
        39           N   tau(  39) = (   0.0737963   0.3053144   0.8026910  )
        40           N   tau(  40) = (   0.2314520   0.6552108   1.1820941  )
        41           H   tau(  41) = (   0.3953760   0.4361778   0.5919177  )
        42           H   tau(  42) = (   0.3730384   0.0862866   0.0696978  )
        43           H   tau(  43) = (   0.1414538   0.2635977   0.7312810  )
        44           H   tau(  44) = (   0.1637914   0.6134889   1.2535009  )
        45           H   tau(  45) = (   0.4266408   0.4230101   0.4236407  )
        46           H   tau(  46) = (   0.3417758   0.0731083   0.2379733  )
        47           H   tau(  47) = (   0.1101890   0.2767654   0.8995581  )
        48           H   tau(  48) = (   0.1950540   0.6266672   1.0852254  )
        49           N   tau(  49) = (  -0.0180308   0.2532166   0.4412945  )
        50           N   tau(  50) = (   0.7864282   0.6031107   0.2202881  )
        51           N   tau(  51) = (   0.5548606   0.4465589   0.8819042  )
        52           N   tau(  52) = (  -0.2495984   0.0966648   1.1029106  )
        53           H   tau(  53) = (  -0.1104778   0.2019274   0.4525607  )
        54           H   tau(  54) = (   0.8789068   0.5518062   0.2090165  )
        55           H   tau(  55) = (   0.6473076   0.4978481   0.8706380  )
        56           H   tau(  56) = (  -0.3420770   0.1479694   1.1141822  )
        57           N   tau(  57) = (  -0.0248898   0.3980078   0.4618847  )
        58           N   tau(  58) = (   0.7933076   0.0481136   0.1997088  )
        59           N   tau(  59) = (   0.5617196   0.3017677   0.8613140  )
        60           N   tau(  60) = (  -0.2564778   0.6516619   1.1234899  )
        61           H   tau(  61) = (   0.0373985   0.4258578   0.5445980  )
        62           H   tau(  62) = (   0.7310120   0.0759737   0.1169962  )
        63           H   tau(  63) = (   0.4994313   0.2739177   0.7786007  )
        64           H   tau(  64) = (  -0.1941822   0.6238018   1.2062025  )
        65           H   tau(  65) = (   0.0151780   0.4461742   0.3752775  )
        66           H   tau(  66) = (   0.7532382   0.0962743   0.2863206  )
        67           H   tau(  67) = (   0.5216518   0.2536013   0.9479212  )
        68           H   tau(  68) = (  -0.2164084   0.6035012   1.0368781  )
        69           C   tau(  69) = (   0.3378790   0.1753667   0.5014879  )
        70           C   tau(  70) = (   0.4305239   0.5252313   0.1601194  )
        71           C   tau(  71) = (   0.1989508   0.5244088   0.8217108  )
        72           C   tau(  72) = (   0.1063059   0.1745442   1.1630793  )
        73           C   tau(  73) = (   0.3442131   0.0283326   0.4902825  )
        74           C   tau(  74) = (   0.4242028   0.3782334   0.1713577  )
        75           C   tau(  75) = (   0.1926167   0.6714429   0.8329163  )
        76           C   tau(  76) = (   0.1126270   0.3215421   1.1518410  )
        77           H   tau(  77) = (   0.4431545   0.6751995   0.5023497  )
        78           H   tau(  78) = (   0.3252419   0.3253084   0.1593552  )
        79           H   tau(  79) = (   0.0936753   0.0245760   0.8208490  )
        80           H   tau(  80) = (   0.2115879   0.3744671   1.1638435  )
        81           C   tau(  81) = (   0.2198276   0.6573769   0.4680831  )
        82           C   tau(  82) = (   0.5485769   0.3074706   0.1935485  )
        83           C   tau(  83) = (   0.3170022   0.0423986   0.8551157  )
        84           C   tau(  84) = (  -0.0117471   0.3923050   1.1296502  )
        85           H   tau(  85) = (   0.2201438   0.5437055   0.4609812  )
        86           H   tau(  86) = (   0.5482641   0.1938237   0.2006935  )
        87           H   tau(  87) = (   0.3166860   0.1560700   0.8622175  )
        88           H   tau(  88) = (  -0.0114343   0.5059518   1.1225053  )
        89           C   tau(  89) = (   0.0956626   0.0301043   0.4541089  )
        90           C   tau(  90) = (   0.6727568   0.3800026   0.2075070  )
        91           C   tau(  91) = (   0.4411672   0.6696712   0.8690899  )
        92           C   tau(  92) = (  -0.1359270   0.3197729   1.1156918  )
        93           H   tau(  93) = (  -0.0033246   0.6786949   0.4356515  )
        94           H   tau(  94) = (   0.7717372   0.3288043   0.2259760  )
        95           H   tau(  95) = (   0.5401544   0.0210806   0.8875472  )
        96           H   tau(  96) = (  -0.2349074   0.3709712   1.0972227  )
        97           C   tau(  97) = (   0.1013111   0.1776587   0.4617323  )
        98           C   tau(  98) = (   0.6671159   0.5275305   0.1998673  )
        99           C   tau(  99) = (   0.4355187   0.5221168   0.8614664  )
       100           C   tau( 100) = (  -0.1302861   0.1722450   1.1233314  )

     number of k points=     8
                       cart. coord. in units 2pi/alat
        k(    1) = (   0.0000000   0.0000000   0.0000000), wk =   0.1666667
        k(    2) = (   0.0000000   0.0000000  -0.3778722), wk =   0.1666667
        k(    3) = (   0.0000000   0.4763432   0.0000000), wk =   0.3333333
        k(    4) = (   0.0000000   0.4763432  -0.3778722), wk =   0.3333333
        k(    5) = (  -0.5000000   0.0000000  -0.1750191), wk =   0.1666667
        k(    6) = (  -0.5000000   0.0000000  -0.5528913), wk =   0.1666667
        k(    7) = (  -0.5000000   0.4763432  -0.1750191), wk =   0.3333333
        k(    8) = (  -0.5000000   0.4763432  -0.5528913), wk =   0.3333333

     Dense  grid:   752025 G-vectors     FFT dimensions: ( 120,  81, 180)

     Estimated max dynamical RAM per process >     671.84MB

     Estimated total allocated dynamical RAM >    5374.69MB

     Check: negative/imaginary core charge=   -0.000002    0.000000

     Initial potential from superposition of free atoms

     starting charge  279.99851, renormalised to  280.00000
     Starting wfc are  244 randomized atomic wfcs
     Checking if some PAW data can be deallocated... 

     total cpu time spent up to now is       40.6 secs

     per-process dynamical memory:   489.9 Mb

     Self-consistent Calculation

     iteration #  1     ecut=   100.00 Ry     beta=0.50
     Davidson diagonalization with overlap
     ethr =  1.00E-02,  avg # of iterations =  3.5

     total cpu time spent up to now is      143.8 secs

     total energy              =   -1326.47753814 Ry
     Harris-Foulkes estimate   =   -1331.92815264 Ry
     estimated scf accuracy    <      10.15831257 Ry

     iteration #  2     ecut=   100.00 Ry     beta=0.50
     Davidson diagonalization with overlap
     ethr =  3.63E-03,  avg # of iterations =  3.0

     total cpu time spent up to now is      212.8 secs

     total energy              =   -1328.13968868 Ry
     Harris-Foulkes estimate   =   -1328.51446412 Ry
     estimated scf accuracy    <       0.92849836 Ry

     iteration #  3     ecut=   100.00 Ry     beta=0.50
     Davidson diagonalization with overlap
     ethr =  3.32E-04,  avg # of iterations =  8.1

     total cpu time spent up to now is      334.9 secs

     total energy              =   -1328.50409791 Ry
     Harris-Foulkes estimate   =   -1328.61764306 Ry
     estimated scf accuracy    <       0.29664601 Ry

     iteration #  4     ecut=   100.00 Ry     beta=0.50
     Davidson diagonalization with overlap
     ethr =  1.06E-04,  avg # of iterations =  2.0

     total cpu time spent up to now is      391.9 secs

     total energy              =   -1328.51033483 Ry
     Harris-Foulkes estimate   =   -1328.52976005 Ry
     estimated scf accuracy    <       0.05741042 Ry

     iteration #  5     ecut=   100.00 Ry     beta=0.50
     Davidson diagonalization with overlap
     ethr =  2.05E-05,  avg # of iterations =  7.0

     total cpu time spent up to now is      514.0 secs

     total energy              =   -1328.53658243 Ry
     Harris-Foulkes estimate   =   -1328.56072521 Ry
     estimated scf accuracy    <       0.06197051 Ry

     iteration #  6     ecut=   100.00 Ry     beta=0.50
     Davidson diagonalization with overlap
     ethr =  2.05E-05,  avg # of iterations =  2.9

     total cpu time spent up to now is      572.0 secs

     total energy              =   -1328.53169270 Ry
     Harris-Foulkes estimate   =   -1328.54012155 Ry
     estimated scf accuracy    <       0.01573599 Ry

     iteration #  7     ecut=   100.00 Ry     beta=0.50
     Davidson diagonalization with overlap
     ethr =  5.62E-06,  avg # of iterations =  7.0

     total cpu time spent up to now is      682.6 secs

     total energy              =   -1328.53999013 Ry
     Harris-Foulkes estimate   =   -1328.54116098 Ry
     estimated scf accuracy    <       0.00277042 Ry

     iteration #  8     ecut=   100.00 Ry     beta=0.50
     Davidson diagonalization with overlap
     ethr =  9.89E-07,  avg # of iterations =  3.4

     total cpu time spent up to now is      741.1 secs

     total energy              =   -1328.54003838 Ry
     Harris-Foulkes estimate   =   -1328.54023731 Ry
     estimated scf accuracy    <       0.00046255 Ry

     iteration #  9     ecut=   100.00 Ry     beta=0.50
     Davidson diagonalization with overlap
     ethr =  1.65E-07,  avg # of iterations =  4.0

     total cpu time spent up to now is      837.4 secs

     total energy              =   -1328.54036997 Ry
     Harris-Foulkes estimate   =   -1328.54043108 Ry
     estimated scf accuracy    <       0.00013658 Ry

     iteration # 10     ecut=   100.00 Ry     beta=0.50
     Davidson diagonalization with overlap
     ethr =  4.88E-08,  avg # of iterations =  3.8

     total cpu time spent up to now is      897.4 secs

     total energy              =   -1328.54037395 Ry
     Harris-Foulkes estimate   =   -1328.54038361 Ry
     estimated scf accuracy    <       0.00001667 Ry

     iteration # 11     ecut=   100.00 Ry     beta=0.50
     Davidson diagonalization with overlap
     ethr =  5.95E-09,  avg # of iterations =  4.0

     total cpu time spent up to now is     1006.0 secs

     total energy              =   -1328.54039193 Ry
     Harris-Foulkes estimate   =   -1328.54040207 Ry
     estimated scf accuracy    <       0.00002834 Ry

     iteration # 12     ecut=   100.00 Ry     beta=0.50
     Davidson diagonalization with overlap
     ethr =  5.95E-09,  avg # of iterations =  2.2

     total cpu time spent up to now is     1062.3 secs

     total energy              =   -1328.54038914 Ry
     Harris-Foulkes estimate   =   -1328.54039326 Ry
     estimated scf accuracy    <       0.00000810 Ry

     iteration # 13     ecut=   100.00 Ry     beta=0.50
     Davidson diagonalization with overlap
     ethr =  2.89E-09,  avg # of iterations =  4.0

     total cpu time spent up to now is     1154.2 secs

     total energy              =   -1328.54039375 Ry
     Harris-Foulkes estimate   =   -1328.54039434 Ry
     estimated scf accuracy    <       0.00000207 Ry

     iteration # 14     ecut=   100.00 Ry     beta=0.50
     Davidson diagonalization with overlap
     ethr =  7.40E-10,  avg # of iterations =  1.1

     total cpu time spent up to now is     1208.8 secs

     total energy              =   -1328.54039345 Ry
     Harris-Foulkes estimate   =   -1328.54039382 Ry
     estimated scf accuracy    <       0.00000088 Ry

     iteration # 15     ecut=   100.00 Ry     beta=0.50
     Davidson diagonalization with overlap
     ethr =  3.13E-10,  avg # of iterations =  3.1

     total cpu time spent up to now is     1287.4 secs

     total energy              =   -1328.54039375 Ry
     Harris-Foulkes estimate   =   -1328.54039375 Ry
     estimated scf accuracy    <       0.00000002 Ry

     iteration # 16     ecut=   100.00 Ry     beta=0.50
     Davidson diagonalization with overlap
     ethr =  5.86E-12,  avg # of iterations =  3.1

     total cpu time spent up to now is     1377.3 secs

     End of self-consistent calculation

          k = 0.0000 0.0000 0.0000 ( 94021 PWs)   bands (ev):

   -18.8499 -18.7702 -18.7007 -18.6348 -18.5243 -18.4917 -18.3862 -18.3653
   -18.3013 -18.2870 -18.2166 -18.2085 -18.1017 -18.0815 -17.8110 -17.8047
   -16.5484 -16.5371 -16.5120 -16.5023 -13.9935 -13.9643 -13.9319 -13.9079
   -13.2683 -13.2380 -13.2187 -13.1705 -13.0624 -13.0459 -13.0316 -13.0302
   -10.9742 -10.9570 -10.9565 -10.9377  -9.2709  -9.2652  -9.2535  -9.2483
    -8.5427  -8.5338  -8.4837  -8.4794  -7.5116  -7.5104  -7.4762  -7.4620
    -6.6580  -6.6283  -6.6203  -6.5962  -6.5185  -6.4840  -6.4485  -6.3541
    -6.3244  -6.2991  -6.2656  -6.2221  -6.1960  -6.1942  -6.1834  -6.0965
    -6.0354  -5.9664  -5.9613  -5.6566  -5.6189  -5.5948  -5.5053  -5.4871
    -5.1067  -5.0832  -5.0672  -5.0638  -5.0346  -5.0193  -5.0151  -5.0024
    -4.5584  -4.5142  -4.4796  -4.4757  -4.0081  -3.9788  -3.7056  -3.6248
    -3.5327  -3.3914  -2.9470  -2.9199  -2.8973  -2.8919  -2.8216  -2.7547
    -2.7505  -2.7459  -2.7319  -2.7276  -2.5838  -2.5496  -2.1340  -2.0614
    -1.8189  -1.6743  -1.6678  -1.4822  -0.8875  -0.8826  -0.8600  -0.8114
    -0.8080  -0.7479  -0.7314  -0.7182  -0.6852  -0.6778  -0.6273  -0.5997
    -0.5227  -0.4679  -0.4220  -0.3694  -0.0843  -0.0530   0.0267   0.0454
     0.1388   0.1468   0.1908   0.2163   0.5925   0.6779   0.6879   0.7139
     1.6892   1.7174   1.8105   1.9043   5.1667   5.2020   5.2605   5.3835
     5.6772   5.7009   5.8724   5.9598   6.0462   6.7185   7.0021   7.1896
     7.4213   7.4253   7.4923   7.9793   8.0960   8.1992   8.2657   8.3894
     8.4269   8.5501   8.5575   8.7043   8.7207   8.8109   8.9277   8.9423

          k = 0.0000 0.0000-0.3779 ( 94000 PWs)   bands (ev):

   -18.8198 -18.8197 -18.6582 -18.6580 -18.5097 -18.5097 -18.3648 -18.3644
   -18.3068 -18.3065 -18.2118 -18.2118 -18.0893 -18.0891 -17.8080 -17.8078
   -16.5437 -16.5432 -16.5067 -16.5062 -13.9818 -13.9817 -13.9171 -13.9170
   -13.2598 -13.2588 -13.1890 -13.1880 -13.0555 -13.0549 -13.0300 -13.0294
   -10.9693 -10.9690 -10.9438 -10.9434  -9.2687  -9.2681  -9.2508  -9.2502
    -8.5391  -8.5384  -8.4814  -8.4807  -7.5116  -7.5115  -7.4687  -7.4687
    -6.6274  -6.6273  -6.6208  -6.6207  -6.4797  -6.4796  -6.4018  -6.4017
    -6.3680  -6.3678  -6.2825  -6.2823  -6.1810  -6.1805  -6.0918  -6.0915
    -5.9922  -5.9921  -5.8404  -5.8402  -5.5742  -5.5737  -5.4994  -5.4988
    -5.0960  -5.0959  -5.0634  -5.0632  -5.0289  -5.0286  -5.0100  -5.0096
    -4.5365  -4.5362  -4.4771  -4.4766  -3.9920  -3.9918  -3.6696  -3.6691
    -3.4596  -3.4593  -2.9346  -2.9339  -2.8937  -2.8922  -2.7970  -2.7960
    -2.7407  -2.7406  -2.7337  -2.7336  -2.5687  -2.5685  -2.0738  -2.0735
    -1.8099  -1.8099  -1.5327  -1.5327  -0.8923  -0.8918  -0.8100  -0.8096
    -0.7880  -0.7878  -0.7213  -0.7213  -0.6868  -0.6868  -0.6306  -0.6305
    -0.4722  -0.4721  -0.4017  -0.4014  -0.0735  -0.0734   0.0377   0.0378
     0.1415   0.1417   0.2063   0.2064   0.6234   0.6242   0.7096   0.7103
     1.6971   1.6972   1.8619   1.8619   5.1783   5.1793   5.3370   5.3383
     5.6955   5.6956   5.9748   5.9749   6.1850   6.1851   7.2666   7.2669
     7.3003   7.3004   7.8961   7.8965   8.0548   8.0549   8.2801   8.2802
     8.4395   8.4397   8.7192   8.7194   8.8097   8.8099   8.9293   8.9294

          k = 0.0000 0.4763 0.0000 ( 93966 PWs)   bands (ev):

   -18.7968 -18.7434 -18.6750 -18.6413 -18.5747 -18.5435 -18.3776 -18.3674
   -18.2997 -18.2909 -18.1967 -18.1934 -18.1167 -18.1051 -17.7966 -17.7937
   -16.5595 -16.5408 -16.5350 -16.5179 -14.0175 -13.9877 -13.9859 -13.9580
   -13.3653 -13.3567 -13.3352 -13.3221 -12.9055 -12.9034 -12.8649 -12.8574
   -10.8430 -10.8338 -10.8167 -10.8084  -9.3132  -9.3082  -9.2938  -9.2869
    -8.6980  -8.6887  -8.6688  -8.6668  -7.3188  -7.3040  -7.3020  -7.2908
    -6.7788  -6.7649  -6.7626  -6.7466  -6.4867  -6.4713  -6.4691  -6.3565
    -6.3110  -6.3094  -6.2842  -6.2128  -6.2007  -6.1389  -6.0601  -6.0549
    -5.9392  -5.8972  -5.7712  -5.6973  -5.6691  -5.5457  -5.4504  -5.4405
    -5.2230  -5.2173  -5.1813  -5.1754  -5.0769  -5.0541  -5.0400  -5.0360
    -4.3406  -4.3214  -4.3128  -4.2975  -4.0708  -4.0523  -3.8193  -3.7410
    -3.4491  -3.3638  -3.3024  -3.2901  -3.2284  -3.2159  -2.8411  -2.8167
    -2.7730  -2.7684  -2.7526  -2.7438  -2.6035  -2.6016  -2.0484  -1.9989
    -1.8016  -1.7124  -1.6090  -1.5134  -0.8812  -0.8478  -0.8211  -0.8172
    -0.7874  -0.7720  -0.7593  -0.7500  -0.6039  -0.5765  -0.5039  -0.4952
    -0.3702  -0.3334  -0.3254  -0.2898  -0.1074  -0.0887  -0.0578  -0.0334
     0.2190   0.2433   0.2561   0.2791   0.5771   0.6218   0.7117   0.7222
     1.7555   1.8480   1.9088   1.9821   5.1585   5.1785   5.2972   5.3877
     5.5602   5.6642   5.7067   5.8859   6.3049   6.9436   7.1511   7.2701
     7.5873   7.6704   7.8457   7.9640   8.0570   8.1479   8.3307   8.5122
     8.5167   8.6334   8.6490   8.6962   8.7675   8.8806   9.0202   9.0652

          k = 0.0000 0.4763-0.3779 ( 93944 PWs)   bands (ev):

   -18.7739 -18.7738 -18.6576 -18.6574 -18.5568 -18.5567 -18.3616 -18.3612
   -18.3077 -18.3073 -18.1961 -18.1960 -18.1080 -18.1077 -17.7953 -17.7952
   -16.5538 -16.5523 -16.5243 -16.5228 -14.0084 -14.0083 -13.9663 -13.9661
   -13.3625 -13.3613 -13.3283 -13.3271 -12.9048 -12.9042 -12.8614 -12.8608
   -10.8393 -10.8387 -10.8122 -10.8117  -9.3118  -9.3100  -9.2910  -9.2892
    -8.6941  -8.6932  -8.6679  -8.6671  -7.3135  -7.3134  -7.2944  -7.2941
    -6.7725  -6.7723  -6.7526  -6.7525  -6.4843  -6.4841  -6.4192  -6.4188
    -6.2992  -6.2990  -6.2664  -6.2662  -6.1558  -6.1555  -6.0603  -6.0600
    -5.8930  -5.8928  -5.7919  -5.7919  -5.5674  -5.5668  -5.4479  -5.4471
    -5.2159  -5.2150  -5.1818  -5.1809  -5.0672  -5.0665  -5.0406  -5.0400
    -4.3314  -4.3312  -4.3066  -4.3062  -4.0555  -4.0554  -3.7779  -3.7768
    -3.4285  -3.4275  -3.2888  -3.2877  -3.2199  -3.2187  -2.8352  -2.8346
    -2.7742  -2.7722  -2.7365  -2.7351  -2.6022  -2.6019  -1.9847  -1.9846
    -1.8293  -1.8293  -1.5314  -1.5314  -0.8576  -0.8574  -0.8092  -0.8089
    -0.7986  -0.7977  -0.7587  -0.7583  -0.5681  -0.5678  -0.5089  -0.5083
    -0.3556  -0.3555  -0.3063  -0.3063  -0.1018  -0.1016  -0.0435  -0.0434
     0.2277   0.2279   0.2717   0.2718   0.6031   0.6042   0.7101   0.7111
     1.7912   1.7914   1.9550   1.9551   5.1750   5.1762   5.3450   5.3465
     5.5676   5.5693   5.8353   5.8371   6.5833   6.5834   7.1737   7.1742
     7.6839   7.6841   7.8710   7.8715   8.1200   8.1201   8.3331   8.3333
     8.5920   8.5921   8.7652   8.7655   8.8580   8.8581   9.0630   9.0632

          k =-0.5000 0.0000-0.1750 ( 94028 PWs)   bands (ev):

   -18.7317 -18.7221 -18.7129 -18.6821 -18.6173 -18.6142 -18.4253 -18.3483
   -18.3012 -18.2519 -18.2140 -18.2107 -18.0628 -18.0012 -17.8070 -17.8048
   -16.5604 -16.5503 -16.5193 -16.5090 -13.9479 -13.9422 -13.9206 -13.9177
   -13.2631 -13.2479 -13.2149 -13.1854 -13.1093 -13.0840 -13.0346 -13.0154
   -11.0105 -10.9950 -10.9048 -10.8886  -9.2846  -9.2803  -9.2055  -9.1988
    -8.5672  -8.5163  -8.5076  -8.4576  -7.5211  -7.5084  -7.4794  -7.4672
    -6.6462  -6.5867  -6.5449  -6.5284  -6.5244  -6.4792  -6.4753  -6.4437
    -6.4199  -6.3705  -6.3269  -6.3006  -6.2410  -6.1897  -6.1238  -6.0612
    -5.9088  -5.8644  -5.8189  -5.7835  -5.6691  -5.6645  -5.5905  -5.4524
    -5.1625  -5.1381  -5.1118  -5.0494  -5.0431  -5.0420  -5.0385  -5.0101
    -4.6283  -4.5157  -4.4462  -4.3772  -3.9316  -3.8795  -3.6283  -3.6101
    -3.5347  -3.4504  -2.9169  -2.9036  -2.8818  -2.8757  -2.8658  -2.8582
    -2.7472  -2.7239  -2.7222  -2.7019  -2.5516  -2.4945  -2.1272  -2.0176
    -1.7944  -1.7281  -1.6099  -1.4459  -0.9651  -0.9439  -0.8546  -0.8180
    -0.8164  -0.7426  -0.7301  -0.6934  -0.6843  -0.6791  -0.6446  -0.5896
    -0.3644  -0.3301  -0.3093  -0.2889  -0.2321  -0.2214  -0.1851  -0.1741
     0.1961   0.2013   0.2037   0.2052   0.6307   0.6469   0.6721   0.7261
     1.6318   1.6582   1.8609   1.9517   5.1878   5.1908   5.2805   5.3819
     5.6486   5.6864   5.9358   6.0501   6.3831   6.5660   6.8412   7.2659
     7.4430   7.5840   7.7653   7.8407   8.0154   8.0982   8.2809   8.4561
     8.5152   8.5453   8.6027   8.6655   8.6866   8.7589   8.7775   8.8387

          k =-0.5000 0.0000-0.5529 ( 93988 PWs)   bands (ev):

   -18.7384 -18.7382 -18.6686 -18.6684 -18.6386 -18.6384 -18.3797 -18.3793
   -18.2840 -18.2837 -18.2108 -18.2108 -18.0287 -18.0284 -17.8059 -17.8057
   -16.5562 -16.5558 -16.5137 -16.5133 -13.9451 -13.9448 -13.9194 -13.9192
   -13.2584 -13.2573 -13.1981 -13.1970 -13.0987 -13.0985 -13.0234 -13.0231
   -11.0034 -11.0033 -10.8961 -10.8961  -9.2826  -9.2826  -9.2020  -9.2020
    -8.5513  -8.5507  -8.4736  -8.4730  -7.5169  -7.5169  -7.4713  -7.4712
    -6.6101  -6.6097  -6.5567  -6.5565  -6.4910  -6.4910  -6.4575  -6.4573
    -6.3893  -6.3893  -6.3364  -6.3363  -6.1618  -6.1616  -6.1204  -6.1202
    -5.9473  -5.9471  -5.7357  -5.7351  -5.6648  -5.6645  -5.5453  -5.5446
    -5.1550  -5.1549  -5.0681  -5.0680  -5.0422  -5.0413  -5.0252  -5.0247
    -4.5841  -4.5840  -4.4013  -4.4003  -3.9041  -3.9033  -3.6242  -3.6235
    -3.4889  -3.4885  -2.9128  -2.9117  -2.8812  -2.8801  -2.8546  -2.8542
    -2.7385  -2.7384  -2.7121  -2.7115  -2.5221  -2.5220  -2.0910  -2.0908
    -1.7549  -1.7549  -1.5182  -1.5182  -0.9533  -0.9529  -0.8389  -0.8385
    -0.7825  -0.7816  -0.6948  -0.6947  -0.6908  -0.6906  -0.6176  -0.6173
    -0.3697  -0.3696  -0.2911  -0.2910  -0.2142  -0.2141  -0.1839  -0.1837
     0.1995   0.1998   0.2035   0.2037   0.6265   0.6276   0.7151   0.7160
     1.6407   1.6407   1.9077   1.9077   5.1795   5.1806   5.3419   5.3433
     5.6605   5.6607   5.9615   5.9616   6.5484   6.5486   7.0212   7.0212
     7.4816   7.4818   7.8760   7.8761   7.9186   7.9188   8.3582   8.3585
     8.5002   8.5002   8.6341   8.6343   8.7238   8.7238   8.9016   8.9017

          k =-0.5000 0.4763-0.1750 ( 93996 PWs)   bands (ev):

   -18.7193 -18.7102 -18.6684 -18.6544 -18.6073 -18.5809 -18.4453 -18.4063
   -18.3823 -18.3347 -18.1253 -18.1183 -18.1151 -18.0774 -17.7683 -17.7652
   -16.5722 -16.5516 -16.5479 -16.5275 -13.9857 -13.9832 -13.9559 -13.9541
   -13.3714 -13.3682 -13.3387 -13.3364 -12.9326 -12.9053 -12.8844 -12.8625
   -10.8613 -10.8371 -10.8031 -10.7784  -9.3185  -9.2973  -9.2741  -9.2531
    -8.7010  -8.6870  -8.6784  -8.6563  -7.3363  -7.3214  -7.3161  -7.2942
    -6.6920  -6.6714  -6.6708  -6.6481  -6.5667  -6.5352  -6.4569  -6.4339
    -6.4093  -6.3422  -6.2592  -6.2547  -6.2227  -6.1715  -6.1307  -6.0624
    -5.8386  -5.8352  -5.7674  -5.7382  -5.6074  -5.5436  -5.5062  -5.4512
    -5.2534  -5.2352  -5.2071  -5.1962  -5.1503  -5.1316  -5.0700  -5.0349
    -4.3800  -4.3110  -4.2764  -4.2643  -3.9945  -3.9772  -3.8186  -3.7625
    -3.4433  -3.3897  -3.2608  -3.2478  -3.2325  -3.2157  -2.8053  -2.7786
    -2.7711  -2.7499  -2.7240  -2.6960  -2.6287  -2.5817  -1.9860  -1.9331
    -1.8373  -1.7941  -1.5617  -1.4742  -0.8704  -0.8660  -0.8630  -0.8350
    -0.7985  -0.7772  -0.7612  -0.7245  -0.5702  -0.5701  -0.5146  -0.4959
    -0.3966  -0.3756  -0.3322  -0.3085  -0.1877  -0.1250  -0.1066  -0.0825
     0.2483   0.2553   0.2667   0.2770   0.6086   0.6137   0.7065   0.7262
     1.7307   1.8682   1.8726   2.0066   5.1823   5.1835   5.3205   5.3951
     5.5236   5.6483   5.7103   5.9154   6.6898   6.8266   7.1722   7.3530
     7.4914   7.6240   7.7941   7.8281   8.1459   8.1499   8.3551   8.4298
     8.5003   8.6729   8.7141   8.7940   8.8451   8.8796   8.9137   8.9285

          k =-0.5000 0.4763-0.5529 ( 94020 PWs)   bands (ev):

   -18.7215 -18.7213 -18.6370 -18.6369 -18.6151 -18.6150 -18.4303 -18.4301
   -18.3498 -18.3494 -18.1328 -18.1326 -18.0867 -18.0865 -17.7669 -17.7667
   -16.5664 -16.5650 -16.5346 -16.5332 -13.9844 -13.9842 -13.9553 -13.9550
   -13.3705 -13.3692 -13.3380 -13.3368 -12.9222 -12.9217 -12.8707 -12.8702
   -10.8518 -10.8516 -10.7883 -10.7881  -9.3107  -9.3099  -9.2616  -9.2608
    -8.6970  -8.6963  -8.6651  -8.6644  -7.3327  -7.3324  -7.3015  -7.3014
    -6.6863  -6.6861  -6.6538  -6.6535  -6.5238  -6.5237  -6.5066  -6.5065
    -6.3372  -6.3371  -6.2707  -6.2706  -6.1692  -6.1689  -6.1155  -6.1152
    -5.8538  -5.8537  -5.7329  -5.7328  -5.5751  -5.5743  -5.4896  -5.4887
    -5.2471  -5.2469  -5.1992  -5.1988  -5.1409  -5.1403  -5.0493  -5.0489
    -4.3500  -4.3497  -4.2648  -4.2645  -3.9870  -3.9867  -3.7909  -3.7899
    -3.4136  -3.4126  -3.2510  -3.2502  -3.2279  -3.2271  -2.7886  -2.7881
    -2.7678  -2.7666  -2.7125  -2.7113  -2.6035  -2.6031  -2.0087  -2.0087
    -1.7418  -1.7417  -1.5422  -1.5422  -0.8698  -0.8697  -0.8408  -0.8404
    -0.7776  -0.7772  -0.7465  -0.7459  -0.5941  -0.5940  -0.5011  -0.5004
    -0.3663  -0.3662  -0.3369  -0.3368  -0.1661  -0.1659  -0.0857  -0.0856
     0.2524   0.2527   0.2717   0.2719   0.6030   0.6041   0.7260   0.7269
     1.7710   1.7711   1.9666   1.9667   5.1821   5.1834   5.3582   5.3598
     5.5521   5.5536   5.8327   5.8344   6.8297   6.8299   7.2861   7.2863
     7.4934   7.4937   7.7244   7.7246   8.1076   8.1077   8.3867   8.3870
     8.5912   8.5914   8.8121   8.8123   8.8778   8.8780   9.0038   9.0040

     highest occupied, lowest unoccupied level (ev):     2.0066    5.1585

!    total energy              =   -1328.54039375 Ry
     Harris-Foulkes estimate   =   -1328.54039375 Ry
     estimated scf accuracy    <          1.4E-09 Ry

     total all-electron energy =     -4980.573359 Ry

     The total energy is the sum of the following terms:

     one-electron contribution =    -597.12450224 Ry
     hartree contribution      =     408.58391060 Ry
     xc contribution           =    -288.74120500 Ry
     ewald contribution        =    -476.24271058 Ry
     Dispersion Correction     =      -0.46927279 Ry
     one-center paw contrib.   =    -374.54661374 Ry

     convergence has been achieved in  16 iterations

     Forces acting on atoms (cartesian axes, Ry/au):

     atom    1 type  4   force =    -0.00000725    0.00399397   -0.00084242
     atom    2 type  4   force =    -0.00000050    0.00402482    0.00083675
     atom    3 type  4   force =     0.00000725   -0.00399397    0.00084242
     atom    4 type  4   force =     0.00000050   -0.00402482   -0.00083675
     atom    5 type  3   force =     0.00061381   -0.00009136    0.00028832
     atom    6 type  3   force =    -0.00061379   -0.00008992   -0.00028867
     atom    7 type  3   force =    -0.00061381    0.00009136   -0.00028832
     atom    8 type  3   force =     0.00061379    0.00008992    0.00028867
     atom    9 type  3   force =    -0.00003609   -0.00328029    0.00043041
     atom   10 type  3   force =     0.00003499   -0.00330214   -0.00043999
     atom   11 type  3   force =     0.00003609    0.00328029   -0.00043041
     atom   12 type  3   force =    -0.00003499    0.00330214    0.00043999
     atom   13 type  4   force =    -0.00010913    0.00143544   -0.00158029
     atom   14 type  4   force =     0.00008969    0.00143799    0.00157359
     atom   15 type  4   force =     0.00010913   -0.00143544    0.00158029
     atom   16 type  4   force =    -0.00008969   -0.00143799   -0.00157359
     atom   17 type  3   force =    -0.00125565   -0.00044807   -0.00063405
     atom   18 type  3   force =     0.00126204   -0.00045605    0.00063001
     atom   19 type  3   force =     0.00125565    0.00044807    0.00063405
     atom   20 type  3   force =    -0.00126204    0.00045605   -0.00063001
     atom   21 type  3   force =     0.00216849   -0.00051087   -0.00038210
     atom   22 type  3   force =    -0.00215925   -0.00050871    0.00037578
     atom   23 type  3   force =    -0.00216849    0.00051087    0.00038210
     atom   24 type  3   force =     0.00215925    0.00050871   -0.00037578
     atom   25 type  2   force =     0.00013443    0.00422608   -0.00037274
     atom   26 type  2   force =    -0.00026713    0.00386860    0.00037403
     atom   27 type  2   force =    -0.00013443   -0.00422608    0.00037274
     atom   28 type  2   force =     0.00026713   -0.00386860   -0.00037403
     atom   29 type  2   force =     0.00188380   -0.00096452    0.00448238
     atom   30 type  2   force =    -0.00227735   -0.00129663   -0.00447060
     atom   31 type  2   force =    -0.00188380    0.00096452   -0.00448238
     atom   32 type  2   force =     0.00227735    0.00129663    0.00447060
     atom   33 type  3   force =     0.00036349   -0.00123190   -0.00085817
     atom   34 type  3   force =    -0.00016559   -0.00110831    0.00081394
     atom   35 type  3   force =    -0.00036349    0.00123190    0.00085817
     atom   36 type  3   force =     0.00016559    0.00110831   -0.00081394
     atom   37 type  2   force =    -0.00050566    0.00502247   -0.00032054
     atom   38 type  2   force =     0.00059986    0.00510541    0.00034182
     atom   39 type  2   force =     0.00050566   -0.00502247    0.00032054
     atom   40 type  2   force =    -0.00059986   -0.00510541   -0.00034182
     atom   41 type  3   force =     0.00182675   -0.00206096   -0.00050514
     atom   42 type  3   force =    -0.00184124   -0.00205318    0.00051181
     atom   43 type  3   force =    -0.00182675    0.00206096    0.00050514
     atom   44 type  3   force =     0.00184124    0.00205318   -0.00051181
     atom   45 type  3   force =     0.00193219   -0.00207860    0.00116880
     atom   46 type  3   force =    -0.00193961   -0.00207403   -0.00118046
     atom   47 type  3   force =    -0.00193219    0.00207860   -0.00116880
     atom   48 type  3   force =     0.00193961    0.00207403    0.00118046
     atom   49 type  2   force =    -0.00119437   -0.00004916   -0.00078839
     atom   50 type  2   force =     0.00203264   -0.00048698    0.00080160
     atom   51 type  2   force =     0.00119437    0.00004916    0.00078839
     atom   52 type  2   force =    -0.00203264    0.00048698   -0.00080160
     atom   53 type  3   force =    -0.00049491   -0.00090993    0.00017494
     atom   54 type  3   force =     0.00004861   -0.00066831   -0.00009611
     atom   55 type  3   force =     0.00049491    0.00090993   -0.00017494
     atom   56 type  3   force =    -0.00004861    0.00066831    0.00009611
     atom   57 type  2   force =     0.00012268    0.00351588    0.00260630
     atom   58 type  2   force =    -0.00028341    0.00365687   -0.00267360
     atom   59 type  2   force =    -0.00012268   -0.00351588   -0.00260630
     atom   60 type  2   force =     0.00028341   -0.00365687    0.00267360
     atom   61 type  3   force =    -0.00304152   -0.00283731   -0.00039528
     atom   62 type  3   force =     0.00308872   -0.00283489    0.00045185
     atom   63 type  3   force =     0.00304152    0.00283731    0.00039528
     atom   64 type  3   force =    -0.00308872    0.00283489   -0.00045185
     atom   65 type  3   force =    -0.00100237   -0.00256369    0.00047067
     atom   66 type  3   force =     0.00101019   -0.00254650   -0.00048639
     atom   67 type  3   force =     0.00100237    0.00256369   -0.00047067
     atom   68 type  3   force =    -0.00101019    0.00254650    0.00048639
     atom   69 type  1   force =     0.00033411   -0.01417426   -0.00102236
     atom   70 type  1   force =     0.00012907   -0.01346505    0.00105804
     atom   71 type  1   force =    -0.00033411    0.01417426    0.00102236
     atom   72 type  1   force =    -0.00012907    0.01346505   -0.00105804
     atom   73 type  1   force =    -0.00057970    0.01583319   -0.00051919
     atom   74 type  1   force =     0.00031181    0.01516168    0.00051691
     atom   75 type  1   force =     0.00057970   -0.01583319    0.00051919
     atom   76 type  1   force =    -0.00031181   -0.01516168   -0.00051691
     atom   77 type  3   force =     0.00299458   -0.00197713   -0.00001574
     atom   78 type  3   force =    -0.00282360   -0.00185909    0.00000901
     atom   79 type  3   force =    -0.00299458    0.00197713    0.00001574
     atom   80 type  3   force =     0.00282360    0.00185909   -0.00000901
     atom   81 type  1   force =    -0.00070463   -0.00263769    0.00008063
     atom   82 type  1   force =     0.00101041   -0.00200394   -0.00002012
     atom   83 type  1   force =     0.00070463    0.00263769   -0.00008063
     atom   84 type  1   force =    -0.00101041    0.00200394    0.00002012
     atom   85 type  3   force =    -0.00002407    0.00356300    0.00021309
     atom   86 type  3   force =     0.00000673    0.00332380   -0.00022112
     atom   87 type  3   force =     0.00002407   -0.00356300   -0.00021309
     atom   88 type  3   force =    -0.00000673   -0.00332380    0.00022112
     atom   89 type  1   force =     0.00133583    0.01545133   -0.00067750
     atom   90 type  1   force =    -0.00156165    0.01484304    0.00065763
     atom   91 type  1   force =    -0.00133583   -0.01545133    0.00067750
     atom   92 type  1   force =     0.00156165   -0.01484304   -0.00065763
     atom   93 type  3   force =    -0.00257490   -0.00193150   -0.00063470
     atom   94 type  3   force =     0.00257047   -0.00190461    0.00062716
     atom   95 type  3   force =     0.00257490    0.00193150    0.00063470
     atom   96 type  3   force =    -0.00257047    0.00190461   -0.00062716
     atom   97 type  1   force =    -0.00090737   -0.01351691   -0.00022972
     atom   98 type  1   force =     0.00045577   -0.01303099    0.00011927
     atom   99 type  1   force =     0.00090737    0.01351691    0.00022972
     atom  100 type  1   force =    -0.00045577    0.01303099   -0.00011927

     Total force =     0.065129     Total SCF correction =     0.000068


     Computing stress (Cartesian axis) and pressure

          total   stress  (Ry/bohr**3)                   (kbar)     P=  -11.55
  -0.00005185  -0.00000006   0.00000171         -7.63     -0.01      0.25
  -0.00000006  -0.00013434  -0.00000003         -0.01    -19.76     -0.00
   0.00000171  -0.00000003  -0.00004934          0.25     -0.00     -7.26


     Writing output data file scf.save
 
     init_run     :     38.35s CPU     39.95s WALL (       1 calls)
     electrons    :   1279.70s CPU   1336.89s WALL (       1 calls)
     forces       :     19.34s CPU     19.48s WALL (       1 calls)
     stress       :     74.83s CPU     75.03s WALL (       1 calls)

     Called by init_run:
     wfcinit      :     29.56s CPU     31.00s WALL (       1 calls)
     potinit      :      3.12s CPU      3.16s WALL (       1 calls)

     Called by electrons:
     c_bands      :   1151.03s CPU   1200.22s WALL (      16 calls)
     sum_band     :    117.14s CPU    123.92s WALL (      16 calls)
     v_of_rho     :      1.88s CPU      2.09s WALL (      17 calls)
     newd         :      4.24s CPU      5.12s WALL (      17 calls)
     PAW_pot      :      4.70s CPU      4.71s WALL (      17 calls)
     mix_rho      :      0.37s CPU      0.41s WALL (      16 calls)

     Called by c_bands:
     init_us_2    :      6.21s CPU      6.24s WALL (     280 calls)
     cegterg      :   1128.35s CPU   1177.48s WALL (     128 calls)

     Called by sum_band:
     sum_band:bec :      0.07s CPU      0.07s WALL (     128 calls)
     addusdens    :      4.11s CPU      4.96s WALL (      16 calls)

     Called by *egterg:
     h_psi        :    630.34s CPU    670.50s WALL (     634 calls)
     s_psi        :    127.05s CPU    127.07s WALL (     634 calls)
     g_psi        :      3.05s CPU      3.05s WALL (     498 calls)
     cdiaghg      :     71.19s CPU     71.19s WALL (     626 calls)

     Called by h_psi:
     h_psi:pot    :    626.19s CPU    666.28s WALL (     634 calls)
     h_psi:calbec :    126.08s CPU    126.34s WALL (     634 calls)
     vloc_psi     :    373.04s CPU    412.85s WALL (     634 calls)
     add_vuspsi   :    127.07s CPU    127.09s WALL (     634 calls)

     General routines
     calbec       :    182.40s CPU    182.78s WALL (     802 calls)
     fft          :      1.35s CPU      1.71s WALL (     245 calls)
     fftw         :    402.34s CPU    445.52s WALL (  147492 calls)
 
     Parallel routines
     fft_scatter  :     77.24s CPU    113.61s WALL (  147737 calls)
 
     PWSCF        : 23m41.15s CPU    25m21.80s WALL

 
   This run was terminated on:   6: 2:36   4Nov2017            

=------------------------------------------------------------------------------=
   JOB DONE.
=------------------------------------------------------------------------------=
