
     Program PWSCF v.6.1 (svn rev. 13369) starts on 13Dec2017 at  5:31: 3 

     This program is part of the open-source Quantum ESPRESSO suite
     for quantum simulation of materials; please cite
         "P. Giannozzi et al., J. Phys.:Condens. Matter 21 395502 (2009);
          URL http://www.quantum-espresso.org", 
     in publications or presentations arising from this work. More details at
     http://www.quantum-espresso.org/quote

     Parallel version (MPI), running on     8 processors
     R & G space division:  proc/nbgrp/npool/nimage =       8
     Waiting for input...
     Reading input from standard input

     Current dimensions of program PWSCF are:
     Max number of different atomic species (ntypx) = 10
     Max number of k-points (npk) =  40000
     Max angular momentum in pseudopotentials (lmaxx) =  3
               file C.pbe-n-kjpaw_psl.0.1.UPF: wavefunction(s)  2P renormalized
               file N.pbe-n-kjpaw_psl.0.1.UPF: wavefunction(s)  2P renormalized
               file H.pbe-kjpaw_psl.0.1.UPF: wavefunction(s)  1S renormalized
               file O.pbe-n-kjpaw_psl.0.1.UPF: wavefunction(s)  2P renormalized

     -------------------------------------
     Parameters for Dispersion Correction:
     -------------------------------------
       atom      VdW radius       C_6     

        C          2.744         60.710
        N          2.640         42.670
        H          1.892          4.857
        O          2.536         24.284

     Subspace diagonalization in iterative solution of the eigenvalue problem:
     a serial algorithm will be used

 
     Parallelization info
     --------------------
     sticks:   dense  smooth     PW     G-vecs:    dense   smooth      PW
     Min         810     810    214               121290   121290   16349
     Max         811     811    215               121297   121297   16353
     Sum        6483    6483   1715               970349   970349  130803
 


     bravais-lattice index     =            0
     lattice parameter (alat)  =      11.8125  a.u.
     unit-cell volume          =    7182.3994 (a.u.)^3
     number of atoms/cell      =          104
     number of atomic types    =            4
     number of electrons       =       352.00
     number of Kohn-Sham states=          211
     kinetic-energy cutoff     =     100.0000  Ry
     charge density cutoff     =     400.0000  Ry
     convergence threshold     =      1.0E-08
     mixing beta               =       0.5000
     number of iterations used =            8  plain     mixing
     Exchange-correlation      =  SLA  PW   PBX  PBC ( 1  4  3  4 0 0)

     celldm(1)=  11.812489  celldm(2)=   0.000000  celldm(3)=   0.000000
     celldm(4)=   0.000000  celldm(5)=   0.000000  celldm(6)=   0.000000

     crystal axes: (cart. coord. in units of alat)
               a(1) = (   1.000000   0.000000   0.000000 )  
               a(2) = (   0.000000   1.461022   0.000000 )  
               a(3) = (  -0.111138   0.000000   2.982556 )  

     reciprocal axes: (cart. coord. in units 2 pi/alat)
               b(1) = (  1.000000  0.000000  0.037263 )  
               b(2) = (  0.000000  0.684453  0.000000 )  
               b(3) = (  0.000000  0.000000  0.335283 )  


     PseudoPot. # 1 for  C read from file:
     /scratch/ahofstet/pseudo/C.pbe-n-kjpaw_psl.0.1.UPF
     MD5 check sum: 430fe95172b1e11ef3f8ed03bac87931
     Pseudo is Projector augmented-wave + core cor, Zval =  4.0
     Generated using "atomic" code by A. Dal Corso  v.5.0.99 svn rev. 10869
     Shape of augmentation charge: BESSEL
     Using radial grid of 1073 points,  4 beta functions with: 
                l(1) =   0
                l(2) =   0
                l(3) =   1
                l(4) =   1
     Q(r) pseudized with 0 coefficients 


     PseudoPot. # 2 for  N read from file:
     /scratch/ahofstet/pseudo/N.pbe-n-kjpaw_psl.0.1.UPF
     MD5 check sum: f73187c8b701007e77325f868c9291d7
     Pseudo is Projector augmented-wave + core cor, Zval =  5.0
     Generated using "atomic" code by A. Dal Corso  v.5.0.99 svn rev. 10869
     Shape of augmentation charge: PSQ
     Using radial grid of 1085 points,  4 beta functions with: 
                l(1) =   0
                l(2) =   0
                l(3) =   1
                l(4) =   1
     Q(r) pseudized with 0 coefficients 


     PseudoPot. # 3 for  H read from file:
     /scratch/ahofstet/pseudo/H.pbe-kjpaw_psl.0.1.UPF
     MD5 check sum: 94e484f906d9e9773b2f6e52662335b2
     Pseudo is Projector augmented-wave, Zval =  1.0
     Generated using "atomic" code by A. Dal Corso  v.5.0.99 svn rev. 10869
     Shape of augmentation charge: PSQ
     Using radial grid of  929 points,  2 beta functions with: 
                l(1) =   0
                l(2) =   0
     Q(r) pseudized with 0 coefficients 


     PseudoPot. # 4 for  O read from file:
     /scratch/ahofstet/pseudo/O.pbe-n-kjpaw_psl.0.1.UPF
     MD5 check sum: 3f94a2996a3169367d6eb21d9b593f20
     Pseudo is Projector augmented-wave + core cor, Zval =  6.0
     Generated using "atomic" code by A. Dal Corso  v.5.0.99 svn rev. 10869
     Shape of augmentation charge: BESSEL
     Using radial grid of 1095 points,  4 beta functions with: 
                l(1) =   0
                l(2) =   0
                l(3) =   1
                l(4) =   1
     Q(r) pseudized with 0 coefficients 


     atomic species   valence    mass     pseudopotential
        C              4.00    12.01070      C( 1.00)
        N              5.00    14.00670      N( 1.00)
        H              1.00     1.00794      H( 1.00)
        O              6.00    15.99940      O( 1.00)

      2 Sym. Ops., with inversion, found
          (note:  2 additional sym.ops. were found but ignored
           their fractional translations are incommensurate with FFT grid)


   Cartesian axes

     site n.     atom                  positions (alat units)
         1           O   tau(   1) = (   0.0249146   0.5887452   0.5567873  )
         2           O   tau(   2) = (   0.4195166   1.3192560   0.9344908  )
         3           O   tau(   3) = (   0.8639477   0.8722764   2.4257690  )
         4           O   tau(   4) = (   0.4693458   0.1417656   2.0480655  )
         5           O   tau(   5) = (   0.2380193   0.4693942   1.1455625  )
         6           O   tau(   6) = (   0.2064118   1.1999050   0.3457156  )
         7           O   tau(   7) = (   0.6508430   0.9916274   1.8369938  )
         8           O   tau(   8) = (   0.6824505   0.2611166   2.6368407  )
         9           O   tau(   9) = (   0.8078425   0.1514025   1.0392055  )
        10           O   tau(  10) = (   0.6365886   0.8819133   0.4520727  )
        11           O   tau(  11) = (   0.0810198   1.3096191   1.9433508  )
        12           O   tau(  12) = (   0.2522737   0.5791083   2.5304836  )
        13           O   tau(  13) = (   0.8883437   0.0772990   0.7037820  )
        14           O   tau(  14) = (   0.5560874   0.8078098   0.7874961  )
        15           O   tau(  15) = (   0.0005186   1.3837226   2.2787743  )
        16           O   tau(  16) = (   0.3327749   0.6532118   2.1950602  )
        17           N   tau(  17) = (   0.3136923   0.3881479   0.4509188  )
        18           N   tau(  18) = (   0.1307389   1.1186587   1.0403594  )
        19           N   tau(  19) = (   0.5751700   1.0728737   2.5316375  )
        20           N   tau(  20) = (   0.7581234   0.3423629   1.9421969  )
        21           N   tau(  21) = (   0.1925151   0.4824706   0.5874344  )
        22           N   tau(  22) = (   0.2519160   1.2129814   0.9038438  )
        23           N   tau(  23) = (   0.6963472   0.9785510   2.3951219  )
        24           N   tau(  24) = (   0.6369463   0.2480402   2.0787125  )
        25           N   tau(  25) = (   0.1350994   0.5260352   0.9618508  )
        26           N   tau(  26) = (   0.3093318   1.2565460   0.5294273  )
        27           N   tau(  27) = (   0.7537630   0.9349864   2.0207055  )
        28           N   tau(  28) = (   0.5795305   0.2044756   2.4531290  )
        29           N   tau(  29) = (   0.4303241   0.3617474   1.1063695  )
        30           N   tau(  30) = (   0.0141070   1.0922582   0.3849087  )
        31           N   tau(  31) = (   0.4585382   1.0992742   1.8761868  )
        32           N   tau(  32) = (   0.8747553   0.3687634   2.5976476  )
        33           N   tau(  33) = (   0.5970523   0.2627832   0.7715397  )
        34           N   tau(  34) = (   0.8473788   0.9932941   0.7197384  )
        35           N   tau(  35) = (   0.2918100   1.1982384   2.2110166  )
        36           N   tau(  36) = (   0.0414835   0.4677276   2.2628179  )
        37           N   tau(  37) = (   0.7752794   0.1557906   0.8461879  )
        38           N   tau(  38) = (   0.6691518   0.8863014   0.6450903  )
        39           N   tau(  39) = (   0.1135829   1.3052310   2.1363684  )
        40           N   tau(  40) = (   0.2197106   0.5747202   2.3374660  )
        41           C   tau(  41) = (   0.4105607   0.2719839   0.0923248  )
        42           C   tau(  42) = (   0.0338705   1.0024947   1.3989534  )
        43           C   tau(  43) = (   0.4783017   1.1890377   2.8902315  )
        44           C   tau(  44) = (   0.8549918   0.4585269   1.5836029  )
        45           H   tau(  45) = (   0.4502764   0.1170107   0.1654284  )
        46           H   tau(  46) = (  -0.0058453   0.8475215   1.3258498  )
        47           H   tau(  47) = (   0.4385859   1.3440110   2.8171279  )
        48           H   tau(  48) = (   0.8947076   0.6135002   1.6567065  )
        49           H   tau(  49) = (   0.5563012   0.3664211   0.0708321  )
        50           H   tau(  50) = (   0.8881300   1.0969319   1.4204460  )
        51           H   tau(  51) = (   0.3325612   1.0946006   2.9117241  )
        52           H   tau(  52) = (   0.0007323   0.3640897   1.5621103  )
        53           H   tau(  53) = (   0.2316433   0.2431626   2.9153953  )
        54           H   tau(  54) = (   0.1016502   0.9736734   1.5584391  )
        55           H   tau(  55) = (   0.6572190   1.2178590   0.0671610  )
        56           H   tau(  56) = (   0.7872121   0.4873482   1.4241172  )
        57           C   tau(  57) = (   0.0274592   0.2732543   0.2097080  )
        58           C   tau(  58) = (   0.4169720   1.0037651   1.2815702  )
        59           C   tau(  59) = (   0.8614031   1.1877673   2.7728483  )
        60           C   tau(  60) = (   0.4718903   0.4572565   1.7009861  )
        61           H   tau(  61) = (   0.9036785   0.3477290   0.3075641  )
        62           H   tau(  62) = (   0.5407527   1.0782398   1.1837141  )
        63           H   tau(  63) = (  -0.0148161   1.1132926   2.6749922  )
        64           H   tau(  64) = (   0.3481096   0.3827818   1.7988422  )
        65           H   tau(  65) = (   0.0477157   0.1066300   0.2603470  )
        66           H   tau(  66) = (   0.3967155   0.8371408   1.2309312  )
        67           H   tau(  67) = (   0.8411466   1.3543916   2.7222093  )
        68           H   tau(  68) = (   0.4921468   0.6238808   1.7516251  )
        69           H   tau(  69) = (  -0.0247676   0.2740865   0.0417573  )
        70           H   tau(  70) = (   0.4691988   1.0045973   1.4495208  )
        71           H   tau(  71) = (   0.9136300   1.1869351   2.9407990  )
        72           H   tau(  72) = (   0.4196635   0.4564243   1.5330355  )
        73           C   tau(  73) = (   0.2273389   0.6228531   0.1365120  )
        74           C   tau(  74) = (   0.2170922   1.3533639   1.3547661  )
        75           C   tau(  75) = (   0.6615234   0.8381685   2.8460443  )
        76           C   tau(  76) = (   0.6717701   0.1076577   1.6277902  )
        77           H   tau(  77) = (   0.0943318   0.7132515   0.2051110  )
        78           H   tau(  78) = (   0.3500994   1.4437623   1.2861672  )
        79           H   tau(  79) = (   0.7945306   0.7477702   2.7774453  )
        80           H   tau(  80) = (   0.5387629   0.0172593   1.6963891  )
        81           H   tau(  81) = (   0.2051466   0.6117299  -0.0376192  )
        82           H   tau(  82) = (   0.2392846   1.3422407   1.5288974  )
        83           H   tau(  83) = (   0.6837157   0.8492917   3.0201755  )
        84           H   tau(  84) = (   0.6495778   0.1187809   1.4536589  )
        85           H   tau(  85) = (   0.3776802   0.7079970   0.1681156  )
        86           H   tau(  86) = (   0.0667509   1.4385078   1.3231626  )
        87           H   tau(  87) = (   0.5111821   0.7530246   2.8144407  )
        88           H   tau(  88) = (   0.8221114   0.0225138   1.6593937  )
        89           C   tau(  89) = (   0.2417715   0.3928972   0.2240858  )
        90           C   tau(  90) = (   0.2026597   1.1234080   1.2671924  )
        91           C   tau(  91) = (   0.6470909   1.0681244   2.7584705  )
        92           C   tau(  92) = (   0.6862026   0.3376136   1.7153639  )
        93           C   tau(  93) = (   0.2566007   0.4550080   0.8074592  )
        94           C   tau(  94) = (   0.1878305   1.1855188   0.6838189  )
        95           C   tau(  95) = (   0.6322617   1.0060136   2.1750971  )
        96           C   tau(  96) = (   0.7010318   0.2755028   2.2987373  )
        97           C   tau(  97) = (   0.4412152   0.3515014   0.8960920  )
        98           C   tau(  98) = (   0.0032160   1.0820122   0.5951861  )
        99           C   tau(  99) = (   0.4476471   1.1095202   2.0864643  )
       100           C   tau( 100) = (   0.8856464   0.3790094   2.3873702  )
       101           H   tau( 101) = (   0.5663769   0.2564268   0.6096773  )
       102           H   tau( 102) = (   0.8780543   0.9869377   0.8816009  )
       103           H   tau( 103) = (   0.3224854   1.2045948   2.3728790  )
       104           H   tau( 104) = (   0.0108081   0.4740840   2.1009554  )

     number of k points=     4
                       cart. coord. in units 2pi/alat
        k(    1) = (   0.0000000   0.0000000   0.0000000), wk =   0.3333333
        k(    2) = (   0.0000000  -0.3422263   0.0000000), wk =   0.3333333
        k(    3) = (   0.3333333   0.0000000   0.0124209), wk =   0.6666667
        k(    4) = (   0.3333333  -0.3422263   0.0124209), wk =   0.6666667

     Dense  grid:   970349 G-vectors     FFT dimensions: (  75, 120, 225)

     Estimated max dynamical RAM per process >     867.21MB

     Estimated total allocated dynamical RAM >    6937.72MB

     Check: negative/imaginary core charge=   -0.000002    0.000000

     Initial potential from superposition of free atoms

     starting charge  351.99842, renormalised to  352.00000
     Starting wfc are  296 randomized atomic wfcs
     Checking if some PAW data can be deallocated... 

     total cpu time spent up to now is       40.2 secs

     per-process dynamical memory:   509.7 Mb

     Self-consistent Calculation

     iteration #  1     ecut=   100.00 Ry     beta=0.50
     Davidson diagonalization with overlap
     ethr =  1.00E-02,  avg # of iterations =  3.8

     total cpu time spent up to now is      140.2 secs

     total energy              =   -1829.10492900 Ry
     Harris-Foulkes estimate   =   -1835.24848256 Ry
     estimated scf accuracy    <      11.23414496 Ry

     iteration #  2     ecut=   100.00 Ry     beta=0.50
     Davidson diagonalization with overlap
     ethr =  3.19E-03,  avg # of iterations =  5.2

     total cpu time spent up to now is      209.9 secs

     total energy              =   -1830.83043169 Ry
     Harris-Foulkes estimate   =   -1831.88569043 Ry
     estimated scf accuracy    <       2.22576305 Ry

     iteration #  3     ecut=   100.00 Ry     beta=0.50
     Davidson diagonalization with overlap
     ethr =  6.32E-04,  avg # of iterations =  6.8

     total cpu time spent up to now is      292.4 secs

     total energy              =   -1831.49859197 Ry
     Harris-Foulkes estimate   =   -1831.76601375 Ry
     estimated scf accuracy    <       0.65544045 Ry

     iteration #  4     ecut=   100.00 Ry     beta=0.50
     Davidson diagonalization with overlap
     ethr =  1.86E-04,  avg # of iterations =  4.8

     total cpu time spent up to now is      351.0 secs

     total energy              =   -1831.54732143 Ry
     Harris-Foulkes estimate   =   -1831.62402770 Ry
     estimated scf accuracy    <       0.17726579 Ry

     iteration #  5     ecut=   100.00 Ry     beta=0.50
     Davidson diagonalization with overlap
     ethr =  5.04E-05,  avg # of iterations =  7.2

     total cpu time spent up to now is      438.4 secs

     total energy              =   -1831.59856773 Ry
     Harris-Foulkes estimate   =   -1831.63544449 Ry
     estimated scf accuracy    <       0.11402467 Ry

     iteration #  6     ecut=   100.00 Ry     beta=0.50
     Davidson diagonalization with overlap
     ethr =  3.24E-05,  avg # of iterations =  2.0

     total cpu time spent up to now is      490.8 secs

     total energy              =   -1831.60934916 Ry
     Harris-Foulkes estimate   =   -1831.61518132 Ry
     estimated scf accuracy    <       0.01493100 Ry

     iteration #  7     ecut=   100.00 Ry     beta=0.50
     Davidson diagonalization with overlap
     ethr =  4.24E-06,  avg # of iterations =  7.5

     total cpu time spent up to now is      581.5 secs

     total energy              =   -1831.61301973 Ry
     Harris-Foulkes estimate   =   -1831.61387559 Ry
     estimated scf accuracy    <       0.00202498 Ry

     iteration #  8     ecut=   100.00 Ry     beta=0.50
     Davidson diagonalization with overlap
     ethr =  5.75E-07,  avg # of iterations =  3.5

     total cpu time spent up to now is      641.0 secs

     total energy              =   -1831.61334954 Ry
     Harris-Foulkes estimate   =   -1831.61352634 Ry
     estimated scf accuracy    <       0.00048533 Ry

     iteration #  9     ecut=   100.00 Ry     beta=0.50
     Davidson diagonalization with overlap
     ethr =  1.38E-07,  avg # of iterations =  4.0

     total cpu time spent up to now is      723.3 secs

     total energy              =   -1831.61354409 Ry
     Harris-Foulkes estimate   =   -1831.61364654 Ry
     estimated scf accuracy    <       0.00033038 Ry

     iteration # 10     ecut=   100.00 Ry     beta=0.50
     Davidson diagonalization with overlap
     ethr =  9.39E-08,  avg # of iterations =  1.0

     total cpu time spent up to now is      772.9 secs

     total energy              =   -1831.61351691 Ry
     Harris-Foulkes estimate   =   -1831.61356596 Ry
     estimated scf accuracy    <       0.00009983 Ry

     iteration # 11     ecut=   100.00 Ry     beta=0.50
     Davidson diagonalization with overlap
     ethr =  2.84E-08,  avg # of iterations =  4.0

     total cpu time spent up to now is      852.7 secs

     total energy              =   -1831.61357229 Ry
     Harris-Foulkes estimate   =   -1831.61358322 Ry
     estimated scf accuracy    <       0.00005346 Ry

     iteration # 12     ecut=   100.00 Ry     beta=0.50
     Davidson diagonalization with overlap
     ethr =  1.52E-08,  avg # of iterations =  1.2

     total cpu time spent up to now is      902.6 secs

     total energy              =   -1831.61357177 Ry
     Harris-Foulkes estimate   =   -1831.61357636 Ry
     estimated scf accuracy    <       0.00002409 Ry

     iteration # 13     ecut=   100.00 Ry     beta=0.50
     Davidson diagonalization with overlap
     ethr =  6.84E-09,  avg # of iterations =  2.5

     total cpu time spent up to now is      954.3 secs

     total energy              =   -1831.61356576 Ry
     Harris-Foulkes estimate   =   -1831.61357290 Ry
     estimated scf accuracy    <       0.00001266 Ry

     iteration # 14     ecut=   100.00 Ry     beta=0.50
     Davidson diagonalization with overlap
     ethr =  3.60E-09,  avg # of iterations =  4.0

     total cpu time spent up to now is     1033.3 secs

     total energy              =   -1831.61357095 Ry
     Harris-Foulkes estimate   =   -1831.61357240 Ry
     estimated scf accuracy    <       0.00000318 Ry

     iteration # 15     ecut=   100.00 Ry     beta=0.50
     Davidson diagonalization with overlap
     ethr =  9.03E-10,  avg # of iterations =  3.5

     total cpu time spent up to now is     1085.4 secs

     total energy              =   -1831.61357077 Ry
     Harris-Foulkes estimate   =   -1831.61357113 Ry
     estimated scf accuracy    <       0.00000088 Ry

     iteration # 16     ecut=   100.00 Ry     beta=0.50
     Davidson diagonalization with overlap
     ethr =  2.50E-10,  avg # of iterations =  4.0

     total cpu time spent up to now is     1171.7 secs

     total energy              =   -1831.61357152 Ry
     Harris-Foulkes estimate   =   -1831.61357157 Ry
     estimated scf accuracy    <       0.00000038 Ry

     iteration # 17     ecut=   100.00 Ry     beta=0.50
     Davidson diagonalization with overlap
     ethr =  1.09E-10,  avg # of iterations =  1.0

     total cpu time spent up to now is     1222.0 secs

     total energy              =   -1831.61357143 Ry
     Harris-Foulkes estimate   =   -1831.61357154 Ry
     estimated scf accuracy    <       0.00000030 Ry

     iteration # 18     ecut=   100.00 Ry     beta=0.50
     Davidson diagonalization with overlap
     ethr =  8.62E-11,  avg # of iterations =  3.8

     total cpu time spent up to now is     1277.0 secs

     total energy              =   -1831.61357142 Ry
     Harris-Foulkes estimate   =   -1831.61357145 Ry
     estimated scf accuracy    <       0.00000008 Ry

     iteration # 19     ecut=   100.00 Ry     beta=0.50
     Davidson diagonalization with overlap
     ethr =  2.20E-11,  avg # of iterations =  4.0

     total cpu time spent up to now is     1355.6 secs

     End of self-consistent calculation

          k = 0.0000 0.0000 0.0000 (121333 PWs)   bands (ev):

   -25.5180 -25.5180 -25.5119 -25.5119 -24.1555 -24.1554 -24.1539 -24.1539
   -23.4483 -23.4482 -23.4459 -23.4458 -20.8242 -20.8242 -20.8231 -20.8231
   -19.1732 -19.1732 -19.1153 -19.1153 -18.3158 -18.3157 -18.2850 -18.2848
   -17.1472 -17.1468 -17.1453 -17.1452 -16.1967 -16.1957 -16.1582 -16.1579
   -14.3400 -14.3199 -14.3121 -14.3029 -12.6259 -12.6256 -12.6005 -12.5997
   -12.1826 -12.1346 -12.1293 -12.1223 -10.5882 -10.5832 -10.4828 -10.4817
   -10.4278 -10.4222 -10.2692 -10.2655  -9.9726  -9.9497  -9.9428  -9.9412
    -9.2571  -9.2502  -9.1447  -9.1405  -8.6971  -8.6785  -8.6328  -8.6285
    -7.9818  -7.9539  -7.9522  -7.9438  -7.9387  -7.9276  -7.8537  -7.8498
    -7.8014  -7.7928  -7.7744  -7.7718  -7.1069  -7.0975  -7.0679  -7.0442
    -6.8930  -6.8784  -6.8474  -6.8381  -6.4642  -6.4611  -6.4511  -6.4400
    -6.0700  -6.0678  -6.0281  -6.0106  -5.7251  -5.6948  -5.5710  -5.5697
    -4.9093  -4.8268  -4.7995  -4.7826  -4.5251  -4.5015  -4.4663  -4.3398
    -4.3310  -4.2735  -4.2100  -4.1629  -3.7085  -3.7007  -3.5160  -3.4245
    -3.4089  -3.3364  -3.2994  -3.2271  -2.9718  -2.9643  -2.9174  -2.9146
    -2.8505  -2.8504  -2.8487  -2.8347  -2.8045  -2.7118  -2.6868  -2.6864
    -2.3994  -2.3270  -2.2624  -2.2173  -2.1764  -2.1265  -2.0756  -2.0655
    -2.0592  -2.0410  -2.0222  -1.9920  -1.9824  -1.8713  -1.8423  -1.7989
    -1.7825  -1.7696  -1.7510  -1.7331  -1.7032  -1.7032  -1.6529  -1.6354
    -1.6180  -1.5302  -1.5061  -1.4970  -1.1884  -1.0945  -1.0931  -1.0837
    -0.8266  -0.8197  -0.8069  -0.7804  -0.6976  -0.6950  -0.6314  -0.6297
    -0.4834  -0.4549  -0.4170  -0.4068  -0.3199  -0.3073  -0.2819  -0.2236
     2.7379   2.7530   2.9171   2.9241   2.9893   2.9903   3.2275   3.2329
     4.2225   4.2518   4.4644   4.4882   5.9890   6.0061   6.1679   6.2020
     6.2052   6.5961   6.6238   6.6483   6.7331   6.7515   6.8150   6.9670
     7.1196   7.1209   7.1545   7.2881   7.4969   7.6765   7.7892   7.7978
     7.8401   8.0133   8.0912

          k = 0.0000-0.3422 0.0000 (121242 PWs)   bands (ev):

   -25.5150 -25.5150 -25.5150 -25.5150 -24.1547 -24.1547 -24.1546 -24.1546
   -23.4471 -23.4471 -23.4470 -23.4470 -20.8237 -20.8237 -20.8237 -20.8236
   -19.1449 -19.1449 -19.1448 -19.1448 -18.2998 -18.2998 -18.2998 -18.2998
   -17.1471 -17.1471 -17.1453 -17.1453 -16.1773 -16.1773 -16.1767 -16.1767
   -14.3270 -14.3270 -14.3106 -14.3106 -12.6136 -12.6136 -12.6130 -12.6130
   -12.1595 -12.1595 -12.1263 -12.1263 -10.5635 -10.5635 -10.5101 -10.5101
   -10.3560 -10.3560 -10.3335 -10.3335  -9.9570  -9.9570  -9.9436  -9.9435
    -9.1996  -9.1996  -9.1932  -9.1932  -8.6633  -8.6633  -8.6518  -8.6518
    -7.9619  -7.9619  -7.9407  -7.9407  -7.9157  -7.9157  -7.9072  -7.9072
    -7.7785  -7.7785  -7.7775  -7.7775  -7.1044  -7.1044  -7.0882  -7.0882
    -6.8508  -6.8508  -6.8315  -6.8315  -6.4713  -6.4713  -6.4527  -6.4527
    -6.0626  -6.0626  -6.0464  -6.0464  -5.6514  -5.6514  -5.6134  -5.6134
    -4.8405  -4.8405  -4.7852  -4.7852  -4.4780  -4.4780  -4.4360  -4.4360
    -4.3182  -4.3182  -4.1988  -4.1988  -3.5578  -3.5578  -3.5482  -3.5482
    -3.4482  -3.4482  -3.2774  -3.2774  -2.9696  -2.9696  -2.9281  -2.9281
    -2.8497  -2.8497  -2.8335  -2.8335  -2.7544  -2.7544  -2.6655  -2.6655
    -2.3108  -2.3108  -2.2752  -2.2752  -2.1190  -2.1190  -2.1042  -2.1042
    -2.0245  -2.0244  -1.9684  -1.9684  -1.8876  -1.8876  -1.8615  -1.8615
    -1.7946  -1.7946  -1.7472  -1.7472  -1.7031  -1.7031  -1.6606  -1.6606
    -1.5913  -1.5913  -1.5394  -1.5394  -1.1517  -1.1517  -1.0776  -1.0776
    -0.8136  -0.8136  -0.7977  -0.7977  -0.6367  -0.6367  -0.6328  -0.6328
    -0.4653  -0.4652  -0.4364  -0.4364  -0.3100  -0.3100  -0.2813  -0.2813
     2.8243   2.8243   2.8321   2.8321   3.0940   3.0940   3.0967   3.0967
     4.3554   4.3554   4.3834   4.3834   6.0603   6.0603   6.1284   6.1284
     6.5776   6.5776   6.6860   6.6860   6.7608   6.7608   6.8925   6.8925
     7.1900   7.1900   7.2578   7.2578   7.3539   7.3539   7.6549   7.6549
     7.8877   7.8877   8.0868

          k = 0.3333 0.0000 0.0124 (121385 PWs)   bands (ev):

   -25.5164 -25.5164 -25.5111 -25.5111 -24.1587 -24.1586 -24.1542 -24.1542
   -23.4479 -23.4479 -23.4462 -23.4461 -20.8248 -20.8248 -20.8234 -20.8234
   -19.1611 -19.1610 -19.1321 -19.1321 -18.3093 -18.3093 -18.2843 -18.2842
   -17.1560 -17.1551 -17.1438 -17.1430 -16.1909 -16.1908 -16.1532 -16.1527
   -14.3251 -14.3121 -14.3083 -14.3064 -12.6300 -12.6297 -12.5939 -12.5937
   -12.1621 -12.1308 -12.1276 -12.1255 -10.5855 -10.5845 -10.5584 -10.5573
   -10.4238 -10.4195 -10.3281 -10.3269  -9.9625  -9.9521  -9.9417  -9.9413
    -9.2449  -9.2414  -9.1565  -9.1548  -8.6605  -8.6410  -8.6208  -8.6081
    -8.0316  -8.0300  -7.9903  -7.9876  -7.9556  -7.9382  -7.9271  -7.9231
    -7.7800  -7.7782  -7.7366  -7.7333  -7.0395  -7.0309  -6.9594  -6.9571
    -6.8972  -6.8790  -6.7960  -6.7924  -6.5076  -6.4996  -6.4144  -6.4124
    -6.0571  -6.0518  -6.0186  -6.0120  -5.6284  -5.6264  -5.5276  -5.5217
    -4.8763  -4.8371  -4.8041  -4.7991  -4.4124  -4.4103  -4.3504  -4.3292
    -4.3099  -4.2613  -4.2001  -4.1650  -3.6891  -3.6722  -3.5376  -3.5061
    -3.3962  -3.3913  -3.3380  -3.3072  -2.9961  -2.9757  -2.9176  -2.9031
    -2.8986  -2.8577  -2.8272  -2.8223  -2.7801  -2.7342  -2.6430  -2.6360
    -2.3940  -2.3803  -2.3687  -2.3235  -2.1831  -2.1712  -2.1476  -2.0985
    -2.0770  -2.0744  -1.9690  -1.9571  -1.9484  -1.8984  -1.8571  -1.8189
    -1.7686  -1.7581  -1.7525  -1.7297  -1.6992  -1.6978  -1.6755  -1.6377
    -1.5922  -1.5759  -1.5579  -1.4904  -1.1965  -1.1561  -1.1411  -1.1031
    -0.8338  -0.8319  -0.7864  -0.7863  -0.7660  -0.7441  -0.6771  -0.6736
    -0.4558  -0.4491  -0.4227  -0.4184  -0.3377  -0.3217  -0.2876  -0.2739
     2.7206   2.7272   2.8893   2.8924   2.9519   2.9529   3.2103   3.2122
     4.3169   4.3253   4.4429   4.4503   6.0811   6.0967   6.1818   6.2280
     6.5120   6.5658   6.6108   6.7098   6.7402   6.7707   6.9142   7.0101
     7.1877   7.1982   7.3019   7.5143   7.5996   7.6589   7.7639   7.7706
     7.9049   7.9669   8.0030

          k = 0.3333-0.3422 0.0124 (121246 PWs)   bands (ev):

   -25.5137 -25.5137 -25.5137 -25.5137 -24.1564 -24.1564 -24.1564 -24.1564
   -23.4471 -23.4471 -23.4470 -23.4470 -20.8241 -20.8241 -20.8241 -20.8241
   -19.1466 -19.1466 -19.1466 -19.1466 -18.2968 -18.2968 -18.2968 -18.2967
   -17.1501 -17.1501 -17.1492 -17.1492 -16.1719 -16.1719 -16.1715 -16.1715
   -14.3177 -14.3177 -14.3082 -14.3081 -12.6120 -12.6120 -12.6117 -12.6117
   -12.1456 -12.1456 -12.1275 -12.1275 -10.5809 -10.5809 -10.5570 -10.5570
   -10.4537 -10.4537 -10.2973 -10.2973  -9.9543  -9.9543  -9.9441  -9.9441
    -9.2021  -9.2021  -9.1987  -9.1987  -8.6435  -8.6435  -8.6230  -8.6230
    -7.9990  -7.9990  -7.9965  -7.9965  -7.9456  -7.9456  -7.9254  -7.9254
    -7.7756  -7.7756  -7.7734  -7.7734  -6.9876  -6.9876  -6.9813  -6.9813
    -6.8609  -6.8609  -6.8540  -6.8540  -6.4698  -6.4698  -6.4568  -6.4568
    -6.0473  -6.0473  -6.0374  -6.0374  -5.5616  -5.5616  -5.5451  -5.5451
    -4.8479  -4.8479  -4.8051  -4.8051  -4.4345  -4.4344  -4.3137  -4.3137
    -4.2539  -4.2539  -4.2246  -4.2246  -3.5865  -3.5865  -3.5792  -3.5792
    -3.4212  -3.4212  -3.2957  -3.2957  -3.0072  -3.0072  -2.9307  -2.9307
    -2.9029  -2.9029  -2.8362  -2.8362  -2.7515  -2.7515  -2.6363  -2.6363
    -2.3740  -2.3740  -2.3121  -2.3121  -2.1629  -2.1629  -2.1272  -2.1272
    -2.0338  -2.0338  -2.0169  -2.0169  -1.8763  -1.8763  -1.8159  -1.8159
    -1.7641  -1.7641  -1.7459  -1.7459  -1.6879  -1.6879  -1.6614  -1.6614
    -1.6208  -1.6208  -1.5758  -1.5758  -1.2066  -1.2066  -1.1293  -1.1293
    -0.8116  -0.8116  -0.7927  -0.7927  -0.7091  -0.7091  -0.6948  -0.6948
    -0.4442  -0.4442  -0.4162  -0.4162  -0.3268  -0.3268  -0.3044  -0.3044
     2.8046   2.8046   2.8090   2.8090   3.0750   3.0750   3.0818   3.0818
     4.3811   4.3811   4.3895   4.3895   6.1361   6.1362   6.1645   6.1645
     6.5947   6.5947   6.6319   6.6319   6.8536   6.8537   6.9556   6.9556
     7.3007   7.3007   7.3577   7.3577   7.4835   7.4835   7.6945   7.6945
     7.9369   7.9370   8.0879

     highest occupied, lowest unoccupied level (ev):    -0.2236    2.7206

!    total energy              =   -1831.61357145 Ry
     Harris-Foulkes estimate   =   -1831.61357146 Ry
     estimated scf accuracy    <          3.7E-09 Ry

     total all-electron energy =     -6910.673338 Ry

     The total energy is the sum of the following terms:

     one-electron contribution =   -1293.98401856 Ry
     hartree contribution      =     775.86368330 Ry
     xc contribution           =    -375.03090380 Ry
     ewald contribution        =    -427.23810833 Ry
     Dispersion Correction     =      -0.42877253 Ry
     one-center paw contrib.   =    -510.79545154 Ry

     convergence has been achieved in  19 iterations

     Forces acting on atoms (cartesian axes, Ry/au):

     atom    1 type  4   force =    -0.00032962   -0.00115501    0.00110344
     atom    2 type  4   force =     0.00032638   -0.00115694   -0.00110526
     atom    3 type  4   force =     0.00032962    0.00115501   -0.00110344
     atom    4 type  4   force =    -0.00032638    0.00115694    0.00110526
     atom    5 type  4   force =     0.00008428    0.00286051   -0.00197556
     atom    6 type  4   force =    -0.00008481    0.00285936    0.00197759
     atom    7 type  4   force =    -0.00008428   -0.00286051    0.00197556
     atom    8 type  4   force =     0.00008481   -0.00285936   -0.00197759
     atom    9 type  4   force =    -0.00131104   -0.00032847   -0.00056630
     atom   10 type  4   force =     0.00130975   -0.00032831    0.00057129
     atom   11 type  4   force =     0.00131104    0.00032847    0.00056630
     atom   12 type  4   force =    -0.00130975    0.00032831   -0.00057129
     atom   13 type  4   force =     0.00085934    0.00105527    0.00141869
     atom   14 type  4   force =    -0.00085729    0.00105410   -0.00141565
     atom   15 type  4   force =    -0.00085934   -0.00105527   -0.00141869
     atom   16 type  4   force =     0.00085729   -0.00105410    0.00141565
     atom   17 type  2   force =    -0.00075039    0.00123159   -0.00030024
     atom   18 type  2   force =     0.00074663    0.00122913    0.00030104
     atom   19 type  2   force =     0.00075039   -0.00123159    0.00030024
     atom   20 type  2   force =    -0.00074663   -0.00122913   -0.00030104
     atom   21 type  2   force =     0.00070194   -0.00033020   -0.00024328
     atom   22 type  2   force =    -0.00070051   -0.00032884    0.00024166
     atom   23 type  2   force =    -0.00070194    0.00033020    0.00024328
     atom   24 type  2   force =     0.00070051    0.00032884   -0.00024166
     atom   25 type  2   force =    -0.00121062   -0.00078827    0.00456355
     atom   26 type  2   force =     0.00121020   -0.00078849   -0.00456473
     atom   27 type  2   force =     0.00121062    0.00078827   -0.00456355
     atom   28 type  2   force =    -0.00121020    0.00078849    0.00456473
     atom   29 type  2   force =     0.00000512   -0.00003585    0.00061304
     atom   30 type  2   force =    -0.00000415   -0.00003498   -0.00060949
     atom   31 type  2   force =    -0.00000512    0.00003585   -0.00061304
     atom   32 type  2   force =     0.00000415    0.00003498    0.00060949
     atom   33 type  2   force =     0.00360367    0.00103779   -0.00088801
     atom   34 type  2   force =    -0.00360361    0.00103793    0.00088762
     atom   35 type  2   force =    -0.00360367   -0.00103779    0.00088801
     atom   36 type  2   force =     0.00360361   -0.00103793   -0.00088762
     atom   37 type  2   force =    -0.00065079    0.00138130   -0.00216976
     atom   38 type  2   force =     0.00065045    0.00138162    0.00216659
     atom   39 type  2   force =     0.00065079   -0.00138130    0.00216976
     atom   40 type  2   force =    -0.00065045   -0.00138162   -0.00216659
     atom   41 type  1   force =    -0.00733782   -0.00379844    0.00565242
     atom   42 type  1   force =     0.00733880   -0.00379905   -0.00564818
     atom   43 type  1   force =     0.00733782    0.00379844   -0.00565242
     atom   44 type  1   force =    -0.00733880    0.00379905    0.00564818
     atom   45 type  3   force =    -0.00025448    0.00107867   -0.00051408
     atom   46 type  3   force =     0.00025417    0.00107828    0.00051357
     atom   47 type  3   force =     0.00025448   -0.00107867    0.00051408
     atom   48 type  3   force =    -0.00025417   -0.00107828   -0.00051357
     atom   49 type  3   force =     0.00578193    0.00247135    0.00435267
     atom   50 type  3   force =    -0.00578247    0.00247191   -0.00435298
     atom   51 type  3   force =    -0.00578193   -0.00247135   -0.00435267
     atom   52 type  3   force =     0.00578247   -0.00247191    0.00435298
     atom   53 type  3   force =     0.00078520   -0.00055100   -0.00063355
     atom   54 type  3   force =    -0.00078459   -0.00055113    0.00063479
     atom   55 type  3   force =    -0.00078520    0.00055100    0.00063355
     atom   56 type  3   force =     0.00078459    0.00055113   -0.00063479
     atom   57 type  1   force =    -0.00157207   -0.00455059   -0.01025784
     atom   58 type  1   force =     0.00155578   -0.00454946    0.01024684
     atom   59 type  1   force =     0.00157207    0.00455059    0.01025784
     atom   60 type  1   force =    -0.00155578    0.00454946   -0.01024684
     atom   61 type  3   force =    -0.00398008    0.00297236    0.00063281
     atom   62 type  3   force =     0.00398048    0.00297251   -0.00063286
     atom   63 type  3   force =     0.00398008   -0.00297236   -0.00063281
     atom   64 type  3   force =    -0.00398048   -0.00297251    0.00063286
     atom   65 type  3   force =     0.00018620   -0.00116286    0.00003847
     atom   66 type  3   force =    -0.00018664   -0.00116335   -0.00003851
     atom   67 type  3   force =    -0.00018620    0.00116286   -0.00003847
     atom   68 type  3   force =     0.00018664    0.00116335    0.00003851
     atom   69 type  3   force =     0.00126949    0.00105982    0.00191456
     atom   70 type  3   force =    -0.00127021    0.00105988   -0.00191490
     atom   71 type  3   force =    -0.00126949   -0.00105982   -0.00191456
     atom   72 type  3   force =     0.00127021   -0.00105988    0.00191490
     atom   73 type  1   force =    -0.00011647   -0.00124616   -0.00097987
     atom   74 type  1   force =     0.00012797   -0.00124649    0.00099113
     atom   75 type  1   force =     0.00011647    0.00124616    0.00097987
     atom   76 type  1   force =    -0.00012797    0.00124649   -0.00099113
     atom   77 type  3   force =    -0.00011389   -0.00013077    0.00018998
     atom   78 type  3   force =     0.00011436   -0.00013056   -0.00019048
     atom   79 type  3   force =     0.00011389    0.00013077   -0.00018998
     atom   80 type  3   force =    -0.00011436    0.00013056    0.00019048
     atom   81 type  3   force =    -0.00019255   -0.00068848    0.00129389
     atom   82 type  3   force =     0.00019247   -0.00068878   -0.00129328
     atom   83 type  3   force =     0.00019255    0.00068848   -0.00129389
     atom   84 type  3   force =    -0.00019247    0.00068878    0.00129328
     atom   85 type  3   force =    -0.00000460    0.00044216    0.00038811
     atom   86 type  3   force =     0.00000488    0.00044198   -0.00038780
     atom   87 type  3   force =     0.00000460   -0.00044216   -0.00038811
     atom   88 type  3   force =    -0.00000488   -0.00044198    0.00038780
     atom   89 type  1   force =     0.00522588    0.00257998   -0.00049399
     atom   90 type  1   force =    -0.00524018    0.00258025    0.00046626
     atom   91 type  1   force =    -0.00522588   -0.00257998    0.00049399
     atom   92 type  1   force =     0.00524018   -0.00258025   -0.00046626
     atom   93 type  1   force =     0.00052634   -0.00388388   -0.00126160
     atom   94 type  1   force =    -0.00052108   -0.00388512    0.00125074
     atom   95 type  1   force =    -0.00052634    0.00388388    0.00126160
     atom   96 type  1   force =     0.00052108    0.00388512   -0.00125074
     atom   97 type  1   force =    -0.00230535    0.00075306   -0.00080346
     atom   98 type  1   force =     0.00229001    0.00075436    0.00081937
     atom   99 type  1   force =     0.00230535   -0.00075306    0.00080346
     atom  100 type  1   force =    -0.00229001   -0.00075436   -0.00081937
     atom  101 type  3   force =     0.00001532    0.00013643   -0.00040581
     atom  102 type  3   force =    -0.00001566    0.00013644    0.00040571
     atom  103 type  3   force =    -0.00001532   -0.00013643    0.00040581
     atom  104 type  3   force =     0.00001566   -0.00013644   -0.00040571

     Total force =     0.042635     Total SCF correction =     0.000085


     Computing stress (Cartesian axis) and pressure

          total   stress  (Ry/bohr**3)                   (kbar)     P=   -2.48
  -0.00000134  -0.00000000  -0.00000029         -0.20     -0.00     -0.04
  -0.00000000  -0.00000394   0.00000000         -0.00     -0.58      0.00
  -0.00000029   0.00000000  -0.00004531         -0.04      0.00     -6.67


     Writing output data file scf.save
 
     init_run     :     38.48s CPU     39.51s WALL (       1 calls)
     electrons    :   1269.41s CPU   1315.64s WALL (       1 calls)
     forces       :     21.58s CPU     21.82s WALL (       1 calls)
     stress       :     82.44s CPU     82.73s WALL (       1 calls)

     Called by init_run:
     wfcinit      :     26.45s CPU     27.32s WALL (       1 calls)
     potinit      :      4.28s CPU      4.31s WALL (       1 calls)

     Called by electrons:
     c_bands      :   1126.75s CPU   1164.38s WALL (      19 calls)
     sum_band     :    124.07s CPU    130.77s WALL (      19 calls)
     v_of_rho     :      2.78s CPU      3.04s WALL (      20 calls)
     newd         :      7.01s CPU      8.63s WALL (      20 calls)
     PAW_pot      :      8.19s CPU      8.19s WALL (      20 calls)
     mix_rho      :      0.70s CPU      0.73s WALL (      19 calls)

     Called by c_bands:
     init_us_2    :      6.00s CPU      6.09s WALL (     164 calls)
     cegterg      :   1103.38s CPU   1140.88s WALL (      76 calls)

     Called by sum_band:
     sum_band:bec :      0.06s CPU      0.06s WALL (      76 calls)
     addusdens    :      6.98s CPU      8.59s WALL (      19 calls)

     Called by *egterg:
     h_psi        :    588.94s CPU    616.97s WALL (     375 calls)
     s_psi        :    142.09s CPU    142.12s WALL (     375 calls)
     g_psi        :      2.60s CPU      2.60s WALL (     295 calls)
     cdiaghg      :     62.35s CPU     62.37s WALL (     371 calls)

     Called by h_psi:
     h_psi:pot    :    584.93s CPU    612.90s WALL (     375 calls)
     h_psi:calbec :    137.44s CPU    137.67s WALL (     375 calls)
     vloc_psi     :    305.17s CPU    332.86s WALL (     375 calls)
     add_vuspsi   :    142.32s CPU    142.37s WALL (     375 calls)

     General routines
     calbec       :    201.74s CPU    202.07s WALL (     471 calls)
     fft          :      1.69s CPU      2.12s WALL (     284 calls)
     fftw         :    325.41s CPU    357.11s WALL (  101742 calls)
 
     Parallel routines
     fft_scatter  :     59.32s CPU     87.89s WALL (  102026 calls)
 
     PWSCF        : 23m39.50s CPU    24m50.33s WALL

 
   This run was terminated on:   5:55:54  13Dec2017            

=------------------------------------------------------------------------------=
   JOB DONE.
=------------------------------------------------------------------------------=
