
     Program PWSCF v.6.1 (svn rev. 13369) starts on  3Nov2017 at 20:38:42 

     This program is part of the open-source Quantum ESPRESSO suite
     for quantum simulation of materials; please cite
         "P. Giannozzi et al., J. Phys.:Condens. Matter 21 395502 (2009);
          URL http://www.quantum-espresso.org", 
     in publications or presentations arising from this work. More details at
     http://www.quantum-espresso.org/quote

     Parallel version (MPI), running on     8 processors
     R & G space division:  proc/nbgrp/npool/nimage =       8
     Waiting for input...
     Reading input from standard input

     Current dimensions of program PWSCF are:
     Max number of different atomic species (ntypx) = 10
     Max number of k-points (npk) =  40000
     Max angular momentum in pseudopotentials (lmaxx) =  3
               file C.pbe-n-kjpaw_psl.0.1.UPF: wavefunction(s)  2P renormalized
               file N.pbe-n-kjpaw_psl.0.1.UPF: wavefunction(s)  2P renormalized
               file H.pbe-kjpaw_psl.0.1.UPF: wavefunction(s)  1S renormalized
               file O.pbe-n-kjpaw_psl.0.1.UPF: wavefunction(s)  2P renormalized

     -------------------------------------
     Parameters for Dispersion Correction:
     -------------------------------------
       atom      VdW radius       C_6     

        C          2.744         60.710
        N          2.640         42.670
        H          1.892          4.857
        O          2.536         24.284

     Subspace diagonalization in iterative solution of the eigenvalue problem:
     a serial algorithm will be used

 
     Parallelization info
     --------------------
     sticks:   dense  smooth     PW     G-vecs:    dense   smooth      PW
     Min         661     661    176                44177    44177    6119
     Max         662     662    177                44180    44180    6122
     Sum        5291    5291   1413               353425   353425   48965
 


     bravais-lattice index     =            0
     lattice parameter (alat)  =      12.7613  a.u.
     unit-cell volume          =    2616.2326 (a.u.)^3
     number of atoms/cell      =           38
     number of atomic types    =            4
     number of electrons       =       140.00
     number of Kohn-Sham states=           84
     kinetic-energy cutoff     =     100.0000  Ry
     charge density cutoff     =     400.0000  Ry
     convergence threshold     =      1.0E-08
     mixing beta               =       0.5000
     number of iterations used =            8  plain     mixing
     Exchange-correlation      =  SLA  PW   PBX  PBC ( 1  4  3  4 0 0)

     celldm(1)=  12.761321  celldm(2)=   0.000000  celldm(3)=   0.000000
     celldm(4)=   0.000000  celldm(5)=   0.000000  celldm(6)=   0.000000

     crystal axes: (cart. coord. in units of alat)
               a(1) = (   1.000000   0.000000   0.000000 )  
               a(2) = (   0.438211   1.020898   0.000000 )  
               a(3) = (   0.169373   0.119142   1.233126 )  

     reciprocal axes: (cart. coord. in units 2 pi/alat)
               b(1) = (  1.000000 -0.429241 -0.095880 )  
               b(2) = (  0.000000  0.979530 -0.094640 )  
               b(3) = (  0.000000  0.000000  0.810947 )  


     PseudoPot. # 1 for  C read from file:
     /scratch/ahofstet/pseudo/C.pbe-n-kjpaw_psl.0.1.UPF
     MD5 check sum: 430fe95172b1e11ef3f8ed03bac87931
     Pseudo is Projector augmented-wave + core cor, Zval =  4.0
     Generated using "atomic" code by A. Dal Corso  v.5.0.99 svn rev. 10869
     Shape of augmentation charge: BESSEL
     Using radial grid of 1073 points,  4 beta functions with: 
                l(1) =   0
                l(2) =   0
                l(3) =   1
                l(4) =   1
     Q(r) pseudized with 0 coefficients 


     PseudoPot. # 2 for  N read from file:
     /scratch/ahofstet/pseudo/N.pbe-n-kjpaw_psl.0.1.UPF
     MD5 check sum: f73187c8b701007e77325f868c9291d7
     Pseudo is Projector augmented-wave + core cor, Zval =  5.0
     Generated using "atomic" code by A. Dal Corso  v.5.0.99 svn rev. 10869
     Shape of augmentation charge: PSQ
     Using radial grid of 1085 points,  4 beta functions with: 
                l(1) =   0
                l(2) =   0
                l(3) =   1
                l(4) =   1
     Q(r) pseudized with 0 coefficients 


     PseudoPot. # 3 for  H read from file:
     /scratch/ahofstet/pseudo/H.pbe-kjpaw_psl.0.1.UPF
     MD5 check sum: 94e484f906d9e9773b2f6e52662335b2
     Pseudo is Projector augmented-wave, Zval =  1.0
     Generated using "atomic" code by A. Dal Corso  v.5.0.99 svn rev. 10869
     Shape of augmentation charge: PSQ
     Using radial grid of  929 points,  2 beta functions with: 
                l(1) =   0
                l(2) =   0
     Q(r) pseudized with 0 coefficients 


     PseudoPot. # 4 for  O read from file:
     /scratch/ahofstet/pseudo/O.pbe-n-kjpaw_psl.0.1.UPF
     MD5 check sum: 3f94a2996a3169367d6eb21d9b593f20
     Pseudo is Projector augmented-wave + core cor, Zval =  6.0
     Generated using "atomic" code by A. Dal Corso  v.5.0.99 svn rev. 10869
     Shape of augmentation charge: BESSEL
     Using radial grid of 1095 points,  4 beta functions with: 
                l(1) =   0
                l(2) =   0
                l(3) =   1
                l(4) =   1
     Q(r) pseudized with 0 coefficients 


     atomic species   valence    mass     pseudopotential
        C              4.00    12.01070      C( 1.00)
        N              5.00    14.00670      N( 1.00)
        H              1.00     1.00794      H( 1.00)
        O              6.00    15.99940      O( 1.00)

      2 Sym. Ops., with inversion, found



   Cartesian axes

     site n.     atom                  positions (alat units)
         1           O   tau(   1) = (   0.7345672   0.9535171   0.5913482  )
         2           O   tau(   2) = (   0.8730174   0.1865225   0.6417775  )
         3           H   tau(   3) = (   0.6756851   0.8212725   0.5393179  )
         4           H   tau(   4) = (   0.9318995   0.3187671   0.6938078  )
         5           N   tau(   5) = (   0.5027154   0.4281979   0.8841982  )
         6           N   tau(   6) = (   1.1048692   0.7118418   0.3489275  )
         7           H   tau(   7) = (   0.5495509   0.5499883   0.8048600  )
         8           H   tau(   8) = (   1.0580337   0.5900514   0.4282657  )
         9           C   tau(   9) = (   0.7205673   0.9509480   0.7871329  )
        10           C   tau(  10) = (   0.8870173   0.1890917   0.4459928  )
        11           O   tau(  11) = (   0.6455211   0.8163467   0.8840384  )
        12           O   tau(  12) = (   0.9620635   0.3236929   0.3490873  )
        13           N   tau(  13) = (   0.5514140   0.5528968   0.3310140  )
        14           N   tau(  14) = (   1.0561706   0.5871429   0.9021117  )
        15           C   tau(  15) = (   0.3670460   0.1071896   0.8872300  )
        16           C   tau(  16) = (   1.2405386   1.0328500   0.3458957  )
        17           O   tau(  17) = (   0.4753216   0.3856864   0.3091340  )
        18           O   tau(  18) = (   1.1322630   0.7543533   0.9239917  )
        19           C   tau(  19) = (   0.4287684   0.2733095   0.7833500  )
        20           C   tau(  20) = (   1.1788162   0.8667302   0.4497757  )
        21           H   tau(  21) = (   0.4229250   0.2884534   0.6227710  )
        22           H   tau(  22) = (   1.1846596   0.8515862   0.6103547  )
        23           O   tau(  23) = (   0.5866522   0.6138615   0.5096413  )
        24           O   tau(  24) = (   1.0209324   0.5261782   0.7234844  )
        25           C   tau(  25) = (   0.5219998   0.4318771   1.0830225  )
        26           C   tau(  26) = (   1.0855848   0.7081626   0.1501032  )
        27           H   tau(  27) = (   0.5875533   0.5646287   1.1465586  )
        28           H   tau(  28) = (   1.0200313   0.5754109   0.0865671  )
        29           C   tau(  29) = (   0.4618521   0.2690304   1.1925694  )
        30           C   tau(  30) = (   1.1457325   0.8710093   0.0405563  )
        31           H   tau(  31) = (   0.3079991   0.1539601   0.1195411  )
        32           H   tau(  32) = (   1.2995855   0.9860796   1.1135846  )
        33           O   tau(  33) = (   0.5927965   0.6627983   0.1886605  )
        34           O   tau(  34) = (   1.0147881   0.4772414   1.0444652  )
        35           C   tau(  35) = (   0.3840018   0.1057859   1.0938226  )
        36           C   tau(  36) = (   1.2235829   1.0342538   0.1393031  )
        37           H   tau(  37) = (   0.7743619   0.9953542   1.1741202  )
        38           H   tau(  38) = (   0.8332227   0.1446855   0.0590055  )

     number of k points=    10
                       cart. coord. in units 2pi/alat
        k(    1) = (   0.0000000   0.0000000   0.0000000), wk =   0.1111111
        k(    2) = (   0.0000000   0.0000000  -0.4054737), wk =   0.1111111
        k(    3) = (   0.0000000   0.3265101  -0.0315468), wk =   0.2222222
        k(    4) = (   0.0000000   0.3265101  -0.4370204), wk =   0.2222222
        k(    5) = (   0.3333333  -0.1430804  -0.0319602), wk =   0.2222222
        k(    6) = (   0.3333333  -0.1430804  -0.4374338), wk =   0.2222222
        k(    7) = (   0.3333333   0.1834297  -0.0635069), wk =   0.2222222
        k(    8) = (   0.3333333   0.1834297  -0.4689806), wk =   0.2222222
        k(    9) = (   0.3333333  -0.4695905  -0.0004134), wk =   0.2222222
        k(   10) = (   0.3333333  -0.4695905  -0.4058871), wk =   0.2222222

     Dense  grid:   353425 G-vectors     FFT dimensions: (  81,  96, 108)

     Estimated max dynamical RAM per process >     184.96MB

     Estimated total allocated dynamical RAM >    1479.69MB

     Check: negative/imaginary core charge=   -0.000003    0.000000

     Initial potential from superposition of free atoms

     starting charge  139.99934, renormalised to  140.00000
     Starting wfc are  116 randomized atomic wfcs
     Checking if some PAW data can be deallocated... 

     total cpu time spent up to now is       11.8 secs

     per-process dynamical memory:   201.7 Mb

     Self-consistent Calculation

     iteration #  1     ecut=   100.00 Ry     beta=0.50
     Davidson diagonalization with overlap
     ethr =  1.00E-02,  avg # of iterations =  3.4

     total cpu time spent up to now is       32.1 secs

     total energy              =    -763.75620460 Ry
     Harris-Foulkes estimate   =    -765.95000567 Ry
     estimated scf accuracy    <       3.99310309 Ry

     iteration #  2     ecut=   100.00 Ry     beta=0.50
     Davidson diagonalization with overlap
     ethr =  2.85E-03,  avg # of iterations =  3.0

     total cpu time spent up to now is       46.5 secs

     total energy              =    -764.35853824 Ry
     Harris-Foulkes estimate   =    -764.83988358 Ry
     estimated scf accuracy    <       1.02344687 Ry

     iteration #  3     ecut=   100.00 Ry     beta=0.50
     Davidson diagonalization with overlap
     ethr =  7.31E-04,  avg # of iterations =  4.8

     total cpu time spent up to now is       63.2 secs

     total energy              =    -764.61737692 Ry
     Harris-Foulkes estimate   =    -764.69860761 Ry
     estimated scf accuracy    <       0.19262495 Ry

     iteration #  4     ecut=   100.00 Ry     beta=0.50
     Davidson diagonalization with overlap
     ethr =  1.38E-04,  avg # of iterations =  5.7

     total cpu time spent up to now is       78.0 secs

     total energy              =    -764.64258126 Ry
     Harris-Foulkes estimate   =    -764.66244106 Ry
     estimated scf accuracy    <       0.04790138 Ry

     iteration #  5     ecut=   100.00 Ry     beta=0.50
     Davidson diagonalization with overlap
     ethr =  3.42E-05,  avg # of iterations =  6.0

     total cpu time spent up to now is       94.7 secs

     total energy              =    -764.65512577 Ry
     Harris-Foulkes estimate   =    -764.65893824 Ry
     estimated scf accuracy    <       0.01133936 Ry

     iteration #  6     ecut=   100.00 Ry     beta=0.50
     Davidson diagonalization with overlap
     ethr =  8.10E-06,  avg # of iterations =  2.6

     total cpu time spent up to now is      107.8 secs

     total energy              =    -764.65709920 Ry
     Harris-Foulkes estimate   =    -764.65751382 Ry
     estimated scf accuracy    <       0.00112374 Ry

     iteration #  7     ecut=   100.00 Ry     beta=0.50
     Davidson diagonalization with overlap
     ethr =  8.03E-07,  avg # of iterations =  6.2

     total cpu time spent up to now is      129.4 secs

     total energy              =    -764.65757781 Ry
     Harris-Foulkes estimate   =    -764.65768724 Ry
     estimated scf accuracy    <       0.00033111 Ry

     iteration #  8     ecut=   100.00 Ry     beta=0.50
     Davidson diagonalization with overlap
     ethr =  2.37E-07,  avg # of iterations =  3.0

     total cpu time spent up to now is      142.4 secs

     total energy              =    -764.65763241 Ry
     Harris-Foulkes estimate   =    -764.65764607 Ry
     estimated scf accuracy    <       0.00005024 Ry

     iteration #  9     ecut=   100.00 Ry     beta=0.50
     Davidson diagonalization with overlap
     ethr =  3.59E-08,  avg # of iterations =  3.4

     total cpu time spent up to now is      157.5 secs

     total energy              =    -764.65764381 Ry
     Harris-Foulkes estimate   =    -764.65764805 Ry
     estimated scf accuracy    <       0.00001206 Ry

     iteration # 10     ecut=   100.00 Ry     beta=0.50
     Davidson diagonalization with overlap
     ethr =  8.62E-09,  avg # of iterations =  3.1

     total cpu time spent up to now is      171.7 secs

     total energy              =    -764.65764650 Ry
     Harris-Foulkes estimate   =    -764.65764727 Ry
     estimated scf accuracy    <       0.00000227 Ry

     iteration # 11     ecut=   100.00 Ry     beta=0.50
     Davidson diagonalization with overlap
     ethr =  1.62E-09,  avg # of iterations =  3.0

     total cpu time spent up to now is      186.2 secs

     total energy              =    -764.65764704 Ry
     Harris-Foulkes estimate   =    -764.65764717 Ry
     estimated scf accuracy    <       0.00000034 Ry

     iteration # 12     ecut=   100.00 Ry     beta=0.50
     Davidson diagonalization with overlap
     ethr =  2.43E-10,  avg # of iterations =  3.1

     total cpu time spent up to now is      200.7 secs

     total energy              =    -764.65764713 Ry
     Harris-Foulkes estimate   =    -764.65764713 Ry
     estimated scf accuracy    <       0.00000003 Ry

     iteration # 13     ecut=   100.00 Ry     beta=0.50
     Davidson diagonalization with overlap
     ethr =  1.85E-11,  avg # of iterations =  3.8

     total cpu time spent up to now is      220.8 secs

     total energy              =    -764.65764714 Ry
     Harris-Foulkes estimate   =    -764.65764714 Ry
     estimated scf accuracy    <       0.00000001 Ry

     iteration # 14     ecut=   100.00 Ry     beta=0.50
     Davidson diagonalization with overlap
     ethr =  8.06E-12,  avg # of iterations =  1.0

     total cpu time spent up to now is      232.0 secs

     End of self-consistent calculation

          k = 0.0000 0.0000 0.0000 ( 44187 PWs)   bands (ev):

   -24.2670 -24.2617 -20.8226 -20.7846 -18.9575 -18.9566 -18.7956 -18.7902
   -18.6393 -18.6155 -18.4111 -18.3997 -14.3871 -14.3280 -13.3983 -13.3525
   -10.6058 -10.5806  -9.9518  -9.9395  -8.7874  -8.7723  -8.5890  -8.4210
    -7.3045  -7.2923  -6.6185  -6.6018  -6.5089  -6.4162  -6.3539  -6.3073
    -5.8395  -5.7973  -5.5558  -5.4862  -5.2910  -5.2793  -4.8669  -4.7331
    -4.7031  -4.6594  -4.6333  -4.4669  -4.0308  -3.9980  -3.1603  -3.1547
    -2.8172  -2.7556  -2.3323  -2.3179  -1.7894  -1.2766  -0.9894  -0.9364
    -0.8091  -0.7755  -0.7563  -0.6710  -0.6070  -0.4345  -0.3937  -0.3602
    -0.3151  -0.1777   0.1749   0.1779   1.0745   1.0771   3.6165   3.7559
     4.1834   4.2609   4.7129   5.0000   6.2244   6.3930   6.6616   7.5543
     8.7565   8.7990   8.8693   8.9911

          k = 0.0000 0.0000-0.4055 ( 44182 PWs)   bands (ev):

   -24.2656 -24.2631 -20.8227 -20.7849 -18.9585 -18.9556 -18.8023 -18.7888
   -18.6334 -18.6151 -18.4106 -18.4000 -14.3922 -14.3286 -13.4013 -13.3467
   -10.6029 -10.5620  -9.9525  -9.9445  -8.8991  -8.8482  -8.3864  -8.2707
    -7.5190  -7.4267  -6.6252  -6.6085  -6.4876  -6.4371  -6.1818  -6.1569
    -5.9443  -5.9253  -5.5138  -5.4733  -5.3333  -5.3017  -4.7807  -4.7588
    -4.7337  -4.5962  -4.5669  -4.5654  -4.0199  -4.0063  -3.1569  -3.1264
    -2.6274  -2.6053  -2.4656  -2.3925  -1.6582  -1.3377  -1.0398  -0.9893
    -0.8427  -0.8203  -0.7334  -0.7109  -0.5628  -0.5209  -0.4185  -0.3531
    -0.2490  -0.2095   0.1601   0.1643   1.0484   1.0811   3.5668   3.7946
     4.2297   4.2701   4.7777   4.9345   6.2426   6.3150   7.2505   7.4218
     8.3228   8.7022   9.0054   9.1145

          k = 0.0000 0.3265-0.0315 ( 44172 PWs)   bands (ev):

   -24.2669 -24.2617 -20.8203 -20.7829 -18.9586 -18.9568 -18.8046 -18.8005
   -18.6374 -18.6194 -18.4051 -18.4000 -14.3504 -14.2864 -13.3777 -13.3552
   -10.6685 -10.6598 -10.0016  -9.9828  -9.1335  -9.0625  -8.1172  -8.0543
    -7.4111  -7.3984  -6.4878  -6.4408  -6.4269  -6.4007  -6.1959  -6.1695
    -5.9388  -5.8807  -5.4660  -5.4543  -5.4038  -5.3957  -4.9242  -4.7913
    -4.7290  -4.6182  -4.6088  -4.4931  -4.0322  -3.9925  -3.2482  -3.2123
    -2.6732  -2.6446  -2.4352  -2.4232  -1.7728  -1.3140  -1.0286  -0.8901
    -0.8606  -0.8285  -0.7287  -0.6738  -0.6047  -0.4530  -0.3234  -0.3180
    -0.2730  -0.2019   0.0824   0.0887   1.0737   1.0805   3.6036   3.7536
     4.0610   4.1672   4.7631   4.9383   6.2547   6.5045   7.1616   7.9114
     8.2814   8.7658   8.8665   9.1117

          k = 0.0000 0.3265-0.4370 ( 44179 PWs)   bands (ev):

   -24.2655 -24.2631 -20.8203 -20.7832 -18.9583 -18.9559 -18.8103 -18.8032
   -18.6305 -18.6178 -18.4050 -18.4002 -14.3511 -14.2868 -13.3826 -13.3545
   -10.6726 -10.6444 -10.0012  -9.9917  -9.0751  -8.9976  -8.2134  -8.1427
    -7.4434  -7.4133  -6.4781  -6.4393  -6.4026  -6.3940  -6.2307  -6.2046
    -5.8635  -5.7877  -5.5148  -5.4975  -5.4171  -5.3651  -4.8655  -4.7573
    -4.7236  -4.6047  -4.5596  -4.5487  -4.0272  -3.9936  -3.2210  -3.1935
    -2.6679  -2.6322  -2.5217  -2.4961  -1.6583  -1.3182  -1.1020  -0.8934
    -0.8344  -0.8176  -0.7110  -0.6903  -0.5631  -0.5256  -0.3353  -0.3201
    -0.2633  -0.2396   0.0590   0.1053   1.0600   1.0915   3.5957   3.7635
     4.1089   4.1682   4.7694   4.9257   6.3135   6.3643   7.5435   7.8192
     8.3724   8.6189   8.8011   8.9280

          k = 0.3333-0.1431-0.0320 ( 44189 PWs)   bands (ev):

   -24.2660 -24.2625 -20.8189 -20.7884 -18.9572 -18.9566 -18.7998 -18.7875
   -18.6355 -18.6193 -18.4115 -18.3994 -14.3716 -14.3419 -13.3882 -13.3645
   -10.6011 -10.5861  -9.9696  -9.9233  -8.7853  -8.7757  -8.5528  -8.4664
    -7.3076  -7.2984  -6.6173  -6.6037  -6.4327  -6.4022  -6.3727  -6.2853
    -5.8334  -5.8011  -5.5647  -5.4769  -5.3339  -5.2286  -4.8239  -4.7778
    -4.6997  -4.6883  -4.6342  -4.5899  -4.1101  -3.8591  -3.1818  -3.1335
    -2.7963  -2.7427  -2.3313  -2.3088  -1.6557  -1.4052  -0.9666  -0.9196
    -0.8629  -0.8044  -0.7823  -0.7536  -0.6040  -0.4985  -0.3627  -0.2756
    -0.2377  -0.2075   0.1660   0.1867   1.0689   1.0728   3.4932   3.8584
     4.1337   4.1707   4.7464   5.0061   6.1714   6.4335   7.2186   7.7379
     8.7514   8.7989   8.9298   8.9830

          k = 0.3333-0.1431-0.4374 ( 44144 PWs)   bands (ev):

   -24.2648 -24.2636 -20.8190 -20.7888 -18.9583 -18.9553 -18.8015 -18.7905
   -18.6302 -18.6188 -18.4105 -18.4001 -14.3774 -14.3420 -13.3883 -13.3608
   -10.6001 -10.5688  -9.9849  -9.9083  -8.8935  -8.8581  -8.3617  -8.3017
    -7.5096  -7.4485  -6.6245  -6.6057  -6.4235  -6.3977  -6.2208  -6.1239
    -5.9417  -5.9280  -5.5108  -5.4753  -5.3410  -5.3020  -4.8523  -4.7650
    -4.7389  -4.7165  -4.5542  -4.4860  -4.1230  -3.8347  -3.1550  -3.1391
    -2.6188  -2.6051  -2.4422  -2.4018  -1.6191  -1.4407  -1.0094  -0.9325
    -0.8704  -0.8380  -0.8001  -0.7187  -0.5617  -0.5223  -0.4064  -0.3036
    -0.2510  -0.1943   0.1458   0.1531   1.0470   1.0730   3.3974   3.9554
     4.1504   4.2210   4.8194   4.9125   6.2073   6.3391   7.7920   8.0004
     8.4125   8.5570   8.7854   8.9284

          k = 0.3333 0.1834-0.0635 ( 44184 PWs)   bands (ev):

   -24.2660 -24.2625 -20.8176 -20.7854 -18.9583 -18.9565 -18.8056 -18.8008
   -18.6347 -18.6221 -18.4094 -18.3961 -14.3341 -14.3028 -13.3904 -13.3439
   -10.6744 -10.6536 -10.0210  -9.9620  -9.1173  -9.0835  -8.1214  -8.0476
    -7.4241  -7.3946  -6.4951  -6.4557  -6.3999  -6.3930  -6.2145  -6.1488
    -5.9557  -5.8720  -5.4941  -5.4333  -5.4284  -5.3733  -4.8198  -4.7542
    -4.7007  -4.6309  -4.5843  -4.5045  -4.1981  -3.9711  -3.2453  -3.2354
    -2.6777  -2.6202  -2.4292  -2.4087  -1.6328  -1.3535  -0.9629  -0.8777
    -0.8597  -0.8353  -0.7868  -0.7050  -0.5792  -0.4995  -0.4140  -0.3538
    -0.3104  -0.2309   0.0676   0.0936   1.0726   1.0796   3.6150   3.7064
     4.1031   4.2136   4.7771   4.9234   6.2127   6.4968   7.3259   8.0372
     8.6999   8.8504   8.9240   9.1384

          k = 0.3333 0.1834-0.4690 ( 44196 PWs)   bands (ev):

   -24.2648 -24.2636 -20.8177 -20.7856 -18.9586 -18.9549 -18.8102 -18.8040
   -18.6285 -18.6205 -18.4083 -18.3973 -14.3380 -14.3003 -13.3873 -13.3506
   -10.6674 -10.6503 -10.0316  -9.9598  -9.0574  -9.0186  -8.2099  -8.1434
    -7.4542  -7.4163  -6.4766  -6.4615  -6.3868  -6.3699  -6.2433  -6.1849
    -5.8567  -5.8056  -5.5553  -5.4562  -5.4300  -5.3533  -4.7696  -4.7543
    -4.7119  -4.6699  -4.5278  -4.4817  -4.2107  -3.9354  -3.2229  -3.1794
    -2.6462  -2.6375  -2.5173  -2.4957  -1.5691  -1.3873  -1.0473  -0.8615
    -0.8212  -0.8098  -0.7796  -0.7050  -0.5486  -0.5073  -0.4295  -0.3641
    -0.3254  -0.2298   0.0546   0.0681   1.0616   1.0896   3.5259   3.8201
     4.1320   4.1938   4.8134   4.8929   6.2359   6.4085   7.6415   8.0525
     8.6718   8.7241   8.8609   9.0327

          k = 0.3333-0.4696-0.0004 ( 44149 PWs)   bands (ev):

   -24.2659 -24.2625 -20.8170 -20.7862 -18.9584 -18.9565 -18.8074 -18.7989
   -18.6345 -18.6224 -18.4078 -18.3976 -14.3345 -14.3016 -13.3800 -13.3546
   -10.6751 -10.6531 -10.0189  -9.9659  -9.1196  -9.0795  -8.1016  -8.0743
    -7.4300  -7.3861  -6.4693  -6.4474  -6.4135  -6.3730  -6.2261  -6.1431
    -5.9248  -5.8967  -5.4992  -5.4444  -5.4135  -5.3690  -4.8048  -4.7999
    -4.7367  -4.6517  -4.6097  -4.5474  -4.1605  -3.9040  -3.2562  -3.2116
    -2.6667  -2.6284  -2.4337  -2.4142  -1.6301  -1.3835  -1.0022  -0.8777
    -0.8694  -0.8335  -0.8129  -0.6948  -0.6004  -0.4623  -0.3938  -0.3142
    -0.2840  -0.1980   0.0660   0.1002   1.0714   1.0779   3.5490   3.7813
     4.0674   4.1577   4.7832   4.9080   6.2300   6.5196   7.9160   7.9729
     8.1643   8.7100   8.8618   8.9869

          k = 0.3333-0.4696-0.4059 ( 44161 PWs)   bands (ev):

   -24.2648 -24.2636 -20.8170 -20.7865 -18.9584 -18.9553 -18.8096 -18.8046
   -18.6283 -18.6206 -18.4069 -18.3986 -14.3361 -14.3014 -13.3743 -13.3637
   -10.6693 -10.6493 -10.0353  -9.9561  -9.0658  -9.0102  -8.1814  -8.1764
    -7.4474  -7.4220  -6.4598  -6.4322  -6.3905  -6.3691  -6.2371  -6.2012
    -5.8455  -5.8111  -5.5551  -5.4655  -5.4005  -5.3755  -4.8457  -4.7568
    -4.7352  -4.6784  -4.5327  -4.4846  -4.1872  -3.8716  -3.2170  -3.1943
    -2.6637  -2.6239  -2.5074  -2.5032  -1.6164  -1.3743  -1.0273  -0.8934
    -0.8564  -0.8065  -0.7963  -0.6783  -0.5455  -0.5314  -0.3503  -0.3221
    -0.2856  -0.2542   0.0553   0.0731   1.0595   1.0873   3.4548   3.9029
     4.1048   4.1471   4.7957   4.8862   6.2511   6.4254   8.0072   8.3052
     8.4846   8.5175   8.8548   8.8747

     highest occupied, lowest unoccupied level (ev):     1.0915    3.3974

!    total energy              =    -764.65764714 Ry
     Harris-Foulkes estimate   =    -764.65764714 Ry
     estimated scf accuracy    <          1.8E-09 Ry

     total all-electron energy =     -2871.490941 Ry

     The total energy is the sum of the following terms:

     one-electron contribution =    -395.31235635 Ry
     hartree contribution      =     254.21586869 Ry
     xc contribution           =    -153.60651711 Ry
     ewald contribution        =    -261.64295402 Ry
     Dispersion Correction     =      -0.16458929 Ry
     one-center paw contrib.   =    -208.14709906 Ry

     convergence has been achieved in  14 iterations

     Forces acting on atoms (cartesian axes, Ry/au):

     atom    1 type  4   force =     0.00008444   -0.00064373    0.00159256
     atom    2 type  4   force =    -0.00008444    0.00064373   -0.00159256
     atom    3 type  3   force =    -0.00026536   -0.00044663   -0.00091429
     atom    4 type  3   force =     0.00026536    0.00044663    0.00091429
     atom    5 type  2   force =    -0.00082805   -0.00567755    0.00349118
     atom    6 type  2   force =     0.00082805    0.00567755   -0.00349118
     atom    7 type  3   force =     0.00182762    0.00806597   -0.00121989
     atom    8 type  3   force =    -0.00182762   -0.00806597    0.00121989
     atom    9 type  1   force =    -0.00225855   -0.00566689   -0.00559168
     atom   10 type  1   force =     0.00225855    0.00566689    0.00559168
     atom   11 type  4   force =    -0.00020518   -0.00000803    0.00004171
     atom   12 type  4   force =     0.00020518    0.00000803   -0.00004171
     atom   13 type  2   force =    -0.00003226    0.00052059    0.00261731
     atom   14 type  2   force =     0.00003226   -0.00052059   -0.00261731
     atom   15 type  1   force =     0.00030650    0.00285377    0.00501687
     atom   16 type  1   force =    -0.00030650   -0.00285377   -0.00501687
     atom   17 type  4   force =     0.00002127   -0.00205548    0.00121431
     atom   18 type  4   force =    -0.00002127    0.00205548   -0.00121431
     atom   19 type  1   force =     0.00044008    0.00015948   -0.00244275
     atom   20 type  1   force =    -0.00044008   -0.00015948    0.00244275
     atom   21 type  3   force =     0.00030095    0.00039433   -0.00109140
     atom   22 type  3   force =    -0.00030095   -0.00039433    0.00109140
     atom   23 type  4   force =     0.00073874    0.00143274   -0.00194385
     atom   24 type  4   force =    -0.00073874   -0.00143274    0.00194385
     atom   25 type  1   force =     0.00103583   -0.00127566    0.00008643
     atom   26 type  1   force =    -0.00103583    0.00127566   -0.00008643
     atom   27 type  3   force =     0.00074278    0.00055745    0.00114713
     atom   28 type  3   force =    -0.00074278   -0.00055745   -0.00114713
     atom   29 type  1   force =     0.00064910    0.00106370    0.00048284
     atom   30 type  1   force =    -0.00064910   -0.00106370   -0.00048284
     atom   31 type  3   force =    -0.00069720   -0.00027582   -0.00067316
     atom   32 type  3   force =     0.00069720    0.00027582    0.00067316
     atom   33 type  4   force =     0.00047169    0.00135563   -0.00211837
     atom   34 type  4   force =    -0.00047169   -0.00135563    0.00211837
     atom   35 type  1   force =    -0.00084300   -0.00029263    0.00048796
     atom   36 type  1   force =     0.00084300    0.00029263   -0.00048796
     atom   37 type  3   force =     0.00044008   -0.00005726    0.00088578
     atom   38 type  3   force =    -0.00044008    0.00005726   -0.00088578

     Total force =     0.022981     Total SCF correction =     0.000084


     Computing stress (Cartesian axis) and pressure

          total   stress  (Ry/bohr**3)                   (kbar)     P=    0.59
  -0.00002805   0.00002882   0.00000384         -4.13      4.24      0.56
   0.00002882   0.00002549  -0.00000654          4.24      3.75     -0.96
   0.00000384  -0.00000654   0.00001461          0.56     -0.96      2.15


     Writing output data file scf.save
 
     init_run     :     10.91s CPU     11.22s WALL (       1 calls)
     electrons    :    210.41s CPU    220.34s WALL (       1 calls)
     forces       :      5.69s CPU      5.72s WALL (       1 calls)
     stress       :     15.83s CPU     15.84s WALL (       1 calls)

     Called by init_run:
     wfcinit      :      5.57s CPU      5.81s WALL (       1 calls)
     potinit      :      1.86s CPU      1.90s WALL (       1 calls)

     Called by electrons:
     c_bands      :    180.50s CPU    189.11s WALL (      14 calls)
     sum_band     :     24.82s CPU     25.86s WALL (      14 calls)
     v_of_rho     :      0.82s CPU      0.91s WALL (      15 calls)
     newd         :      1.47s CPU      1.49s WALL (      15 calls)
     PAW_pot      :      2.56s CPU      2.57s WALL (      15 calls)
     mix_rho      :      0.16s CPU      0.18s WALL (      14 calls)

     Called by c_bands:
     init_us_2    :      2.24s CPU      2.24s WALL (     310 calls)
     cegterg      :    173.27s CPU    181.85s WALL (     140 calls)

     Called by sum_band:
     sum_band:bec :      0.02s CPU      0.02s WALL (     140 calls)
     addusdens    :      1.53s CPU      1.54s WALL (      14 calls)

     Called by *egterg:
     h_psi        :    120.35s CPU    127.87s WALL (     671 calls)
     s_psi        :     11.96s CPU     11.96s WALL (     671 calls)
     g_psi        :      0.96s CPU      0.96s WALL (     521 calls)
     cdiaghg      :     11.36s CPU     11.35s WALL (     661 calls)

     Called by h_psi:
     h_psi:pot    :    119.33s CPU    126.83s WALL (     671 calls)
     h_psi:calbec :     10.92s CPU     11.02s WALL (     671 calls)
     vloc_psi     :     96.57s CPU    103.97s WALL (     671 calls)
     add_vuspsi   :     11.84s CPU     11.84s WALL (     671 calls)

     General routines
     calbec       :     15.94s CPU     16.05s WALL (     861 calls)
     fft          :      0.49s CPU      0.63s WALL (     219 calls)
     fftw         :    104.30s CPU    112.25s WALL (   78200 calls)
 
     Parallel routines
     fft_scatter  :     22.31s CPU     26.89s WALL (   78419 calls)
 
     PWSCF        :  4m 6.10s CPU     4m17.29s WALL

 
   This run was terminated on:  20:43: 0   3Nov2017            

=------------------------------------------------------------------------------=
   JOB DONE.
=------------------------------------------------------------------------------=
