
     Program PWSCF v.6.1 (svn rev. 13369) starts on  4Nov2017 at  2:52:10 

     This program is part of the open-source Quantum ESPRESSO suite
     for quantum simulation of materials; please cite
         "P. Giannozzi et al., J. Phys.:Condens. Matter 21 395502 (2009);
          URL http://www.quantum-espresso.org", 
     in publications or presentations arising from this work. More details at
     http://www.quantum-espresso.org/quote

     Parallel version (MPI), running on     8 processors
     R & G space division:  proc/nbgrp/npool/nimage =       8
     Waiting for input...
     Reading input from standard input

     Current dimensions of program PWSCF are:
     Max number of different atomic species (ntypx) = 10
     Max number of k-points (npk) =  40000
     Max angular momentum in pseudopotentials (lmaxx) =  3
               file C.pbe-n-kjpaw_psl.0.1.UPF: wavefunction(s)  2P renormalized
               file N.pbe-n-kjpaw_psl.0.1.UPF: wavefunction(s)  2P renormalized
               file H.pbe-kjpaw_psl.0.1.UPF: wavefunction(s)  1S renormalized
               file O.pbe-n-kjpaw_psl.0.1.UPF: wavefunction(s)  2P renormalized

     -------------------------------------
     Parameters for Dispersion Correction:
     -------------------------------------
       atom      VdW radius       C_6     

        C          2.744         60.710
        N          2.640         42.670
        H          1.892          4.857
        O          2.536         24.284

     Subspace diagonalization in iterative solution of the eigenvalue problem:
     a serial algorithm will be used

 
     Parallelization info
     --------------------
     sticks:   dense  smooth     PW     G-vecs:    dense   smooth      PW
     Min         817     817    216                73360    73360   10022
     Max         819     819    217                73362    73362   10024
     Sum        6539    6539   1733               586887   586887   80183
 


     bravais-lattice index     =            0
     lattice parameter (alat)  =      19.5058  a.u.
     unit-cell volume          =    4342.3381 (a.u.)^3
     number of atoms/cell      =           76
     number of atomic types    =            4
     number of electrons       =       200.00
     number of Kohn-Sham states=          120
     kinetic-energy cutoff     =     100.0000  Ry
     charge density cutoff     =     400.0000  Ry
     convergence threshold     =      1.0E-08
     mixing beta               =       0.5000
     number of iterations used =            8  plain     mixing
     Exchange-correlation      =  SLA  PW   PBX  PBC ( 1  4  3  4 0 0)

     celldm(1)=  19.505753  celldm(2)=   0.000000  celldm(3)=   0.000000
     celldm(4)=   0.000000  celldm(5)=   0.000000  celldm(6)=   0.000000

     crystal axes: (cart. coord. in units of alat)
               a(1) = (   1.000000   0.000000   0.000000 )  
               a(2) = (   0.000000   0.539053   0.000000 )  
               a(3) = (  -0.130045   0.000000   1.085436 )  

     reciprocal axes: (cart. coord. in units 2 pi/alat)
               b(1) = (  1.000000  0.000000  0.119809 )  
               b(2) = (  0.000000  1.855107  0.000000 )  
               b(3) = (  0.000000  0.000000  0.921288 )  


     PseudoPot. # 1 for  C read from file:
     /scratch/ahofstet/pseudo/C.pbe-n-kjpaw_psl.0.1.UPF
     MD5 check sum: 430fe95172b1e11ef3f8ed03bac87931
     Pseudo is Projector augmented-wave + core cor, Zval =  4.0
     Generated using "atomic" code by A. Dal Corso  v.5.0.99 svn rev. 10869
     Shape of augmentation charge: BESSEL
     Using radial grid of 1073 points,  4 beta functions with: 
                l(1) =   0
                l(2) =   0
                l(3) =   1
                l(4) =   1
     Q(r) pseudized with 0 coefficients 


     PseudoPot. # 2 for  N read from file:
     /scratch/ahofstet/pseudo/N.pbe-n-kjpaw_psl.0.1.UPF
     MD5 check sum: f73187c8b701007e77325f868c9291d7
     Pseudo is Projector augmented-wave + core cor, Zval =  5.0
     Generated using "atomic" code by A. Dal Corso  v.5.0.99 svn rev. 10869
     Shape of augmentation charge: PSQ
     Using radial grid of 1085 points,  4 beta functions with: 
                l(1) =   0
                l(2) =   0
                l(3) =   1
                l(4) =   1
     Q(r) pseudized with 0 coefficients 


     PseudoPot. # 3 for  H read from file:
     /scratch/ahofstet/pseudo/H.pbe-kjpaw_psl.0.1.UPF
     MD5 check sum: 94e484f906d9e9773b2f6e52662335b2
     Pseudo is Projector augmented-wave, Zval =  1.0
     Generated using "atomic" code by A. Dal Corso  v.5.0.99 svn rev. 10869
     Shape of augmentation charge: PSQ
     Using radial grid of  929 points,  2 beta functions with: 
                l(1) =   0
                l(2) =   0
     Q(r) pseudized with 0 coefficients 


     PseudoPot. # 4 for  O read from file:
     /scratch/ahofstet/pseudo/O.pbe-n-kjpaw_psl.0.1.UPF
     MD5 check sum: 3f94a2996a3169367d6eb21d9b593f20
     Pseudo is Projector augmented-wave + core cor, Zval =  6.0
     Generated using "atomic" code by A. Dal Corso  v.5.0.99 svn rev. 10869
     Shape of augmentation charge: BESSEL
     Using radial grid of 1095 points,  4 beta functions with: 
                l(1) =   0
                l(2) =   0
                l(3) =   1
                l(4) =   1
     Q(r) pseudized with 0 coefficients 


     atomic species   valence    mass     pseudopotential
        C              4.00    12.01070      C( 1.00)
        N              5.00    14.00670      N( 1.00)
        H              1.00     1.00794      H( 1.00)
        O              6.00    15.99940      O( 1.00)

      2 Sym. Ops. (no inversion) found ( 1 have fractional translation)



   Cartesian axes

     site n.     atom                  positions (alat units)
         1           C   tau(   1) = (   0.5700887   0.0389770   0.6190931  )
         2           C   tau(   2) = (   0.2998660   0.3085032   0.4663433  )
         3           H   tau(   3) = (   0.5120792  -0.0276358   0.5587805  )
         4           H   tau(   4) = (   0.3578754   0.2418904   0.5266560  )
         5           C   tau(   5) = (   0.6993689   0.5123646   0.6665986  )
         6           C   tau(   6) = (   0.1705857   0.2428383   0.4188378  )
         7           H   tau(   7) = (   0.7116341   0.4125312   0.6333438  )
         8           H   tau(   8) = (   0.1583205   0.1430049   0.4520927  )
         9           C   tau(   9) = (   0.6937719   0.5213863   0.8153604  )
        10           C   tau(  10) = (   0.1761827   0.2518600   0.2700760  )
        11           H   tau(  11) = (   0.6443199   0.4325330   0.8514610  )
        12           H   tau(  12) = (   0.2256348   0.1630068   0.2339754  )
        13           H   tau(  13) = (   0.7909683   0.5252220   0.8584086  )
        14           H   tau(  14) = (   0.0789863   0.2556958   0.2270278  )
        15           C   tau(  15) = (   0.6080729   0.0999948   0.8428351  )
        16           C   tau(  16) = (   0.2618817   0.3695211   0.2426014  )
        17           H   tau(  17) = (   0.5714398   0.1031747   0.9424886  )
        18           H   tau(  18) = (   0.2985149   0.3727010   0.1429478  )
        19           H   tau(  19) = (   0.6625836   0.1918555   0.8256421  )
        20           H   tau(  20) = (   0.2073710   0.4613817   0.2597943  )
        21           C   tau(  21) = (   0.4994476   0.0832108   0.7422996  )
        22           C   tau(  22) = (   0.3705071   0.3527371   0.3431368  )
        23           H   tau(  23) = (   0.4344822   0.0058645   0.7763085  )
        24           H   tau(  24) = (   0.4354725   0.2753908   0.3091279  )
        25           H   tau(  25) = (   0.4416278   0.1709956   0.7264349  )
        26           H   tau(  26) = (   0.4283269   0.4405219   0.3590015  )
        27           C   tau(  27) = (   0.7521460   0.1573430   0.5432580  )
        28           C   tau(  28) = (   0.1178086   0.4268692   0.5421784  )
        29           C   tau(  29) = (   0.1414809   0.1921809   0.8145792  )
        30           C   tau(  30) = (   0.7284738   0.4617071   0.2708573  )
        31           H   tau(  31) = (   0.1508805   0.1150949   0.7418188  )
        32           H   tau(  32) = (   0.7190741   0.3846211   0.3436176  )
        33           C   tau(  33) = (   0.1601642   0.1396166   0.9556823  )
        34           C   tau(  34) = (   0.7097905   0.4091428   0.1297542  )
        35           H   tau(  35) = (   0.2029410   0.0417940   0.9596771  )
        36           H   tau(  36) = (   0.6670137   0.3113203   0.1257593  )
        37           C   tau(  37) = (   0.0241008   0.1419175   1.0147865  )
        38           C   tau(  38) = (   0.8458539   0.4114437   0.0706500  )
        39           H   tau(  39) = (  -0.0262425   0.0514095   0.9834989  )
        40           H   tau(  40) = (   0.8961972   0.3209357   0.1019375  )
        41           H   tau(  41) = (   0.1557666   0.1420839   0.0354307  )
        42           H   tau(  42) = (   0.7141881   0.4116102   1.0500058  )
        43           C   tau(  43) = (  -0.0402114   0.2601057   0.9529958  )
        44           C   tau(  44) = (   0.9101661   0.5296320   0.1324406  )
        45           H   tau(  45) = (  -0.0025651   0.3505072   0.9987612  )
        46           H   tau(  46) = (   0.8725197   0.0809810   0.0866752  )
        47           H   tau(  47) = (   0.8541299   0.2612322   0.9641877  )
        48           H   tau(  48) = (   0.0158248   0.5307584   0.1212487  )
        49           C   tau(  49) = (   0.0038090   0.2519944   0.8107959  )
        50           C   tau(  50) = (   0.8661457   0.5215206   0.2746405  )
        51           H   tau(  51) = (  -0.0606858   0.1873632   0.7562736  )
        52           H   tau(  52) = (   0.9306404   0.4568894   0.3291628  )
        53           H   tau(  53) = (   0.0042920   0.3462691   0.7617871  )
        54           H   tau(  54) = (   0.8656627   0.0767428   0.3236493  )
        55           C   tau(  55) = (   0.3058205   0.3102370   0.9193244  )
        56           C   tau(  56) = (   0.5641342   0.0407108   0.1661120  )
        57           N   tau(  57) = (   0.6170968   0.1462311   0.5384363  )
        58           N   tau(  58) = (   0.2528578   0.4157574   0.5470001  )
        59           H   tau(  59) = (   0.5650987   0.2298034   0.5340510  )
        60           H   tau(  60) = (   0.3048560   0.4993297   0.5513854  )
        61           N   tau(  61) = (   0.7995585   0.0538864   0.6075393  )
        62           N   tau(  62) = (   0.0703962   0.3234127   0.4778972  )
        63           H   tau(  63) = (   0.8952426   0.0244634   0.6002503  )
        64           H   tau(  64) = (  -0.0252880   0.2939896   0.4851861  )
        65           N   tau(  65) = (   0.2465296   0.2851780   0.8035783  )
        66           N   tau(  66) = (   0.6234251   0.0156518   0.2818581  )
        67           H   tau(  67) = (   0.2558024   0.3467946   0.7267095  )
        68           H   tau(  68) = (   0.6141522   0.0772684   0.3587269  )
        69           N   tau(  69) = (   0.2495463   0.2340608   1.0126926  )
        70           N   tau(  70) = (   0.6204084   0.5035870   0.0727438  )
        71           H   tau(  71) = (   0.2996076   0.2058652   1.0947063  )
        72           H   tau(  72) = (   0.5703470   0.4753914  -0.0092698  )
        73           O   tau(  73) = (   0.8132630   0.2457118   0.4886702  )
        74           O   tau(  74) = (   0.0566916   0.5152381   0.5967662  )
        75           O   tau(  75) = (   0.3973160   0.3879650   0.9338440  )
        76           O   tau(  76) = (   0.4726386   0.1184387   0.1515924  )

     number of k points=     8
                       cart. coord. in units 2pi/alat
        k(    1) = (   0.0000000   0.0000000   0.0000000), wk =   0.1666667
        k(    2) = (   0.0000000   0.0000000  -0.4606442), wk =   0.1666667
        k(    3) = (   0.0000000   0.6183689   0.0000000), wk =   0.3333333
        k(    4) = (   0.0000000   0.6183689  -0.4606442), wk =   0.3333333
        k(    5) = (  -0.5000000   0.0000000  -0.0599046), wk =   0.1666667
        k(    6) = (  -0.5000000   0.0000000  -0.5205488), wk =   0.1666667
        k(    7) = (  -0.5000000   0.6183689  -0.0599046), wk =   0.3333333
        k(    8) = (  -0.5000000   0.6183689  -0.5205488), wk =   0.3333333

     Dense  grid:   586887 G-vectors     FFT dimensions: ( 125,  72, 135)

     Estimated max dynamical RAM per process >     387.74MB

     Estimated total allocated dynamical RAM >    3101.93MB

     Check: negative/imaginary core charge=   -0.000002    0.000000

     Initial potential from superposition of free atoms

     starting charge  199.99856, renormalised to  200.00000
     Starting wfc are  184 randomized atomic wfcs
     Checking if some PAW data can be deallocated... 

     total cpu time spent up to now is       22.3 secs

     per-process dynamical memory:   287.8 Mb

     Self-consistent Calculation

     iteration #  1     ecut=   100.00 Ry     beta=0.50
     Davidson diagonalization with overlap
     ethr =  1.00E-02,  avg # of iterations =  3.9

     total cpu time spent up to now is       73.9 secs

     total energy              =    -881.37867587 Ry
     Harris-Foulkes estimate   =    -885.63802504 Ry
     estimated scf accuracy    <       8.07802772 Ry

     iteration #  2     ecut=   100.00 Ry     beta=0.50
     Davidson diagonalization with overlap
     ethr =  4.04E-03,  avg # of iterations =  2.0

     total cpu time spent up to now is      100.4 secs

     total energy              =    -882.02073250 Ry
     Harris-Foulkes estimate   =    -882.37765529 Ry
     estimated scf accuracy    <       0.81499866 Ry

     iteration #  3     ecut=   100.00 Ry     beta=0.50
     Davidson diagonalization with overlap
     ethr =  4.07E-04,  avg # of iterations =  5.0

     total cpu time spent up to now is      159.4 secs

     total energy              =    -882.83706443 Ry
     Harris-Foulkes estimate   =    -883.27272378 Ry
     estimated scf accuracy    <       1.29204368 Ry

     iteration #  4     ecut=   100.00 Ry     beta=0.50
     Davidson diagonalization with overlap
     ethr =  4.07E-04,  avg # of iterations =  1.4

     total cpu time spent up to now is      184.1 secs

     total energy              =    -882.56624573 Ry
     Harris-Foulkes estimate   =    -882.88745129 Ry
     estimated scf accuracy    <       0.48446527 Ry

     iteration #  5     ecut=   100.00 Ry     beta=0.50
     Davidson diagonalization with overlap
     ethr =  2.42E-04,  avg # of iterations =  5.5

     total cpu time spent up to now is      237.3 secs

     total energy              =    -882.90431071 Ry
     Harris-Foulkes estimate   =    -883.09043882 Ry
     estimated scf accuracy    <       0.64067592 Ry

     iteration #  6     ecut=   100.00 Ry     beta=0.50
     Davidson diagonalization with overlap
     ethr =  2.42E-04,  avg # of iterations =  1.0

     total cpu time spent up to now is      262.1 secs

     total energy              =    -882.74187445 Ry
     Harris-Foulkes estimate   =    -882.91929411 Ry
     estimated scf accuracy    <       0.30286021 Ry

     iteration #  7     ecut=   100.00 Ry     beta=0.50
     Davidson diagonalization with overlap
     ethr =  1.51E-04,  avg # of iterations =  5.4

     total cpu time spent up to now is      307.9 secs

     total energy              =    -882.88620963 Ry
     Harris-Foulkes estimate   =    -882.91536743 Ry
     estimated scf accuracy    <       0.08348272 Ry

     iteration #  8     ecut=   100.00 Ry     beta=0.50
     Davidson diagonalization with overlap
     ethr =  4.17E-05,  avg # of iterations =  1.6

     total cpu time spent up to now is      333.0 secs

     total energy              =    -882.87420931 Ry
     Harris-Foulkes estimate   =    -882.88907257 Ry
     estimated scf accuracy    <       0.03200854 Ry

     iteration #  9     ecut=   100.00 Ry     beta=0.50
     Davidson diagonalization with overlap
     ethr =  1.60E-05,  avg # of iterations =  6.5

     total cpu time spent up to now is      378.1 secs

     total energy              =    -882.89082151 Ry
     Harris-Foulkes estimate   =    -882.89163463 Ry
     estimated scf accuracy    <       0.00388387 Ry

     iteration # 10     ecut=   100.00 Ry     beta=0.50
     Davidson diagonalization with overlap
     ethr =  1.94E-06,  avg # of iterations =  2.0

     total cpu time spent up to now is      404.0 secs

     total energy              =    -882.88989927 Ry
     Harris-Foulkes estimate   =    -882.89093128 Ry
     estimated scf accuracy    <       0.00231137 Ry

     iteration # 11     ecut=   100.00 Ry     beta=0.50
     Davidson diagonalization with overlap
     ethr =  1.16E-06,  avg # of iterations =  3.0

     total cpu time spent up to now is      438.1 secs

     total energy              =    -882.89048579 Ry
     Harris-Foulkes estimate   =    -882.89049611 Ry
     estimated scf accuracy    <       0.00003085 Ry

     iteration # 12     ecut=   100.00 Ry     beta=0.50
     Davidson diagonalization with overlap
     ethr =  1.54E-08,  avg # of iterations =  4.0

     total cpu time spent up to now is      490.4 secs

     total energy              =    -882.89051405 Ry
     Harris-Foulkes estimate   =    -882.89051467 Ry
     estimated scf accuracy    <       0.00001492 Ry

     iteration # 13     ecut=   100.00 Ry     beta=0.50
     Davidson diagonalization with overlap
     ethr =  7.46E-09,  avg # of iterations =  1.5

     total cpu time spent up to now is      515.4 secs

     total energy              =    -882.89050624 Ry
     Harris-Foulkes estimate   =    -882.89051483 Ry
     estimated scf accuracy    <       0.00001382 Ry

     iteration # 14     ecut=   100.00 Ry     beta=0.50
     Davidson diagonalization with overlap
     ethr =  6.91E-09,  avg # of iterations =  3.0

     total cpu time spent up to now is      550.9 secs

     total energy              =    -882.89051037 Ry
     Harris-Foulkes estimate   =    -882.89051106 Ry
     estimated scf accuracy    <       0.00000192 Ry

     iteration # 15     ecut=   100.00 Ry     beta=0.50
     Davidson diagonalization with overlap
     ethr =  9.58E-10,  avg # of iterations =  3.0

     total cpu time spent up to now is      577.6 secs

     total energy              =    -882.89051010 Ry
     Harris-Foulkes estimate   =    -882.89051052 Ry
     estimated scf accuracy    <       0.00000072 Ry

     iteration # 16     ecut=   100.00 Ry     beta=0.50
     Davidson diagonalization with overlap
     ethr =  3.59E-10,  avg # of iterations =  4.0

     total cpu time spent up to now is      622.8 secs

     total energy              =    -882.89051060 Ry
     Harris-Foulkes estimate   =    -882.89051068 Ry
     estimated scf accuracy    <       0.00000038 Ry

     iteration # 17     ecut=   100.00 Ry     beta=0.50
     Davidson diagonalization with overlap
     ethr =  1.89E-10,  avg # of iterations =  1.0

     total cpu time spent up to now is      647.4 secs

     total energy              =    -882.89051048 Ry
     Harris-Foulkes estimate   =    -882.89051061 Ry
     estimated scf accuracy    <       0.00000024 Ry

     iteration # 18     ecut=   100.00 Ry     beta=0.50
     Davidson diagonalization with overlap
     ethr =  1.22E-10,  avg # of iterations =  4.0

     total cpu time spent up to now is      685.6 secs

     total energy              =    -882.89051056 Ry
     Harris-Foulkes estimate   =    -882.89051057 Ry
     estimated scf accuracy    <       0.00000002 Ry

     iteration # 19     ecut=   100.00 Ry     beta=0.50
     Davidson diagonalization with overlap
     ethr =  1.12E-11,  avg # of iterations =  3.0

     total cpu time spent up to now is      711.9 secs

     total energy              =    -882.89051056 Ry
     Harris-Foulkes estimate   =    -882.89051056 Ry
     estimated scf accuracy    <       0.00000001 Ry

     iteration # 20     ecut=   100.00 Ry     beta=0.50
     Davidson diagonalization with overlap
     ethr =  6.12E-12,  avg # of iterations =  4.0

     total cpu time spent up to now is      753.8 secs

     End of self-consistent calculation

          k = 0.0000 0.0000 0.0000 ( 73307 PWs)   bands (ev):

   -20.2934 -20.1989 -19.5654 -19.4746 -18.0853 -17.9941 -17.4173 -17.3022
   -16.0116 -15.9530 -15.2476 -15.2007 -14.3064 -14.2779 -13.8855 -13.8766
   -11.3613 -11.3585 -11.3166 -11.2764 -10.9203 -10.8899 -10.8253 -10.8066
    -9.5324  -9.2517  -8.8589  -8.6498  -8.4327  -8.3730  -7.9704  -7.9649
    -7.8458  -7.8025  -7.6942  -7.4971  -6.9253  -6.4906  -6.3088  -6.2720
    -6.1820  -5.9966  -5.8681  -5.7982  -5.7321  -5.5851  -5.4941  -5.2185
    -5.0975  -5.0149  -4.8038  -4.8023  -4.6894  -4.6430  -4.3895  -4.3872
    -4.2600  -4.0955  -3.9901  -3.8661  -3.7710  -3.6560  -3.3934  -3.3115
    -3.2372  -3.2084  -2.7685  -2.6970  -2.6532  -2.5339  -2.4143  -2.3841
    -2.3466  -2.2819  -2.2691  -2.2064  -2.0671  -2.0521  -1.9540  -1.8391
    -1.7646  -1.7316  -1.7205  -1.6674  -1.5730  -1.5396  -1.3700  -1.2665
    -0.4935  -0.3774  -0.3419  -0.3186   0.1076   0.3387   0.3890   0.4562
     0.4725   0.5390   1.0122   1.0957   5.6110   5.6474   6.1527   6.4254
     6.4878   6.6831   6.7877   6.7944   7.1874   7.2081   7.2309   7.4608
     7.7036   7.9335   8.1827   8.2310   8.5050   8.5741   8.6745   8.7642

          k = 0.0000 0.0000-0.4606 ( 73392 PWs)   bands (ev):

   -20.2933 -20.1990 -19.5654 -19.4747 -18.0853 -17.9940 -17.4172 -17.3025
   -16.0113 -15.9528 -15.2491 -15.1973 -14.3099 -14.2771 -13.8883 -13.8751
   -11.3565 -11.3556 -11.3113 -11.2766 -10.9291 -10.8954 -10.8241 -10.8076
    -9.5310  -9.2512  -8.8499  -8.6247  -8.4353  -8.3919  -7.9800  -7.9679
    -7.8523  -7.7796  -7.6871  -7.5068  -6.9434  -6.5378  -6.3134  -6.3046
    -6.1803  -6.0470  -5.8834  -5.7829  -5.6514  -5.5815  -5.3613  -5.2299
    -5.1095  -4.9885  -4.8407  -4.7856  -4.7025  -4.5637  -4.4209  -4.3672
    -4.2566  -4.2313  -3.9327  -3.8966  -3.7264  -3.6943  -3.3821  -3.3295
    -3.2658  -3.2323  -2.8175  -2.6905  -2.6159  -2.5366  -2.4398  -2.3868
    -2.3513  -2.2656  -2.2615  -2.2250  -2.0589  -2.0139  -1.8993  -1.8727
    -1.7453  -1.7426  -1.7188  -1.6383  -1.5984  -1.5262  -1.3516  -1.2770
    -0.4976  -0.3927  -0.3349  -0.3144   0.1177   0.3188   0.3983   0.4400
     0.4804   0.5113   1.0248   1.0974   5.5974   5.7183   6.2231   6.3122
     6.4882   6.6186   6.7235   6.9949   7.0947   7.2011   7.2889   7.4152
     7.8481   7.8758   8.2199   8.2532   8.3793   8.5145   8.5972   8.7012

          k = 0.0000 0.6184 0.0000 ( 73282 PWs)   bands (ev):

   -20.2628 -20.2152 -19.5398 -19.4942 -18.0725 -18.0259 -17.3922 -17.3345
   -16.0047 -15.9742 -15.2362 -15.2125 -14.2918 -14.2760 -13.8744 -13.8691
   -11.3633 -11.3528 -11.3024 -11.2927 -10.9194 -10.9058 -10.8274 -10.8180
    -9.4817  -9.3274  -8.8125  -8.7084  -8.4076  -8.3862  -8.0286  -8.0063
    -7.8508  -7.8189  -7.6741  -7.5922  -6.8466  -6.6376  -6.3256  -6.2801
    -6.1538  -6.0874  -5.8634  -5.8004  -5.7245  -5.6640  -5.3742  -5.2849
    -5.2070  -5.1741  -4.9324  -4.8590  -4.5902  -4.5694  -4.4006  -4.3530
    -4.1027  -4.0887  -3.8853  -3.7739  -3.6674  -3.6321  -3.4106  -3.3543
    -3.1787  -3.1647  -2.7343  -2.7252  -2.6679  -2.5817  -2.3953  -2.3537
    -2.2723  -2.2553  -2.1785  -2.1443  -2.0305  -2.0093  -1.8603  -1.8166
    -1.7096  -1.7084  -1.6084  -1.5858  -1.4326  -1.4296  -1.2093  -1.1293
    -0.4505  -0.3686  -0.3424  -0.3313   0.1385   0.2718   0.3280   0.3378
     0.4835   0.4921   1.0298   1.0682   5.6942   5.7713   5.9856   6.2469
     6.4351   6.5943   6.7219   6.7679   7.0674   7.1228   7.3005   7.3775
     7.7187   7.9035   8.0234   8.1670   8.2343   8.2836   8.4436   8.5111

          k = 0.0000 0.6184-0.4606 ( 73274 PWs)   bands (ev):

   -20.2628 -20.2152 -19.5398 -19.4942 -18.0725 -18.0259 -17.3923 -17.3346
   -16.0046 -15.9742 -15.2364 -15.2102 -14.2945 -14.2767 -13.8749 -13.8688
   -11.3609 -11.3499 -11.2982 -11.2908 -10.9277 -10.9110 -10.8275 -10.8179
    -9.4814  -9.3274  -8.8022  -8.6875  -8.4096  -8.3999  -8.0147  -8.0101
    -7.8485  -7.8175  -7.6785  -7.5930  -6.8797  -6.6916  -6.3334  -6.2909
    -6.1418  -6.1259  -5.8715  -5.7968  -5.6715  -5.6449  -5.3141  -5.3098
    -5.1830  -5.0540  -4.9098  -4.8519  -4.7110  -4.6341  -4.3515  -4.3340
    -4.1226  -4.0755  -3.8774  -3.7822  -3.6716  -3.6401  -3.3666  -3.3017
    -3.2647  -3.2467  -2.7819  -2.7368  -2.6267  -2.5832  -2.3869  -2.3740
    -2.2664  -2.2054  -2.1765  -2.1619  -2.0149  -1.9927  -1.8507  -1.8403
    -1.7098  -1.6938  -1.6094  -1.6068  -1.4357  -1.4173  -1.1817  -1.1319
    -0.4417  -0.3693  -0.3361  -0.3240   0.1565   0.2480   0.3069   0.3444
     0.4564   0.4885   1.0382   1.0752   5.6891   5.7984   5.9932   6.2323
     6.3800   6.5266   6.6613   6.8476   7.1223   7.2510   7.4326   7.4682
     7.5162   7.7925   8.0804   8.1314   8.2681   8.3646   8.5328   8.5500

          k =-0.5000 0.0000-0.0599 ( 73298 PWs)   bands (ev):

   -20.2912 -20.2014 -19.5653 -19.4747 -18.0977 -17.9797 -17.4171 -17.3023
   -15.9868 -15.9824 -15.2465 -15.2015 -14.3021 -14.2798 -13.9133 -13.8490
   -11.3566 -11.3487 -11.3023 -11.2956 -10.9035 -10.8899 -10.8517 -10.7969
    -9.5163  -9.3024  -8.8573  -8.6630  -8.4280  -8.4015  -7.9602  -7.9409
    -7.8369  -7.7926  -7.7016  -7.5131  -6.7893  -6.5514  -6.2657  -6.2262
    -6.2055  -6.0303  -5.9639  -5.7516  -5.6613  -5.6613  -5.4417  -5.1788
    -5.1654  -5.0841  -4.9708  -4.7708  -4.6221  -4.6045  -4.4307  -4.3701
    -4.2783  -4.0616  -3.9533  -3.8466  -3.6717  -3.6475  -3.4341  -3.3970
    -3.2149  -3.1789  -2.7291  -2.6995  -2.6794  -2.6082  -2.4084  -2.3892
    -2.3580  -2.3427  -2.2669  -2.2036  -2.0662  -2.0539  -1.9245  -1.8492
    -1.7779  -1.7179  -1.6414  -1.6045  -1.6033  -1.5300  -1.3567  -1.2943
    -0.5299  -0.3760  -0.3593  -0.2709   0.0971   0.2816   0.4043   0.4753
     0.4953   0.5333   1.0015   1.1107   5.6702   5.7826   6.0478   6.1708
     6.4760   6.5909   6.9835   6.9896   7.0626   7.1324   7.3954   7.4041
     7.6685   7.7458   8.1865   8.2538   8.3970   8.4492   8.6944   8.8211

          k =-0.5000 0.0000-0.5205 ( 73424 PWs)   bands (ev):

   -20.2912 -20.2013 -19.5654 -19.4746 -18.0976 -17.9796 -17.4180 -17.3016
   -15.9867 -15.9823 -15.2491 -15.1968 -14.3032 -14.2811 -13.9158 -13.8480
   -11.3461 -11.3457 -11.3047 -11.2947 -10.9132 -10.8904 -10.8547 -10.7963
    -9.5160  -9.3023  -8.8487  -8.6264  -8.4660  -8.4039  -7.9653  -7.9388
    -7.8322  -7.7805  -7.6956  -7.5133  -6.8128  -6.6188  -6.2760  -6.2715
    -6.1489  -6.0189  -5.9985  -5.7621  -5.7138  -5.5740  -5.3961  -5.1981
    -5.0825  -5.0336  -4.9696  -4.7400  -4.6629  -4.5552  -4.3974  -4.3951
    -4.3061  -4.0812  -4.0444  -3.8676  -3.6458  -3.6368  -3.4573  -3.3584
    -3.2672  -3.2078  -2.7914  -2.6862  -2.6575  -2.5974  -2.4341  -2.3998
    -2.3846  -2.2993  -2.2804  -2.1824  -2.0426  -2.0326  -1.8829  -1.8743
    -1.7725  -1.7038  -1.6162  -1.6057  -1.6000  -1.5377  -1.3334  -1.3153
    -0.5363  -0.3704  -0.3698  -0.2779   0.1030   0.3704   0.3731   0.3941
     0.4984   0.5160   1.0174   1.1119   5.6511   5.7859   6.1215   6.2978
     6.3692   6.5696   6.7609   6.9249   7.1577   7.2399   7.4717   7.5315
     7.7638   7.9015   7.9816   8.0827   8.3286   8.3774   8.6454   8.6494

          k =-0.5000 0.6184-0.0599 ( 73336 PWs)   bands (ev):

   -20.2617 -20.2163 -19.5397 -19.4942 -18.0790 -18.0194 -17.3922 -17.3346
   -15.9898 -15.9883 -15.2355 -15.2128 -14.2907 -14.2793 -13.8878 -13.8556
   -11.3778 -11.3591 -11.3003 -11.2790 -10.9032 -10.8971 -10.8505 -10.8213
    -9.4492  -9.3310  -8.8106  -8.7060  -8.4055  -8.3905  -8.0197  -8.0145
    -7.8338  -7.8187  -7.6935  -7.6065  -6.8661  -6.7242  -6.3177  -6.2860
    -6.1413  -6.0506  -5.8768  -5.8014  -5.6858  -5.6687  -5.3968  -5.2856
    -5.1133  -5.1037  -4.9375  -4.8822  -4.6329  -4.6003  -4.4330  -4.3580
    -4.1258  -4.0559  -3.8916  -3.8268  -3.6410  -3.5799  -3.3622  -3.3387
    -3.2147  -3.1495  -2.7422  -2.7049  -2.6394  -2.5938  -2.4162  -2.3644
    -2.2992  -2.2642  -2.1995  -2.1878  -2.0338  -1.9852  -1.8356  -1.8251
    -1.6967  -1.6546  -1.6295  -1.6154  -1.4283  -1.4100  -1.2050  -1.1389
    -0.4460  -0.4115  -0.3774  -0.3054   0.1584   0.2513   0.3305   0.3435
     0.4827   0.4990   1.0287   1.0842   5.7564   5.8217   5.9339   6.2131
     6.4593   6.5274   6.7726   6.8676   6.9719   7.0597   7.2980   7.4707
     7.7053   7.7547   7.9560   8.0502   8.2462   8.3279   8.4866   8.5017

          k =-0.5000 0.6184-0.5205 ( 73338 PWs)   bands (ev):

   -20.2617 -20.2163 -19.5397 -19.4942 -18.0790 -18.0194 -17.3928 -17.3342
   -15.9896 -15.9882 -15.2363 -15.2100 -14.2924 -14.2810 -13.8890 -13.8545
   -11.3751 -11.3611 -11.2951 -11.2734 -10.9127 -10.9007 -10.8500 -10.8217
    -9.4502  -9.3312  -8.7990  -8.6874  -8.4154  -8.3882  -8.0196  -8.0080
    -7.8386  -7.8113  -7.6986  -7.6146  -6.8805  -6.7684  -6.3835  -6.2850
    -6.1049  -6.0796  -5.8874  -5.7875  -5.6905  -5.6217  -5.3298  -5.1993
    -5.1199  -5.0769  -4.9465  -4.8652  -4.6746  -4.5930  -4.4562  -4.4145
    -4.1344  -4.0380  -3.9059  -3.7729  -3.6538  -3.5946  -3.3893  -3.3087
    -3.2276  -3.2104  -2.7698  -2.7223  -2.6331  -2.5865  -2.4015  -2.3925
    -2.3244  -2.2048  -2.1828  -2.1550  -2.0133  -1.9960  -1.8415  -1.8146
    -1.7215  -1.6516  -1.6409  -1.6217  -1.4244  -1.4055  -1.1727  -1.1395
    -0.4441  -0.4053  -0.3652  -0.3032   0.1303   0.2618   0.3076   0.3523
     0.4687   0.4872   1.0399   1.0891   5.7580   5.8197   5.9478   6.2213
     6.3456   6.6154   6.7744   6.8113   6.9817   7.1958   7.2630   7.4058
     7.6360   7.8326   8.0371   8.1530   8.2108   8.3023   8.5636   8.5932

     highest occupied, lowest unoccupied level (ev):     1.1119    5.5974

!    total energy              =    -882.89051056 Ry
     Harris-Foulkes estimate   =    -882.89051056 Ry
     estimated scf accuracy    <          4.7E-09 Ry

     total all-electron energy =     -3355.006750 Ry

     The total energy is the sum of the following terms:

     one-electron contribution =    -524.41628528 Ry
     hartree contribution      =     337.82245962 Ry
     xc contribution           =    -202.16835486 Ry
     ewald contribution        =    -229.95051838 Ry
     Dispersion Correction     =      -0.33761460 Ry
     one-center paw contrib.   =    -263.84019706 Ry

     convergence has been achieved in  20 iterations

     Forces acting on atoms (cartesian axes, Ry/au):

     atom    1 type  1   force =     0.00151094   -0.00221693   -0.00046657
     atom    2 type  1   force =    -0.00151094   -0.00221693    0.00046657
     atom    3 type  3   force =     0.00074692    0.00226762    0.00114063
     atom    4 type  3   force =    -0.00074692    0.00226762   -0.00114063
     atom    5 type  1   force =     0.00078313    0.00503827   -0.00253884
     atom    6 type  1   force =    -0.00078313    0.00503827    0.00253884
     atom    7 type  3   force =    -0.00193544   -0.00496102   -0.00395326
     atom    8 type  3   force =     0.00193544   -0.00496102    0.00395326
     atom    9 type  1   force =    -0.00327002   -0.01527985    0.00305855
     atom   10 type  1   force =     0.00327002   -0.01527985   -0.00305855
     atom   11 type  3   force =     0.00544433    0.01274130   -0.00257250
     atom   12 type  3   force =    -0.00544433    0.01274130    0.00257250
     atom   13 type  3   force =     0.00083579    0.00129078    0.00027207
     atom   14 type  3   force =    -0.00083579    0.00129078   -0.00027207
     atom   15 type  1   force =     0.00682874    0.01540720   -0.00340591
     atom   16 type  1   force =    -0.00682874    0.01540720    0.00340591
     atom   17 type  3   force =    -0.00064740   -0.00181234    0.00109528
     atom   18 type  3   force =     0.00064740   -0.00181234   -0.00109528
     atom   19 type  3   force =    -0.00745053   -0.01388762    0.00100635
     atom   20 type  3   force =     0.00745053   -0.01388762   -0.00100635
     atom   21 type  1   force =     0.00384737    0.00012092    0.00028303
     atom   22 type  1   force =    -0.00384737    0.00012092   -0.00028303
     atom   23 type  3   force =    -0.00052142    0.00003445   -0.00050274
     atom   24 type  3   force =     0.00052142    0.00003445    0.00050274
     atom   25 type  3   force =    -0.00152261    0.00072499    0.00038127
     atom   26 type  3   force =     0.00152261    0.00072499   -0.00038127
     atom   27 type  1   force =    -0.00353127   -0.00817025   -0.00339292
     atom   28 type  1   force =     0.00353127   -0.00817025    0.00339292
     atom   29 type  1   force =    -0.00062333   -0.00289886   -0.00007947
     atom   30 type  1   force =     0.00062333   -0.00289886    0.00007947
     atom   31 type  3   force =    -0.00044941    0.00288874    0.00076973
     atom   32 type  3   force =     0.00044941    0.00288874   -0.00076973
     atom   33 type  1   force =     0.00102434   -0.00064802    0.00002077
     atom   34 type  1   force =    -0.00102434   -0.00064802   -0.00002077
     atom   35 type  3   force =     0.00095984    0.00240956   -0.00300268
     atom   36 type  3   force =    -0.00095984    0.00240956    0.00300268
     atom   37 type  1   force =    -0.00509033   -0.01570419   -0.00393042
     atom   38 type  1   force =     0.00509033   -0.01570419    0.00393042
     atom   39 type  3   force =     0.00469803    0.01367983    0.00458222
     atom   40 type  3   force =    -0.00469803    0.01367983   -0.00458222
     atom   41 type  3   force =     0.00085235    0.00187661    0.00075715
     atom   42 type  3   force =    -0.00085235    0.00187661   -0.00075715
     atom   43 type  1   force =     0.00551248    0.01545131    0.00535897
     atom   44 type  1   force =    -0.00551248    0.01545131   -0.00535897
     atom   45 type  3   force =    -0.00422861   -0.01402635   -0.00572307
     atom   46 type  3   force =     0.00422861   -0.01402635    0.00572307
     atom   47 type  3   force =    -0.00118193   -0.00126760   -0.00088365
     atom   48 type  3   force =     0.00118193   -0.00126760    0.00088365
     atom   49 type  1   force =    -0.00005090    0.00053138    0.00239166
     atom   50 type  1   force =     0.00005090    0.00053138   -0.00239166
     atom   51 type  3   force =    -0.00074640   -0.00088722    0.00019302
     atom   52 type  3   force =     0.00074640   -0.00088722   -0.00019302
     atom   53 type  3   force =    -0.00094097    0.00088437   -0.00068487
     atom   54 type  3   force =     0.00094097    0.00088437    0.00068487
     atom   55 type  1   force =    -0.00223781   -0.00939508    0.00159899
     atom   56 type  1   force =     0.00223781   -0.00939508   -0.00159899
     atom   57 type  2   force =     0.00537133    0.00353520    0.00379402
     atom   58 type  2   force =    -0.00537133    0.00353520   -0.00379402
     atom   59 type  3   force =     0.00216505   -0.00061188    0.00044234
     atom   60 type  3   force =    -0.00216505   -0.00061188   -0.00044234
     atom   61 type  2   force =    -0.00606776    0.00388912    0.00223104
     atom   62 type  2   force =     0.00606776    0.00388912   -0.00223104
     atom   63 type  3   force =    -0.00017214    0.00096977    0.00049256
     atom   64 type  3   force =     0.00017214    0.00096977   -0.00049256
     atom   65 type  2   force =     0.00168432    0.00154684    0.00375083
     atom   66 type  2   force =    -0.00168432    0.00154684   -0.00375083
     atom   67 type  3   force =     0.00040069   -0.00018501    0.00018121
     atom   68 type  3   force =    -0.00040069   -0.00018501   -0.00018121
     atom   69 type  2   force =     0.00070723    0.00195203   -0.00513292
     atom   70 type  2   force =    -0.00070723    0.00195203    0.00513292
     atom   71 type  3   force =    -0.00016387   -0.00000052   -0.00110662
     atom   72 type  3   force =     0.00016387   -0.00000052    0.00110662
     atom   73 type  4   force =    -0.00192589    0.00149871    0.00483268
     atom   74 type  4   force =     0.00192589    0.00149871   -0.00483268
     atom   75 type  4   force =    -0.00296682    0.00321375    0.00145034
     atom   76 type  4   force =     0.00296682    0.00321375   -0.00145034

     Total force =     0.072637     Total SCF correction =     0.000142


     Computing stress (Cartesian axis) and pressure

          total   stress  (Ry/bohr**3)                   (kbar)     P=   -4.85
  -0.00003107   0.00000000   0.00000953         -4.57      0.00      1.40
   0.00000000  -0.00007171   0.00000000          0.00    -10.55      0.00
   0.00000953   0.00000000   0.00000390          1.40      0.00      0.57


     Writing output data file scf.save
 
     init_run     :     20.98s CPU     21.64s WALL (       1 calls)
     electrons    :    705.32s CPU    731.70s WALL (       1 calls)
     forces       :     11.01s CPU     11.13s WALL (       1 calls)
     stress       :     34.26s CPU     34.45s WALL (       1 calls)

     Called by init_run:
     wfcinit      :     14.03s CPU     14.58s WALL (       1 calls)
     potinit      :      2.40s CPU      2.44s WALL (       1 calls)

     Called by electrons:
     c_bands      :    626.22s CPU    648.36s WALL (      20 calls)
     sum_band     :     69.26s CPU     72.48s WALL (      20 calls)
     v_of_rho     :      1.60s CPU      1.77s WALL (      21 calls)
     newd         :      3.67s CPU      4.41s WALL (      21 calls)
     PAW_pot      :      3.87s CPU      3.88s WALL (      21 calls)
     mix_rho      :      0.38s CPU      0.41s WALL (      20 calls)

     Called by c_bands:
     init_us_2    :      4.96s CPU      4.98s WALL (     344 calls)
     cegterg      :    609.26s CPU    631.37s WALL (     160 calls)

     Called by sum_band:
     sum_band:bec :      0.05s CPU      0.05s WALL (     160 calls)
     addusdens    :      3.67s CPU      4.41s WALL (      20 calls)

     Called by *egterg:
     h_psi        :    355.08s CPU    370.70s WALL (     686 calls)
     s_psi        :     67.67s CPU     67.66s WALL (     686 calls)
     g_psi        :      2.11s CPU      2.11s WALL (     518 calls)
     cdiaghg      :     29.96s CPU     29.97s WALL (     678 calls)

     Called by h_psi:
     h_psi:pot    :    352.70s CPU    368.29s WALL (     686 calls)
     h_psi:calbec :     67.62s CPU     67.78s WALL (     686 calls)
     vloc_psi     :    217.05s CPU    232.46s WALL (     686 calls)
     add_vuspsi   :     68.03s CPU     68.04s WALL (     686 calls)

     General routines
     calbec       :     97.40s CPU     97.62s WALL (     886 calls)
     fft          :      1.19s CPU      1.47s WALL (     297 calls)
     fftw         :    232.86s CPU    249.62s WALL (  130474 calls)
 
     Parallel routines
     fft_scatter  :     53.31s CPU     63.59s WALL (  130771 calls)
 
     PWSCF        : 12m56.92s CPU    13m55.96s WALL

 
   This run was terminated on:   3: 6: 6   4Nov2017            

=------------------------------------------------------------------------------=
   JOB DONE.
=------------------------------------------------------------------------------=
