
     Program PWSCF v.6.1 (svn rev. 13369) starts on  4Nov2017 at 10:47:54 

     This program is part of the open-source Quantum ESPRESSO suite
     for quantum simulation of materials; please cite
         "P. Giannozzi et al., J. Phys.:Condens. Matter 21 395502 (2009);
          URL http://www.quantum-espresso.org", 
     in publications or presentations arising from this work. More details at
     http://www.quantum-espresso.org/quote

     Parallel version (MPI), running on     8 processors
     R & G space division:  proc/nbgrp/npool/nimage =       8
     Waiting for input...
     Reading input from standard input

     Current dimensions of program PWSCF are:
     Max number of different atomic species (ntypx) = 10
     Max number of k-points (npk) =  40000
     Max angular momentum in pseudopotentials (lmaxx) =  3
               file C.pbe-n-kjpaw_psl.0.1.UPF: wavefunction(s)  2P renormalized
               file N.pbe-n-kjpaw_psl.0.1.UPF: wavefunction(s)  2P renormalized
               file H.pbe-kjpaw_psl.0.1.UPF: wavefunction(s)  1S renormalized
               file O.pbe-n-kjpaw_psl.0.1.UPF: wavefunction(s)  2P renormalized

     -------------------------------------
     Parameters for Dispersion Correction:
     -------------------------------------
       atom      VdW radius       C_6     

        C          2.744         60.710
        N          2.640         42.670
        H          1.892          4.857
        O          2.536         24.284

     Subspace diagonalization in iterative solution of the eigenvalue problem:
     a serial algorithm will be used

     Found symmetry operation: I + ( -0.5000  0.5000  0.0000)
     This is a supercell, fractional translations are disabled
 
     Parallelization info
     --------------------
     sticks:   dense  smooth     PW     G-vecs:    dense   smooth      PW
     Min        1356    1356    358               180621   180621   24407
     Max        1358    1358    359               180623   180623   24412
     Sum       10857   10857   2865              1444973  1444973  195275
 


     bravais-lattice index     =            0
     lattice parameter (alat)  =      17.8352  a.u.
     unit-cell volume          =   10696.6111 (a.u.)^3
     number of atoms/cell      =          184
     number of atomic types    =            4
     number of electrons       =       656.00
     number of Kohn-Sham states=          393
     kinetic-energy cutoff     =     100.0000  Ry
     charge density cutoff     =     400.0000  Ry
     convergence threshold     =      1.0E-08
     mixing beta               =       0.5000
     number of iterations used =            8  plain     mixing
     Exchange-correlation      =  SLA  PW   PBX  PBC ( 1  4  3  4 0 0)

     celldm(1)=  17.835235  celldm(2)=   0.000000  celldm(3)=   0.000000
     celldm(4)=   0.000000  celldm(5)=   0.000000  celldm(6)=   0.000000

     crystal axes: (cart. coord. in units of alat)
               a(1) = (   1.000000   0.000000   0.000000 )  
               a(2) = (   0.000000   1.072579   0.000000 )  
               a(3) = (  -0.091509   0.000000   1.757844 )  

     reciprocal axes: (cart. coord. in units 2 pi/alat)
               b(1) = (  1.000000  0.000000  0.052058 )  
               b(2) = (  0.000000  0.932332  0.000000 )  
               b(3) = (  0.000000  0.000000  0.568879 )  


     PseudoPot. # 1 for  C read from file:
     /scratch/ahofstet/pseudo/C.pbe-n-kjpaw_psl.0.1.UPF
     MD5 check sum: 430fe95172b1e11ef3f8ed03bac87931
     Pseudo is Projector augmented-wave + core cor, Zval =  4.0
     Generated using "atomic" code by A. Dal Corso  v.5.0.99 svn rev. 10869
     Shape of augmentation charge: BESSEL
     Using radial grid of 1073 points,  4 beta functions with: 
                l(1) =   0
                l(2) =   0
                l(3) =   1
                l(4) =   1
     Q(r) pseudized with 0 coefficients 


     PseudoPot. # 2 for  N read from file:
     /scratch/ahofstet/pseudo/N.pbe-n-kjpaw_psl.0.1.UPF
     MD5 check sum: f73187c8b701007e77325f868c9291d7
     Pseudo is Projector augmented-wave + core cor, Zval =  5.0
     Generated using "atomic" code by A. Dal Corso  v.5.0.99 svn rev. 10869
     Shape of augmentation charge: PSQ
     Using radial grid of 1085 points,  4 beta functions with: 
                l(1) =   0
                l(2) =   0
                l(3) =   1
                l(4) =   1
     Q(r) pseudized with 0 coefficients 


     PseudoPot. # 3 for  H read from file:
     /scratch/ahofstet/pseudo/H.pbe-kjpaw_psl.0.1.UPF
     MD5 check sum: 94e484f906d9e9773b2f6e52662335b2
     Pseudo is Projector augmented-wave, Zval =  1.0
     Generated using "atomic" code by A. Dal Corso  v.5.0.99 svn rev. 10869
     Shape of augmentation charge: PSQ
     Using radial grid of  929 points,  2 beta functions with: 
                l(1) =   0
                l(2) =   0
     Q(r) pseudized with 0 coefficients 


     PseudoPot. # 4 for  O read from file:
     /scratch/ahofstet/pseudo/O.pbe-n-kjpaw_psl.0.1.UPF
     MD5 check sum: 3f94a2996a3169367d6eb21d9b593f20
     Pseudo is Projector augmented-wave + core cor, Zval =  6.0
     Generated using "atomic" code by A. Dal Corso  v.5.0.99 svn rev. 10869
     Shape of augmentation charge: BESSEL
     Using radial grid of 1095 points,  4 beta functions with: 
                l(1) =   0
                l(2) =   0
                l(3) =   1
                l(4) =   1
     Q(r) pseudized with 0 coefficients 


     atomic species   valence    mass     pseudopotential
        C              4.00    12.01070      C( 1.00)
        N              5.00    14.00670      N( 1.00)
        H              1.00     1.00794      H( 1.00)
        O              6.00    15.99940      O( 1.00)

      2 Sym. Ops., with inversion, found



   Cartesian axes

     site n.     atom                  positions (alat units)
         1           O   tau(   1) = (   0.2728678   0.3989404   1.2907838  )
         2           O   tau(   2) = (   0.5898680   0.3989403   1.3459825  )
         3           O   tau(   3) = (   0.7728679   0.9352297   1.2907840  )
         4           O   tau(   4) = (   0.0898681   0.9352299   1.3459826  )
         5           O   tau(   5) = (   0.6356228   0.6736385   0.4670605  )
         6           O   tau(   6) = (   0.3186226   0.6736386   0.4118618  )
         7           O   tau(   7) = (   0.1356227   0.1373492   0.4670604  )
         8           O   tau(   8) = (   0.8186225   0.1373491   0.4118618  )
         9           O   tau(   9) = (   0.2530497   0.2021389   1.0594879  )
        10           O   tau(  10) = (   0.6096860   0.2021389   1.5772787  )
        11           O   tau(  11) = (   0.7530498   0.7384283   1.0594878  )
        12           O   tau(  12) = (   0.1096861   0.7384284   1.5772787  )
        13           O   tau(  13) = (   0.6554409   0.8704400   0.6983565  )
        14           O   tau(  14) = (   0.2988045   0.8704401   0.1805657  )
        15           O   tau(  15) = (   0.1554408   0.3341506   0.6983565  )
        16           O   tau(  16) = (   0.7988044   0.3341505   0.1805657  )
        17           O   tau(  17) = (   0.0408661   0.3594421   1.2113630  )
        18           O   tau(  18) = (   0.8218698   0.3594419   1.4254034  )
        19           O   tau(  19) = (   0.5408660   0.8957313   1.2113631  )
        20           O   tau(  20) = (   0.3218698   0.8957315   1.4254035  )
        21           O   tau(  21) = (   0.8676244   0.7131368   0.5464814  )
        22           O   tau(  22) = (   0.0866208   0.7131370   0.3324410  )
        23           O   tau(  23) = (   0.3676245   0.1768476   0.5464812  )
        24           O   tau(  24) = (   0.5866208   0.1768474   0.3324409  )
        25           O   tau(  25) = (   0.1025436   0.6006339   0.9092102  )
        26           O   tau(  26) = (   0.7601917   0.6006331   1.7275570  )
        27           O   tau(  27) = (   0.6025440   0.0643441   0.9092094  )
        28           O   tau(  28) = (   0.2601921   0.0643442   1.7275563  )
        29           O   tau(  29) = (   0.8059469   0.4719450   0.8486342  )
        30           O   tau(  30) = (   0.1482988   0.4719459   0.0302874  )
        31           O   tau(  31) = (   0.3059466   1.0082348   0.8486350  )
        32           O   tau(  32) = (   0.6482984   1.0082348   0.0302880  )
        33           O   tau(  33) = (   0.1071719   0.5812237   1.2997923  )
        34           O   tau(  34) = (   0.7555639   0.5812236   1.3369743  )
        35           O   tau(  35) = (   0.6071719   0.0449341   1.2997924  )
        36           O   tau(  36) = (   0.2555639   0.0449342   1.3369743  )
        37           O   tau(  37) = (   0.8013187   0.4913552   0.4580520  )
        38           O   tau(  38) = (   0.1529267   0.4913553   0.4208700  )
        39           O   tau(  39) = (   0.3013187   1.0276448   0.4580520  )
        40           O   tau(  40) = (   0.6529266   1.0276448   0.4208701  )
        41           O   tau(  41) = (   0.3350428   0.6388756   0.9860011  )
        42           O   tau(  42) = (   0.5276926   0.6388748   1.6507659  )
        43           O   tau(  43) = (   0.8350433   0.1025858   0.9860005  )
        44           O   tau(  44) = (   0.0276931   0.1025859   1.6507654  )
        45           O   tau(  45) = (   0.5734478   0.4337033   0.7718432  )
        46           O   tau(  46) = (   0.3807979   0.4337041   0.1070784  )
        47           O   tau(  47) = (   0.0734473   0.9699931   0.7718439  )
        48           O   tau(  48) = (   0.8807975   0.9699930   0.1070789  )
        49           O   tau(  49) = (   0.2690582   0.6796747   0.7637451  )
        50           O   tau(  50) = (   0.6851856   0.6796783   0.1151830  )
        51           O   tau(  51) = (   0.7690611   0.1433900   0.7637341  )
        52           O   tau(  52) = (   0.1851878   0.1433849   0.1151748  )
        53           O   tau(  53) = (   0.6394324   0.3929042   0.9940993  )
        54           O   tau(  54) = (   0.2233049   0.3929006   1.6426614  )
        55           O   tau(  55) = (   0.1394294   0.9291889   0.9941103  )
        56           O   tau(  56) = (   0.7233028   0.9291941   1.6426696  )
        57           C   tau(  57) = (   0.3217581   0.4355736   1.1491553  )
        58           C   tau(  58) = (   0.5409778   0.4355735   1.4876110  )
        59           C   tau(  59) = (   0.8217580   0.9718630   1.1491555  )
        60           C   tau(  60) = (   0.0409777   0.9718630   1.4876112  )
        61           C   tau(  61) = (   0.5867324   0.6370054   0.6086890  )
        62           C   tau(  62) = (   0.3675127   0.6370055   0.2702333  )
        63           C   tau(  63) = (   0.0867326   0.1007159   0.6086889  )
        64           C   tau(  64) = (   0.8675128   0.1007159   0.2702332  )
        65           C   tau(  65) = (   0.2337742   0.3502859   1.0426116  )
        66           C   tau(  66) = (   0.6289617   0.3502859   1.5941549  )
        67           C   tau(  67) = (   0.7337741   0.8865755   1.0426116  )
        68           C   tau(  68) = (   0.1289617   0.8865753   1.5941549  )
        69           C   tau(  69) = (   0.6747164   0.7222930   0.7152327  )
        70           C   tau(  70) = (   0.2795289   0.7222930   0.1636895  )
        71           C   tau(  71) = (   0.1747164   0.1860035   0.7152327  )
        72           C   tau(  72) = (   0.7795289   0.1860036   0.1636895  )
        73           C   tau(  73) = (   0.0788199   0.3938154   1.0661163  )
        74           C   tau(  74) = (   0.7839160   0.3938153   1.5706500  )
        75           C   tau(  75) = (   0.5788198   0.9301049   1.0661164  )
        76           C   tau(  76) = (   0.2839160   0.9301048   1.5706502  )
        77           C   tau(  77) = (   0.8296707   0.6787636   0.6917280  )
        78           C   tau(  78) = (   0.1245745   0.6787637   0.1871943  )
        79           C   tau(  79) = (   0.3296708   0.1424741   0.6917279  )
        80           C   tau(  80) = (   0.6245746   0.1424741   0.1871942  )
        81           C   tau(  81) = (   0.0576849   0.5545116   1.0490498  )
        82           C   tau(  82) = (   0.8050505   0.5545115   1.5877170  )
        83           C   tau(  83) = (   0.5576857   0.0182222   1.0490494  )
        84           C   tau(  84) = (   0.3050510   0.0182220   1.5877167  )
        85           C   tau(  85) = (   0.8508057   0.5180674   0.7087945  )
        86           C   tau(  86) = (   0.1034401   0.5180675   0.1701274  )
        87           C   tau(  87) = (   0.3508048   1.0543568   0.7087950  )
        88           C   tau(  88) = (   0.6034395   1.0543569   0.1701277  )
        89           C   tau(  89) = (   0.1448440   0.6316285   1.1610908  )
        90           C   tau(  90) = (   0.7178917   0.6316285   1.4756759  )
        91           C   tau(  91) = (   0.6448441   0.0953390   1.1610907  )
        92           C   tau(  92) = (   0.2178918   0.0953391   1.4756758  )
        93           C   tau(  93) = (   0.7636465   0.4409505   0.5967535  )
        94           C   tau(  94) = (   0.1905989   0.4409504   0.2821684  )
        95           C   tau(  95) = (   0.2636465   0.9772400   0.5967536  )
        96           C   tau(  96) = (   0.6905988   0.9772399   0.2821686  )
        97           C   tau(  97) = (   0.2996862   0.5962838   1.1299843  )
        98           C   tau(  98) = (   0.5630498   0.5962836   1.5067827  )
        99           C   tau(  99) = (   0.7996858   0.0599942   1.1299835  )
       100           C   tau( 100) = (   0.0630496   0.0599943   1.5067821  )
       101           C   tau( 101) = (   0.6088044   0.4762951   0.6278600  )
       102           C   tau( 102) = (   0.3454408   0.4762953   0.2510617  )
       103           C   tau( 103) = (   0.1088047   1.0125847   0.6278608  )
       104           C   tau( 104) = (   0.8454410   1.0125846   0.2510622  )
       105           C   tau( 105) = (   0.1280958   0.4325356   1.3089554  )
       106           C   tau( 106) = (   0.7346401   0.4325357   1.3278110  )
       107           C   tau( 107) = (   0.6280957   0.9688252   1.3089555  )
       108           C   tau( 108) = (   0.2346400   0.9688251   1.3278112  )
       109           C   tau( 109) = (   0.7803948   0.6400434   0.4488890  )
       110           C   tau( 110) = (   0.1738505   0.6400432   0.4300333  )
       111           C   tau( 111) = (   0.2803949   0.1037537   0.4488888  )
       112           C   tau( 112) = (   0.6738505   0.1037538   0.4300331  )
       113           C   tau( 113) = (   0.2366148   0.6408000   0.8820387  )
       114           C   tau( 114) = (   0.6261238   0.6407999   1.7547199  )
       115           C   tau( 115) = (   0.7366105   0.1045076   0.8820524  )
       116           C   tau( 116) = (   0.1261205   0.1045120   1.7547301  )
       117           C   tau( 117) = (   0.6718757   0.4317789   0.8758056  )
       118           C   tau( 118) = (   0.2823667   0.4317790   0.0031245  )
       119           C   tau( 119) = (   0.1718800   0.9680713   0.8757920  )
       120           C   tau( 120) = (   0.7823701   0.9680669   0.0031143  )
       121           H   tau( 121) = (   0.2341974   0.1767305   1.1584478  )
       122           H   tau( 122) = (   0.6285386   0.1767304   1.4783187  )
       123           H   tau( 123) = (   0.7341973   0.7130199   1.1584478  )
       124           H   tau( 124) = (   0.1285385   0.7130199   1.4783188  )
       125           H   tau( 125) = (   0.6742932   0.8958485   0.5993966  )
       126           H   tau( 126) = (   0.2799520   0.8958485   0.2795256  )
       127           H   tau( 127) = (   0.1742933   0.3595591   0.5993966  )
       128           H   tau( 128) = (   0.7799521   0.3595590   0.2795256  )
       129           H   tau( 129) = (   0.4339292   0.4073023   1.1445370  )
       130           H   tau( 130) = (   0.4288066   0.4073022   1.4922295  )
       131           H   tau( 131) = (   0.9339292   0.9435917   1.1445370  )
       132           H   tau( 132) = (  -0.0711933   0.9435917   1.4922295  )
       133           H   tau( 133) = (   0.4745614   0.6652767   0.6133074  )
       134           H   tau( 134) = (   0.4796840   0.6652767   0.2656149  )
       135           H   tau( 135) = (  -0.0254386   0.1289873   0.6133073  )
       136           H   tau( 136) = (   0.9796839   0.1289872   0.2656148  )
       137           H   tau( 137) = (   0.2660693   0.3751448   0.9336694  )
       138           H   tau( 138) = (   0.5966666   0.3751448   1.7030969  )
       139           H   tau( 139) = (   0.7660693   0.9114343   0.9336696  )
       140           H   tau( 140) = (   0.0966665   0.9114343   1.7030971  )
       141           H   tau( 141) = (   0.6424212   0.6974342   0.8241749  )
       142           H   tau( 142) = (   0.3118240   0.6974341   0.0547474  )
       143           H   tau( 143) = (   0.1424213   0.1611447   0.8241748  )
       144           H   tau( 144) = (   0.8118240   0.1611447   0.0547473  )
       145           H   tau( 145) = (   0.0063973   0.3336238   0.9981050  )
       146           H   tau( 146) = (   0.8563386   0.3336238   1.6386615  )
       147           H   tau( 147) = (   0.5063973   0.8699133   0.9981050  )
       148           H   tau( 148) = (   0.3563386   0.8699133   1.6386615  )
       149           H   tau( 149) = (   0.9020933   0.7389551   0.7597393  )
       150           H   tau( 150) = (   0.0521520   0.7389552   0.1191829  )
       151           H   tau( 151) = (   0.4020933   0.2026657   0.7597393  )
       152           H   tau( 152) = (   0.5521520   0.2026657   0.1191829  )
       153           H   tau( 153) = (  -0.0545494   0.5828245   1.0550610  )
       154           H   tau( 154) = (   0.9172852   0.5828245   1.5817057  )
       155           H   tau( 155) = (   0.4454505   0.0465350   1.0550609  )
       156           H   tau( 156) = (   0.4172852   0.0465350   1.5817056  )
       157           H   tau( 157) = (   0.9630400   0.4897545   0.7027833  )
       158           H   tau( 158) = (  -0.0087946   0.4897545   0.1761386  )
       159           H   tau( 159) = (   0.4630401   1.0260439   0.7027834  )
       160           H   tau( 160) = (   0.4912054   1.0260440   0.1761388  )
       161           H   tau( 161) = (   0.1242091   0.7456203   1.1589647  )
       162           H   tau( 162) = (   0.7385267   0.7456202   1.4778020  )
       163           H   tau( 163) = (   0.6242091   0.2093307   1.1589646  )
       164           H   tau( 164) = (   0.2385268   0.2093308   1.4778018  )
       165           H   tau( 165) = (   0.7842815   0.3269587   0.5988796  )
       166           H   tau( 166) = (   0.1699638   0.3269588   0.2800424  )
       167           H   tau( 167) = (   0.2842814   0.8632482   0.5988798  )
       168           H   tau( 168) = (   0.6699638   0.8632482   0.2800425  )
       169           H   tau( 169) = (   0.3725282   0.6563921   1.1977649  )
       170           H   tau( 170) = (   0.4902075   0.6563922   1.4390018  )
       171           H   tau( 171) = (   0.8725283   0.1201027   1.1977649  )
       172           H   tau( 172) = (  -0.0097924   0.1201027   1.4390017  )
       173           H   tau( 173) = (   0.5359623   0.4161868   0.5600795  )
       174           H   tau( 174) = (   0.4182830   0.4161867   0.3188425  )
       175           H   tau( 175) = (   0.0359622   0.9524762   0.5600794  )
       176           H   tau( 176) = (   0.9182829   0.9524763   0.3188427  )
       177           H   tau( 177) = (   0.0972108   0.4003457   1.4158365  )
       178           H   tau( 178) = (   0.7655250   0.4003458   1.2209300  )
       179           H   tau( 179) = (   0.5972108   0.9366352   1.4158366  )
       180           H   tau( 180) = (   0.2655251   0.9366351   1.2209300  )
       181           H   tau( 181) = (   0.8112798   0.6722333   0.3420078  )
       182           H   tau( 182) = (   0.1429656   0.6722331   0.5369144  )
       183           H   tau( 183) = (   0.3112797   0.1359437   0.3420078  )
       184           H   tau( 184) = (   0.6429655   0.1359438   0.5369144  )

     number of k points=     8
                       cart. coord. in units 2pi/alat
        k(    1) = (   0.0000000   0.0000000   0.0000000), wk =   0.2500000
        k(    2) = (   0.0000000   0.0000000  -0.2844393), wk =   0.2500000
        k(    3) = (   0.0000000  -0.4661662   0.0000000), wk =   0.2500000
        k(    4) = (   0.0000000  -0.4661662  -0.2844393), wk =   0.2500000
        k(    5) = (  -0.5000000   0.0000000  -0.0260289), wk =   0.2500000
        k(    6) = (  -0.5000000   0.0000000  -0.3104682), wk =   0.2500000
        k(    7) = (  -0.5000000  -0.4661662  -0.0260289), wk =   0.2500000
        k(    8) = (  -0.5000000  -0.4661662  -0.3104682), wk =   0.2500000

     Dense  grid:  1444973 G-vectors     FFT dimensions: ( 120, 125, 200)

     Estimated max dynamical RAM per process >    2864.94MB

     Estimated total allocated dynamical RAM >   22919.55MB

     Check: negative/imaginary core charge=   -0.000003    0.000000

     Initial potential from superposition of free atoms

     starting charge  655.99665, renormalised to  656.00000
     Starting wfc are  544 randomized atomic wfcs
     Checking if some PAW data can be deallocated... 

     total cpu time spent up to now is      229.5 secs

     per-process dynamical memory:  1795.5 Mb

     Self-consistent Calculation

     iteration #  1     ecut=   100.00 Ry     beta=0.50
     Davidson diagonalization with overlap
     ethr =  1.00E-02,  avg # of iterations =  5.1

     total cpu time spent up to now is     1112.0 secs

     total energy              =   -3585.94143292 Ry
     Harris-Foulkes estimate   =   -3593.44329402 Ry
     estimated scf accuracy    <      15.09276816 Ry

     iteration #  2     ecut=   100.00 Ry     beta=0.50
     Davidson diagonalization with overlap
     ethr =  2.30E-03,  avg # of iterations =  3.0

     total cpu time spent up to now is     1588.2 secs

     total energy              =   -3587.76634826 Ry
     Harris-Foulkes estimate   =   -3588.89460538 Ry
     estimated scf accuracy    <       2.58388073 Ry

     iteration #  3     ecut=   100.00 Ry     beta=0.50
     Davidson diagonalization with overlap
     ethr =  3.94E-04,  avg # of iterations =  7.6

     total cpu time spent up to now is     2355.4 secs

     total energy              =   -3588.37294544 Ry
     Harris-Foulkes estimate   =   -3588.70509513 Ry
     estimated scf accuracy    <       0.79601469 Ry

     iteration #  4     ecut=   100.00 Ry     beta=0.50
     Davidson diagonalization with overlap
     ethr =  1.21E-04,  avg # of iterations =  3.0

     total cpu time spent up to now is     2792.4 secs

     total energy              =   -3588.49113172 Ry
     Harris-Foulkes estimate   =   -3588.52479952 Ry
     estimated scf accuracy    <       0.10451424 Ry

     iteration #  5     ecut=   100.00 Ry     beta=0.50
     Davidson diagonalization with overlap
     ethr =  1.59E-05,  avg # of iterations =  8.8

     total cpu time spent up to now is     3710.7 secs

     total energy              =   -3588.51858851 Ry
     Harris-Foulkes estimate   =   -3588.53094900 Ry
     estimated scf accuracy    <       0.03042519 Ry

     iteration #  6     ecut=   100.00 Ry     beta=0.50
     Davidson diagonalization with overlap
     ethr =  4.64E-06,  avg # of iterations =  2.8

     total cpu time spent up to now is     4125.2 secs

     total energy              =   -3588.51950762 Ry
     Harris-Foulkes estimate   =   -3588.52170219 Ry
     estimated scf accuracy    <       0.00451161 Ry

     iteration #  7     ecut=   100.00 Ry     beta=0.50
     Davidson diagonalization with overlap
     ethr =  6.88E-07,  avg # of iterations =  4.8

     total cpu time spent up to now is     5094.1 secs

     total energy              =   -3588.52293804 Ry
     Harris-Foulkes estimate   =   -3588.52477404 Ry
     estimated scf accuracy    <       0.00481994 Ry

     iteration #  8     ecut=   100.00 Ry     beta=0.50
     Davidson diagonalization with overlap
     ethr =  6.88E-07,  avg # of iterations =  1.6

     total cpu time spent up to now is     5479.6 secs

     total energy              =   -3588.52237873 Ry
     Harris-Foulkes estimate   =   -3588.52318551 Ry
     estimated scf accuracy    <       0.00131310 Ry

     iteration #  9     ecut=   100.00 Ry     beta=0.50
     Davidson diagonalization with overlap
     ethr =  2.00E-07,  avg # of iterations =  5.2

     total cpu time spent up to now is     6312.3 secs

     total energy              =   -3588.52330892 Ry
     Harris-Foulkes estimate   =   -3588.52361945 Ry
     estimated scf accuracy    <       0.00093497 Ry

     iteration # 10     ecut=   100.00 Ry     beta=0.50
     Davidson diagonalization with overlap
     ethr =  1.43E-07,  avg # of iterations =  1.0

     total cpu time spent up to now is     6692.2 secs

     total energy              =   -3588.52318236 Ry
     Harris-Foulkes estimate   =   -3588.52334014 Ry
     estimated scf accuracy    <       0.00034578 Ry

     iteration # 11     ecut=   100.00 Ry     beta=0.50
     Davidson diagonalization with overlap
     ethr =  5.27E-08,  avg # of iterations =  3.0

     total cpu time spent up to now is     7353.7 secs

     total energy              =   -3588.52333378 Ry
     Harris-Foulkes estimate   =   -3588.52333854 Ry
     estimated scf accuracy    <       0.00002041 Ry

     iteration # 12     ecut=   100.00 Ry     beta=0.50
     Davidson diagonalization with overlap
     ethr =  3.11E-09,  avg # of iterations =  2.0

     total cpu time spent up to now is     7745.0 secs

     total energy              =   -3588.52332828 Ry
     Harris-Foulkes estimate   =   -3588.52333478 Ry
     estimated scf accuracy    <       0.00001111 Ry

     iteration # 13     ecut=   100.00 Ry     beta=0.50
     Davidson diagonalization with overlap
     ethr =  1.69E-09,  avg # of iterations =  3.8

     total cpu time spent up to now is     8438.5 secs

     total energy              =   -3588.52333278 Ry
     Harris-Foulkes estimate   =   -3588.52333362 Ry
     estimated scf accuracy    <       0.00000196 Ry

     iteration # 14     ecut=   100.00 Ry     beta=0.50
     Davidson diagonalization with overlap
     ethr =  2.98E-10,  avg # of iterations =  2.0

     total cpu time spent up to now is     8828.9 secs

     total energy              =   -3588.52333266 Ry
     Harris-Foulkes estimate   =   -3588.52333290 Ry
     estimated scf accuracy    <       0.00000047 Ry

     iteration # 15     ecut=   100.00 Ry     beta=0.50
     Davidson diagonalization with overlap
     ethr =  7.22E-11,  avg # of iterations =  4.0

     total cpu time spent up to now is     9585.6 secs

     total energy              =   -3588.52333306 Ry
     Harris-Foulkes estimate   =   -3588.52333306 Ry
     estimated scf accuracy    <       0.00000016 Ry

     iteration # 16     ecut=   100.00 Ry     beta=0.50
     Davidson diagonalization with overlap
     ethr =  2.43E-11,  avg # of iterations =  1.0

     total cpu time spent up to now is     9965.6 secs

     total energy              =   -3588.52333300 Ry
     Harris-Foulkes estimate   =   -3588.52333307 Ry
     estimated scf accuracy    <       0.00000017 Ry

     iteration # 17     ecut=   100.00 Ry     beta=0.50
     Davidson diagonalization with overlap
     ethr =  2.43E-11,  avg # of iterations =  1.0

     total cpu time spent up to now is    10345.4 secs

     total energy              =   -3588.52333299 Ry
     Harris-Foulkes estimate   =   -3588.52333301 Ry
     estimated scf accuracy    <       0.00000005 Ry

     iteration # 18     ecut=   100.00 Ry     beta=0.50
     Davidson diagonalization with overlap
     ethr =  7.78E-12,  avg # of iterations =  4.0

     total cpu time spent up to now is    11056.3 secs

     End of self-consistent calculation

          k = 0.0000 0.0000 0.0000 (180675 PWs)   bands (ev):

   -21.1628 -21.1567 -21.1361 -21.1344 -21.0979 -21.0950 -21.0766 -21.0741
   -20.5218 -20.5207 -20.5009 -20.4919 -20.4734 -20.4727 -20.4508 -20.4445
   -18.8649 -18.8631 -18.8494 -18.8481 -18.8181 -18.8167 -18.8091 -18.8071
   -18.2834 -18.2722 -18.2574 -18.2426 -18.1715 -18.1593 -18.1558 -18.1472
   -18.0260 -18.0208 -18.0165 -18.0114 -18.0085 -18.0082 -18.0072 -18.0071
   -17.9355 -17.9342 -17.9340 -17.9340 -17.8475 -17.8462 -17.8461 -17.8445
   -17.6759 -17.6597 -17.6480 -17.6343 -17.6059 -17.5946 -17.5772 -17.5655
   -13.3484 -13.3345 -13.3253 -13.3225 -13.3188 -13.3109 -13.3100 -13.3079
   -11.1092 -11.0982 -11.0977 -11.0949 -11.0793 -11.0742 -11.0732 -11.0634
   -10.8519 -10.8426 -10.8421 -10.8352 -10.8338 -10.8223 -10.7961 -10.7941
    -9.7303  -9.6760  -9.6612  -9.6553  -9.6460  -9.6346  -9.6261  -9.6060
    -8.8198  -8.7642  -8.7549  -8.7278  -8.7161  -8.6974  -8.6868  -8.6838
    -8.6770  -8.6730  -8.6718  -8.6560  -8.6509  -8.6354  -8.6085  -8.5719
    -7.4755  -7.4622  -7.4617  -7.4243  -7.3767  -7.3739  -7.3627  -7.3507
    -6.3870  -6.3758  -6.3562  -6.3375  -6.3365  -6.3292  -6.3250  -6.3020
    -6.2914  -6.2097  -6.1404  -6.0384  -5.8241  -5.8208  -5.8084  -5.7677
    -5.6734  -5.6505  -5.6174  -5.6059  -5.5947  -5.5748  -5.5726  -5.5079
    -5.3987  -5.3396  -5.3322  -5.2306  -5.2057  -5.1893  -5.1515  -5.0861
    -5.0598  -5.0556  -5.0269  -4.9994  -4.9896  -4.9746  -4.9409  -4.9401
    -4.8864  -4.8796  -4.8474  -4.7954  -4.7751  -4.7038  -4.6829  -4.6424
    -3.8236  -3.8047  -3.7137  -3.6940  -3.6924  -3.6908  -3.6672  -3.6486
    -3.6398  -3.6275  -3.6020  -3.5862  -3.5850  -3.5774  -3.5615  -3.5435
    -3.5431  -3.5379  -3.5198  -3.5155  -3.4626  -3.4338  -3.4258  -3.3812
    -3.3731  -3.3051  -3.3017  -3.2774  -3.2723  -3.2480  -3.2363  -3.2087
    -3.1554  -3.1420  -3.1247  -3.0798  -3.0455  -3.0322  -3.0150  -2.9917
    -2.9886  -2.9740  -2.9520  -2.9316  -2.8986  -2.8887  -2.8143  -2.8127
    -2.8019  -2.7798  -2.7786  -2.7554  -2.7179  -2.6014  -2.5782  -2.5484
    -2.5186  -2.4576  -2.4519  -2.3524  -2.2849  -2.2471  -2.0516  -2.0162
    -1.9943  -1.9618  -1.9579  -1.9407  -1.8651  -1.8461  -1.7610  -1.7433
    -1.6135  -1.5592  -1.5044  -1.4770  -1.4695  -1.4202  -1.3931  -1.3482
    -1.2145  -1.2118  -1.2079  -1.1871  -1.0926  -1.0842  -1.0586  -1.0512
    -1.0428  -1.0051  -1.0016  -0.9715  -0.9496  -0.8961  -0.8501  -0.8439
    -0.8037  -0.7880  -0.7862  -0.7758  -0.7724  -0.7647  -0.7429  -0.7079
    -0.4125  -0.3014  -0.2663  -0.2119  -0.1607  -0.1215  -0.0326  -0.0082
    -0.0061  -0.0042   0.0259   0.0386   0.0433   0.0439   0.0585   0.0592
     0.0700   0.0984   0.1269   0.1297   0.1438   0.1909   0.2125   0.2218
     0.4443   0.4708   0.4945   0.5014   0.5093   0.5141   0.5506   0.5642
     0.7084   0.7164   0.7386   0.7410   0.7466   0.7627   0.7786   0.7851
     0.9671   0.9864   1.0771   1.0787   1.1309   1.2129   1.3018   1.3089
     1.3670   1.3717   1.3790   1.4205   1.4241   1.4557   1.4659   1.4687
     1.7056   1.7212   1.7283   1.7396   1.8526   1.8618   1.8725   1.9012
     7.1213   7.1240   7.1304   7.1349   7.1729   7.1837   7.1871   7.2159
     7.4167   7.5008   7.5433   7.6299   7.6700   7.7537   7.8086   7.8386
     8.2486   8.3536   8.3653   8.4585   8.4716   8.6018   8.6270   8.6506
     8.6964   8.6985   8.7314   8.8212   8.8463   8.9305   8.9696   8.9935
     9.0776   9.1915   9.2103   9.2166   9.2291   9.3077   9.6172   9.6215
     9.6224   9.6315   9.6686   9.7114   9.7696   9.8181   9.8336   9.8879
     9.9012   9.9395   9.9478   9.9609  10.0273  10.0928  10.0964  10.1134
    10.1452  10.1847  10.1882  10.2443  10.2464  10.2803  10.2893  10.3100
    10.3638

          k = 0.0000 0.0000-0.2844 (180768 PWs)   bands (ev):

   -21.1598 -21.1598 -21.1353 -21.1352 -21.0965 -21.0964 -21.0753 -21.0753
   -20.5213 -20.5213 -20.4966 -20.4966 -20.4728 -20.4728 -20.4476 -20.4476
   -18.8642 -18.8638 -18.8490 -18.8486 -18.8176 -18.8172 -18.8083 -18.8079
   -18.2780 -18.2780 -18.2505 -18.2505 -18.1648 -18.1648 -18.1514 -18.1514
   -18.0220 -18.0211 -18.0158 -18.0151 -18.0092 -18.0085 -18.0072 -18.0067
   -17.9348 -17.9348 -17.9341 -17.9341 -17.8468 -17.8468 -17.8453 -17.8453
   -17.6644 -17.6644 -17.6501 -17.6501 -17.5884 -17.5884 -17.5776 -17.5776
   -13.3383 -13.3383 -13.3242 -13.3242 -13.3193 -13.3193 -13.3075 -13.3074
   -11.1048 -11.1047 -11.0963 -11.0962 -11.0741 -11.0739 -11.0704 -11.0703
   -10.8486 -10.8485 -10.8384 -10.8384 -10.8266 -10.8266 -10.7952 -10.7951
    -9.6976  -9.6975  -9.6627  -9.6627  -9.6323  -9.6323  -9.6262  -9.6261
    -8.7981  -8.7980  -8.7365  -8.7364  -8.7191  -8.7191  -8.6943  -8.6943
    -8.6666  -8.6665  -8.6454  -8.6453  -8.6247  -8.6246  -8.6128  -8.6128
    -7.4692  -7.4691  -7.4442  -7.4441  -7.3741  -7.3740  -7.3564  -7.3563
    -6.3821  -6.3821  -6.3526  -6.3525  -6.3268  -6.3268  -6.3133  -6.3132
    -6.2146  -6.2146  -6.1396  -6.1396  -5.8308  -5.8308  -5.7700  -5.7700
    -5.6432  -5.6432  -5.6343  -5.6343  -5.5809  -5.5808  -5.5479  -5.5479
    -5.3586  -5.3585  -5.2895  -5.2894  -5.1944  -5.1944  -5.1140  -5.1140
    -5.0426  -5.0426  -5.0133  -5.0133  -4.9830  -4.9830  -4.9509  -4.9509
    -4.8860  -4.8860  -4.8245  -4.8245  -4.7302  -4.7301  -4.6719  -4.6718
    -3.7699  -3.7698  -3.7588  -3.7587  -3.6892  -3.6891  -3.6536  -3.6536
    -3.6225  -3.6224  -3.5964  -3.5964  -3.5827  -3.5827  -3.5439  -3.5439
    -3.5221  -3.5220  -3.5194  -3.5193  -3.4335  -3.4334  -3.4209  -3.4208
    -3.3675  -3.3675  -3.3253  -3.3252  -3.2576  -3.2576  -3.2053  -3.2053
    -3.1044  -3.1044  -3.0921  -3.0921  -3.0787  -3.0786  -3.0125  -3.0125
    -3.0036  -3.0036  -2.9376  -2.9376  -2.8346  -2.8346  -2.8303  -2.8302
    -2.7824  -2.7823  -2.7821  -2.7820  -2.6678  -2.6678  -2.5241  -2.5240
    -2.4759  -2.4758  -2.4591  -2.4591  -2.2558  -2.2558  -2.0074  -2.0074
    -1.9925  -1.9925  -1.9674  -1.9673  -1.8529  -1.8529  -1.7521  -1.7520
    -1.5864  -1.5864  -1.4746  -1.4746  -1.4421  -1.4421  -1.3923  -1.3923
    -1.2156  -1.2156  -1.2128  -1.2128  -1.0769  -1.0769  -1.0601  -1.0601
    -1.0258  -1.0258  -0.9187  -0.9187  -0.9110  -0.9109  -0.8997  -0.8997
    -0.8023  -0.8021  -0.7889  -0.7888  -0.7584  -0.7583  -0.7292  -0.7291
    -0.3524  -0.3523  -0.2626  -0.2626  -0.1215  -0.1215  -0.0145  -0.0145
    -0.0127  -0.0126   0.0387   0.0388   0.0475   0.0478   0.0760   0.0762
     0.0823   0.0824   0.1276   0.1277   0.1745   0.1746   0.1830   0.1831
     0.4756   0.4756   0.4773   0.4773   0.5156   0.5156   0.5578   0.5578
     0.7206   0.7210   0.7262   0.7267   0.7533   0.7538   0.7885   0.7889
     1.0000   1.0001   1.0317   1.0317   1.2383   1.2383   1.2569   1.2569
     1.3745   1.3745   1.3989   1.3989   1.4472   1.4472   1.4631   1.4631
     1.7118   1.7118   1.7355   1.7355   1.8548   1.8548   1.8893   1.8894
     7.1095   7.1096   7.1440   7.1442   7.1876   7.1878   7.1887   7.1888
     7.4639   7.4639   7.5744   7.5744   7.6851   7.6851   7.8452   7.8452
     8.3328   8.3328   8.3642   8.3642   8.5533   8.5533   8.6256   8.6256
     8.6873   8.6873   8.8905   8.8905   8.9334   8.9334   9.0337   9.0337
     9.0558   9.0558   9.1316   9.1316   9.4191   9.4191   9.4490   9.4490
     9.5983   9.5983   9.6555   9.6555   9.7953   9.7953   9.8569   9.8569
     9.9002   9.9002   9.9302   9.9302  10.0592  10.0592  10.1315  10.1315
    10.1327  10.1327  10.2103  10.2103  10.2253  10.2254  10.4455  10.4455
    10.4542

          k = 0.0000-0.4662 0.0000 (180564 PWs)   bands (ev):

   -21.1503 -21.1503 -21.1473 -21.1473 -21.0856 -21.0856 -21.0838 -21.0837
   -20.5125 -20.5125 -20.5055 -20.5055 -20.4629 -20.4629 -20.4579 -20.4579
   -18.8584 -18.8580 -18.8563 -18.8562 -18.8131 -18.8128 -18.8109 -18.8109
   -18.2325 -18.2325 -18.2171 -18.2171 -18.2113 -18.2113 -18.1942 -18.1942
   -18.0194 -18.0194 -18.0177 -18.0176 -18.0100 -18.0096 -18.0078 -18.0073
   -17.9348 -17.9348 -17.9338 -17.9338 -17.8464 -17.8464 -17.8452 -17.8452
   -17.6373 -17.6373 -17.6239 -17.6239 -17.6101 -17.6101 -17.5976 -17.5976
   -13.3327 -13.3326 -13.3311 -13.3311 -13.3141 -13.3141 -13.3119 -13.3119
   -11.1037 -11.1037 -11.0991 -11.0990 -11.0761 -11.0761 -11.0687 -11.0687
   -10.8413 -10.8413 -10.8363 -10.8363 -10.8174 -10.8174 -10.8116 -10.8116
    -9.7006  -9.7005  -9.6716  -9.6716  -9.6335  -9.6335  -9.6130  -9.6130
    -8.7597  -8.7596  -8.7459  -8.7458  -8.6965  -8.6965  -8.6938  -8.6938
    -8.6703  -8.6703  -8.6650  -8.6650  -8.6592  -8.6592  -8.6035  -8.6034
    -7.4335  -7.4335  -7.4231  -7.4231  -7.4162  -7.4162  -7.3940  -7.3939
    -6.3816  -6.3816  -6.3548  -6.3548  -6.3405  -6.3405  -6.3114  -6.3114
    -6.2529  -6.2529  -6.0885  -6.0885  -5.8591  -5.8591  -5.7823  -5.7823
    -5.5528  -5.5528  -5.5048  -5.5047  -5.4791  -5.4791  -5.4474  -5.4474
    -5.3663  -5.3663  -5.3581  -5.3581  -5.3176  -5.3176  -5.2903  -5.2902
    -5.0604  -5.0604  -5.0086  -5.0085  -4.9875  -4.9875  -4.9568  -4.9568
    -4.8177  -4.8177  -4.8023  -4.8022  -4.7696  -4.7696  -4.7410  -4.7410
    -3.8066  -3.8066  -3.7090  -3.7090  -3.6753  -3.6753  -3.6687  -3.6686
    -3.6198  -3.6198  -3.6182  -3.6182  -3.6097  -3.6097  -3.5638  -3.5637
    -3.5543  -3.5543  -3.5426  -3.5426  -3.4597  -3.4597  -3.3518  -3.3517
    -3.3195  -3.3195  -3.2890  -3.2890  -3.2585  -3.2585  -3.1824  -3.1824
    -3.1719  -3.1719  -3.0725  -3.0725  -3.0282  -3.0282  -3.0038  -3.0038
    -2.9939  -2.9939  -2.9566  -2.9566  -2.8690  -2.8690  -2.8676  -2.8676
    -2.8272  -2.8271  -2.7360  -2.7360  -2.6754  -2.6754  -2.4264  -2.4264
    -2.3480  -2.3480  -2.2888  -2.2888  -2.2710  -2.2710  -2.1443  -2.1443
    -2.0880  -2.0880  -2.0379  -2.0378  -1.7890  -1.7889  -1.7841  -1.7840
    -1.5404  -1.5404  -1.5090  -1.5090  -1.4506  -1.4506  -1.4232  -1.4232
    -1.2139  -1.2139  -1.1664  -1.1664  -1.0770  -1.0769  -1.0345  -1.0345
    -1.0104  -1.0103  -1.0064  -1.0064  -0.9508  -0.9508  -0.8376  -0.8376
    -0.8283  -0.8283  -0.7962  -0.7962  -0.7413  -0.7413  -0.7312  -0.7312
    -0.2978  -0.2978  -0.2976  -0.2976  -0.0814  -0.0814  -0.0498  -0.0498
    -0.0314  -0.0314   0.0250   0.0251   0.0373   0.0373   0.0599   0.0599
     0.1049   0.1049   0.1194   0.1195   0.1449   0.1449   0.2061   0.2061
     0.4613   0.4613   0.5019   0.5019   0.5214   0.5215   0.5332   0.5333
     0.7103   0.7104   0.7403   0.7405   0.7638   0.7640   0.7800   0.7803
     1.0326   1.0326   1.1264   1.1264   1.2166   1.2166   1.2707   1.2707
     1.3471   1.3472   1.3529   1.3529   1.4361   1.4361   1.4771   1.4771
     1.7734   1.7734   1.7845   1.7845   1.7928   1.7928   1.8140   1.8140
     7.1246   7.1247   7.1500   7.1501   7.1782   7.1783   7.1852   7.1852
     7.3920   7.3920   7.5322   7.5322   7.7085   7.7085   7.9615   7.9615
     8.1628   8.1628   8.4081   8.4081   8.5541   8.5541   8.6689   8.6689
     8.7870   8.7870   8.8064   8.8064   9.1208   9.1208   9.1504   9.1504
     9.1970   9.1970   9.2549   9.2549   9.2657   9.2657   9.2717   9.2717
     9.5185   9.5185   9.6242   9.6242   9.6273   9.6273   9.7437   9.7437
     9.9008   9.9008  10.0385  10.0385  10.1015  10.1015  10.1078  10.1078
    10.1648  10.1649  10.2324  10.2324  10.3077  10.3077  10.4547  10.4551
    10.4987

          k = 0.0000-0.4662-0.2844 (180528 PWs)   bands (ev):

   -21.1489 -21.1488 -21.1488 -21.1487 -21.0848 -21.0847 -21.0846 -21.0846
   -20.5091 -20.5091 -20.5091 -20.5091 -20.4603 -20.4603 -20.4603 -20.4603
   -18.8581 -18.8576 -18.8568 -18.8566 -18.8128 -18.8122 -18.8114 -18.8112
   -18.2274 -18.2274 -18.2274 -18.2274 -18.2001 -18.2001 -18.2001 -18.2001
   -18.0185 -18.0180 -18.0177 -18.0170 -18.0102 -18.0097 -18.0092 -18.0085
   -17.9343 -17.9343 -17.9343 -17.9343 -17.8458 -17.8458 -17.8458 -17.8458
   -17.6318 -17.6318 -17.6318 -17.6318 -17.6026 -17.6026 -17.6026 -17.6026
   -13.3291 -13.3291 -13.3290 -13.3290 -13.3159 -13.3159 -13.3158 -13.3158
   -11.1016 -11.1015 -11.1011 -11.1011 -11.0728 -11.0727 -11.0723 -11.0723
   -10.8388 -10.8387 -10.8386 -10.8386 -10.8145 -10.8145 -10.8143 -10.8143
    -9.6825  -9.6824  -9.6822  -9.6821  -9.6277  -9.6276  -9.6274  -9.6273
    -8.7541  -8.7539  -8.7537  -8.7537  -8.6968  -8.6967  -8.6966  -8.6966
    -8.6700  -8.6699  -8.6698  -8.6697  -8.6264  -8.6263  -8.6261  -8.6261
    -7.4303  -7.4302  -7.4299  -7.4299  -7.4034  -7.4033  -7.4030  -7.4030
    -6.3714  -6.3713  -6.3713  -6.3712  -6.3226  -6.3225  -6.3225  -6.3224
    -6.1821  -6.1821  -6.1820  -6.1820  -5.8099  -5.8099  -5.8099  -5.8099
    -5.5258  -5.5257  -5.5257  -5.5256  -5.4721  -5.4720  -5.4720  -5.4720
    -5.3545  -5.3544  -5.3542  -5.3542  -5.3056  -5.3055  -5.3054  -5.3053
    -5.0369  -5.0369  -5.0368  -5.0368  -4.9700  -4.9700  -4.9699  -4.9699
    -4.8111  -4.8110  -4.8109  -4.8109  -4.7567  -4.7566  -4.7565  -4.7564
    -3.7649  -3.7648  -3.7647  -3.7646  -3.6587  -3.6587  -3.6587  -3.6587
    -3.6202  -3.6202  -3.6201  -3.6201  -3.5715  -3.5714  -3.5713  -3.5712
    -3.5267  -3.5266  -3.5266  -3.5265  -3.4777  -3.4776  -3.4775  -3.4775
    -3.2962  -3.2961  -3.2961  -3.2961  -3.2186  -3.2186  -3.2186  -3.2185
    -3.0926  -3.0926  -3.0926  -3.0926  -3.0212  -3.0211  -3.0211  -3.0210
    -2.9807  -2.9807  -2.9806  -2.9806  -2.8869  -2.8868  -2.8868  -2.8868
    -2.7737  -2.7736  -2.7736  -2.7734  -2.5436  -2.5436  -2.5435  -2.5434
    -2.3320  -2.3320  -2.3320  -2.3320  -2.1917  -2.1917  -2.1917  -2.1917
    -2.0625  -2.0625  -2.0624  -2.0624  -1.7861  -1.7860  -1.7860  -1.7860
    -1.5283  -1.5283  -1.5283  -1.5283  -1.4345  -1.4345  -1.4344  -1.4344
    -1.1966  -1.1966  -1.1965  -1.1965  -1.0598  -1.0598  -1.0598  -1.0598
    -0.9881  -0.9880  -0.9880  -0.9879  -0.9015  -0.9014  -0.9013  -0.9012
    -0.8184  -0.8182  -0.8179  -0.8178  -0.7314  -0.7311  -0.7308  -0.7308
    -0.2932  -0.2931  -0.2931  -0.2931  -0.0606  -0.0606  -0.0605  -0.0604
    -0.0235  -0.0234  -0.0232  -0.0231   0.0721   0.0722   0.0724   0.0727
     0.0952   0.0953   0.0955   0.0957   0.1789   0.1791   0.1794   0.1794
     0.4797   0.4797   0.4797   0.4797   0.5294   0.5294   0.5295   0.5296
     0.7206   0.7209   0.7216   0.7223   0.7738   0.7740   0.7747   0.7753
     1.0783   1.0783   1.0783   1.0783   1.2455   1.2455   1.2455   1.2455
     1.3504   1.3504   1.3504   1.3504   1.4579   1.4579   1.4579   1.4579
     1.7764   1.7764   1.7765   1.7765   1.8059   1.8059   1.8060   1.8060
     7.1295   7.1298   7.1300   7.1302   7.1887   7.1890   7.1891   7.1893
     7.4475   7.4475   7.4476   7.4476   7.8075   7.8075   7.8076   7.8076
     8.3342   8.3342   8.3343   8.3343   8.6308   8.6308   8.6308   8.6308
     8.8050   8.8051   8.8051   8.8051   9.1100   9.1100   9.1101   9.1101
     9.1835   9.1835   9.1836   9.1836   9.3754   9.3754   9.3754   9.3754
     9.4467   9.4467   9.4467   9.4467   9.7169   9.7169   9.7169   9.7169
     9.9210   9.9210   9.9211   9.9211  10.1527  10.1527  10.1528  10.1528
    10.2098  10.2098  10.2098  10.2099  10.3382  10.3382  10.3382  10.3382
    10.5869

          k =-0.5000 0.0000-0.0260 (180706 PWs)   bands (ev):

   -21.1498 -21.1498 -21.1458 -21.1458 -21.0859 -21.0858 -21.0856 -21.0856
   -20.5033 -20.5033 -20.5016 -20.5016 -20.4706 -20.4706 -20.4642 -20.4642
   -18.8515 -18.8510 -18.8501 -18.8499 -18.8190 -18.8185 -18.8176 -18.8175
   -18.2708 -18.2708 -18.2577 -18.2577 -18.1640 -18.1640 -18.1532 -18.1532
   -18.0279 -18.0278 -18.0189 -18.0183 -18.0064 -18.0062 -18.0013 -18.0005
   -17.8916 -17.8916 -17.8912 -17.8912 -17.8892 -17.8891 -17.8889 -17.8889
   -17.6672 -17.6672 -17.6409 -17.6409 -17.5994 -17.5994 -17.5708 -17.5708
   -13.3460 -13.3460 -13.3214 -13.3213 -13.3123 -13.3122 -13.3100 -13.3100
   -11.1038 -11.1037 -11.0885 -11.0885 -11.0845 -11.0844 -11.0700 -11.0700
   -10.8430 -10.8430 -10.8422 -10.8422 -10.8160 -10.8160 -10.8070 -10.8070
    -9.7034  -9.7034  -9.6640  -9.6639  -9.6502  -9.6502  -9.6031  -9.6031
    -8.8024  -8.8024  -8.7450  -8.7449  -8.7071  -8.7071  -8.7067  -8.7067
    -8.6544  -8.6543  -8.6321  -8.6320  -8.6254  -8.6254  -8.6150  -8.6150
    -7.4616  -7.4616  -7.4499  -7.4499  -7.3681  -7.3681  -7.3640  -7.3640
    -6.3760  -6.3759  -6.3497  -6.3496  -6.3298  -6.3297  -6.3174  -6.3174
    -6.0604  -6.0604  -6.0167  -6.0167  -5.9813  -5.9813  -5.9199  -5.9199
    -5.6845  -5.6845  -5.6250  -5.6250  -5.5848  -5.5847  -5.5451  -5.5450
    -5.3781  -5.3781  -5.2865  -5.2865  -5.1608  -5.1608  -5.1067  -5.1067
    -5.0431  -5.0430  -5.0095  -5.0095  -4.9816  -4.9816  -4.9550  -4.9550
    -4.8726  -4.8726  -4.8484  -4.8484  -4.7454  -4.7454  -4.6746  -4.6746
    -3.8400  -3.8399  -3.7220  -3.7219  -3.6662  -3.6662  -3.6452  -3.6452
    -3.6308  -3.6308  -3.5791  -3.5791  -3.5474  -3.5474  -3.5402  -3.5401
    -3.5391  -3.5391  -3.5255  -3.5255  -3.5104  -3.5103  -3.4363  -3.4362
    -3.3147  -3.3146  -3.2979  -3.2979  -3.2098  -3.2098  -3.1747  -3.1747
    -3.1565  -3.1565  -3.1521  -3.1520  -3.1311  -3.1311  -3.0214  -3.0214
    -2.9919  -2.9919  -2.9182  -2.9182  -2.8776  -2.8776  -2.8362  -2.8361
    -2.7877  -2.7876  -2.6119  -2.6119  -2.5934  -2.5934  -2.5607  -2.5607
    -2.4912  -2.4912  -2.4760  -2.4759  -2.1471  -2.1471  -2.0728  -2.0728
    -1.9934  -1.9934  -1.9666  -1.9666  -1.8319  -1.8318  -1.8207  -1.8207
    -1.5271  -1.5271  -1.4674  -1.4674  -1.4521  -1.4521  -1.3861  -1.3861
    -1.2461  -1.2461  -1.1750  -1.1750  -1.0426  -1.0426  -1.0200  -1.0200
    -1.0093  -1.0093  -0.9602  -0.9602  -0.9340  -0.9340  -0.9004  -0.9004
    -0.8573  -0.8573  -0.7805  -0.7805  -0.7549  -0.7549  -0.7259  -0.7258
    -0.3577  -0.3577  -0.2149  -0.2149  -0.1173  -0.1173  -0.0732  -0.0731
     0.0143   0.0143   0.0259   0.0260   0.0310   0.0310   0.0701   0.0701
     0.0799   0.0800   0.1011   0.1011   0.1616   0.1616   0.2067   0.2067
     0.4183   0.4183   0.4262   0.4262   0.5187   0.5187   0.5928   0.5928
     0.7251   0.7253   0.7306   0.7307   0.7496   0.7498   0.7560   0.7562
     1.0181   1.0181   1.0535   1.0535   1.2212   1.2212   1.2819   1.2819
     1.3123   1.3123   1.4082   1.4082   1.4506   1.4506   1.5312   1.5312
     1.7352   1.7352   1.7510   1.7510   1.8416   1.8416   1.8490   1.8490
     7.1340   7.1340   7.1679   7.1679   7.1699   7.1699   7.1970   7.1971
     7.5099   7.5099   7.5558   7.5558   7.9120   7.9120   7.9912   7.9912
     8.2314   8.2314   8.2810   8.2810   8.4736   8.4736   8.5243   8.5243
     8.7577   8.7577   8.7711   8.7711   8.8410   8.8410   8.9107   8.9107
     9.1080   9.1080   9.2211   9.2211   9.3531   9.3531   9.4240   9.4240
     9.6391   9.6391   9.6841   9.6841   9.8100   9.8100   9.8312   9.8312
     9.8486   9.8486   9.9622   9.9622  10.0414  10.0414  10.1322  10.1323
    10.1899  10.1899  10.2055  10.2055  10.2732  10.2732  10.2915  10.2915
    10.4272

          k =-0.5000 0.0000-0.3105 (180612 PWs)   bands (ev):

   -21.1480 -21.1480 -21.1476 -21.1476 -21.0860 -21.0860 -21.0854 -21.0854
   -20.5040 -20.5039 -20.5010 -20.5008 -20.4689 -20.4687 -20.4661 -20.4659
   -18.8515 -18.8509 -18.8502 -18.8499 -18.8191 -18.8184 -18.8178 -18.8174
   -18.2650 -18.2648 -18.2644 -18.2642 -18.1588 -18.1587 -18.1578 -18.1577
   -18.0256 -18.0233 -18.0229 -18.0209 -18.0066 -18.0047 -18.0028 -18.0004
   -17.8919 -17.8917 -17.8917 -17.8916 -17.8896 -17.8895 -17.8880 -17.8878
   -17.6574 -17.6573 -17.6561 -17.6561 -17.5832 -17.5832 -17.5818 -17.5817
   -13.3384 -13.3380 -13.3308 -13.3308 -13.3141 -13.3140 -13.3068 -13.3065
   -11.0992 -11.0991 -11.0985 -11.0981 -11.0751 -11.0747 -11.0744 -11.0743
   -10.8473 -10.8473 -10.8361 -10.8361 -10.8178 -10.8177 -10.8070 -10.8069
    -9.6936  -9.6933  -9.6621  -9.6619  -9.6517  -9.6515  -9.6150  -9.6147
    -8.7901  -8.7897  -8.7647  -8.7647  -8.7052  -8.7050  -8.6880  -8.6879
    -8.6631  -8.6631  -8.6420  -8.6418  -8.6349  -8.6348  -8.5998  -8.5995
    -7.4610  -7.4609  -7.4496  -7.4496  -7.3740  -7.3740  -7.3587  -7.3587
    -6.3675  -6.3671  -6.3635  -6.3634  -6.3232  -6.3230  -6.3181  -6.3177
    -6.0244  -6.0241  -6.0079  -6.0077  -5.9792  -5.9790  -5.9784  -5.9782
    -5.6514  -5.6512  -5.6465  -5.6464  -5.5747  -5.5746  -5.5655  -5.5654
    -5.3370  -5.3369  -5.3358  -5.3358  -5.1387  -5.1386  -5.1189  -5.1188
    -5.0260  -5.0258  -5.0249  -5.0248  -4.9725  -4.9723  -4.9584  -4.9582
    -4.8668  -4.8667  -4.8536  -4.8533  -4.7239  -4.7237  -4.7022  -4.7020
    -3.8038  -3.8034  -3.7380  -3.7377  -3.6595  -3.6593  -3.6408  -3.6408
    -3.6203  -3.6202  -3.5838  -3.5838  -3.5570  -3.5570  -3.5565  -3.5562
    -3.5292  -3.5290  -3.5210  -3.5209  -3.5037  -3.5034  -3.4786  -3.4784
    -3.3481  -3.3478  -3.2770  -3.2769  -3.2378  -3.2377  -3.1829  -3.1828
    -3.1508  -3.1507  -3.1211  -3.1209  -3.1108  -3.1107  -3.0520  -3.0518
    -2.9599  -2.9598  -2.9205  -2.9205  -2.8690  -2.8687  -2.8258  -2.8255
    -2.7054  -2.7051  -2.6749  -2.6745  -2.6271  -2.6268  -2.5633  -2.5632
    -2.5136  -2.5134  -2.4584  -2.4583  -2.1211  -2.1209  -2.0942  -2.0942
    -2.0041  -2.0039  -1.9623  -1.9622  -1.8297  -1.8295  -1.8198  -1.8197
    -1.5324  -1.5324  -1.4712  -1.4712  -1.4109  -1.4108  -1.4086  -1.4085
    -1.2234  -1.2234  -1.2171  -1.2171  -1.0516  -1.0514  -0.9940  -0.9937
    -0.9703  -0.9700  -0.9552  -0.9552  -0.9412  -0.9410  -0.9339  -0.9335
    -0.8378  -0.8374  -0.8226  -0.8222  -0.7394  -0.7390  -0.7306  -0.7300
    -0.3008  -0.3007  -0.2990  -0.2989  -0.0733  -0.0732  -0.0698  -0.0696
    -0.0131  -0.0126   0.0239   0.0240   0.0583   0.0583   0.0647   0.0652
     0.0856   0.0859   0.0960   0.0962   0.1806   0.1810   0.1928   0.1931
     0.3987   0.3987   0.4082   0.4083   0.5307   0.5308   0.6009   0.6010
     0.7309   0.7322   0.7422   0.7422   0.7435   0.7435   0.7450   0.7463
     1.0284   1.0285   1.0453   1.0453   1.2403   1.2404   1.2493   1.2493
     1.3275   1.3277   1.3977   1.3977   1.4850   1.4851   1.5038   1.5040
     1.7327   1.7328   1.7566   1.7566   1.8318   1.8318   1.8569   1.8569
     7.1576   7.1584   7.1603   7.1612   7.1695   7.1704   7.1751   7.1760
     7.5300   7.5302   7.5329   7.5329   7.9018   7.9019   7.9900   7.9902
     8.1968   8.1968   8.2972   8.2972   8.4944   8.4945   8.6563   8.6564
     8.7475   8.7477   8.7522   8.7524   8.8215   8.8216   8.8871   8.8872
     9.0953   9.0954   9.1486   9.1486   9.3191   9.3192   9.5534   9.5535
     9.5959   9.5959   9.7072   9.7073   9.8223   9.8225   9.8385   9.8385
     9.8794   9.8795   9.9549   9.9551  10.0278  10.0279  10.0560  10.0560
    10.1156  10.1156  10.1316  10.1317  10.3424  10.3427  10.4135  10.4263
    10.4274

          k =-0.5000-0.4662-0.0260 (180556 PWs)   bands (ev):

   -21.1508 -21.1508 -21.1427 -21.1426 -21.0900 -21.0899 -21.0838 -21.0837
   -20.4997 -20.4997 -20.4949 -20.4949 -20.4747 -20.4747 -20.4708 -20.4708
   -18.8571 -18.8567 -18.8420 -18.8417 -18.8244 -18.8240 -18.8148 -18.8144
   -18.2268 -18.2268 -18.2182 -18.2182 -18.2081 -18.2081 -18.2027 -18.2027
   -18.0283 -18.0275 -18.0166 -18.0156 -18.0108 -18.0102 -18.0011 -18.0002
   -17.8920 -17.8919 -17.8910 -17.8909 -17.8889 -17.8889 -17.8885 -17.8885
   -17.6308 -17.6308 -17.6292 -17.6292 -17.6048 -17.6048 -17.6018 -17.6018
   -13.3412 -13.3412 -13.3251 -13.3251 -13.3208 -13.3207 -13.3030 -13.3029
   -11.1069 -11.1068 -11.0893 -11.0893 -11.0781 -11.0780 -11.0705 -11.0704
   -10.8494 -10.8494 -10.8378 -10.8378 -10.8232 -10.8231 -10.8012 -10.8011
    -9.6949  -9.6948  -9.6802  -9.6802  -9.6439  -9.6438  -9.6016  -9.6015
    -8.7947  -8.7947  -8.7179  -8.7178  -8.7131  -8.7131  -8.7034  -8.7034
    -8.6754  -8.6754  -8.6565  -8.6564  -8.6104  -8.6104  -8.6085  -8.6084
    -7.4252  -7.4252  -7.4228  -7.4228  -7.4135  -7.4134  -7.4041  -7.4040
    -6.3820  -6.3820  -6.3442  -6.3441  -6.3417  -6.3417  -6.3156  -6.3155
    -6.0654  -6.0654  -6.0595  -6.0594  -5.9506  -5.9505  -5.9278  -5.9278
    -5.5527  -5.5526  -5.5427  -5.5426  -5.4823  -5.4822  -5.4601  -5.4601
    -5.3807  -5.3807  -5.3379  -5.3379  -5.3121  -5.3121  -5.3116  -5.3116
    -5.0491  -5.0490  -4.9969  -4.9969  -4.9820  -4.9819  -4.9490  -4.9490
    -4.8570  -4.8570  -4.8184  -4.8184  -4.7614  -4.7614  -4.7439  -4.7439
    -3.7697  -3.7697  -3.7188  -3.7187  -3.7068  -3.7066  -3.6757  -3.6757
    -3.6435  -3.6434  -3.6255  -3.6255  -3.5783  -3.5783  -3.5594  -3.5594
    -3.5418  -3.5418  -3.5112  -3.5112  -3.4373  -3.4372  -3.4235  -3.4235
    -3.2685  -3.2685  -3.2489  -3.2489  -3.2393  -3.2393  -3.1438  -3.1438
    -3.1283  -3.1282  -3.1017  -3.1017  -3.0648  -3.0648  -3.0601  -3.0600
    -3.0054  -3.0054  -2.9848  -2.9847  -2.9131  -2.9130  -2.8693  -2.8692
    -2.8092  -2.8091  -2.6413  -2.6413  -2.5534  -2.5533  -2.4902  -2.4902
    -2.4144  -2.4144  -2.3012  -2.3012  -2.2307  -2.2306  -2.1147  -2.1147
    -2.0515  -2.0514  -2.0397  -2.0395  -1.8484  -1.8482  -1.8233  -1.8232
    -1.5017  -1.5016  -1.4546  -1.4546  -1.4531  -1.4531  -1.3908  -1.3908
    -1.1946  -1.1946  -1.1760  -1.1760  -1.1160  -1.1160  -1.0067  -1.0067
    -0.9979  -0.9979  -0.9920  -0.9920  -0.9348  -0.9348  -0.8940  -0.8939
    -0.8529  -0.8528  -0.7843  -0.7842  -0.7696  -0.7695  -0.7193  -0.7192
    -0.2929  -0.2928  -0.2748  -0.2747  -0.1369  -0.1367  -0.0905  -0.0904
    -0.0208  -0.0207   0.0145   0.0146   0.0464   0.0465   0.0656   0.0657
     0.1008   0.1009   0.1238   0.1239   0.1644   0.1645   0.2280   0.2282
     0.4177   0.4177   0.4288   0.4288   0.5411   0.5411   0.5466   0.5466
     0.7238   0.7240   0.7317   0.7319   0.7426   0.7429   0.7582   0.7585
     1.0456   1.0456   1.1113   1.1114   1.1956   1.1957   1.2621   1.2621
     1.3013   1.3014   1.3713   1.3714   1.4536   1.4536   1.5333   1.5333
     1.7056   1.7056   1.7202   1.7202   1.8851   1.8852   1.8994   1.8994
     7.1560   7.1563   7.1592   7.1595   7.1655   7.1657   7.1894   7.1897
     7.4155   7.4156   7.6210   7.6211   7.6702   7.6702   8.0605   8.0606
     8.2383   8.2384   8.3023   8.3023   8.5660   8.5660   8.5790   8.5790
     8.7510   8.7511   8.8336   8.8337   8.9187   8.9187   9.0566   9.0566
     9.1591   9.1591   9.2211   9.2211   9.3663   9.3663   9.4977   9.4977
     9.5022   9.5022   9.6915   9.6915   9.7908   9.7908   9.8063   9.8063
     9.8239   9.8239   9.8843   9.8843   9.9010   9.9010  10.0796  10.0796
    10.1460  10.1461  10.1941  10.1941  10.1963  10.1964  10.2778  10.2778
    10.4453

          k =-0.5000-0.4662-0.3105 (180564 PWs)   bands (ev):

   -21.1508 -21.1507 -21.1427 -21.1426 -21.0901 -21.0900 -21.0838 -21.0837
   -20.4993 -20.4993 -20.4949 -20.4949 -20.4751 -20.4751 -20.4708 -20.4708
   -18.8571 -18.8567 -18.8421 -18.8417 -18.8244 -18.8240 -18.8148 -18.8144
   -18.2272 -18.2272 -18.2170 -18.2170 -18.2097 -18.2097 -18.2019 -18.2019
   -18.0277 -18.0268 -18.0174 -18.0163 -18.0097 -18.0088 -18.0025 -18.0014
   -17.8925 -17.8924 -17.8907 -17.8907 -17.8891 -17.8891 -17.8881 -17.8880
   -17.6313 -17.6313 -17.6280 -17.6280 -17.6058 -17.6058 -17.6015 -17.6015
   -13.3346 -13.3346 -13.3288 -13.3288 -13.3236 -13.3235 -13.3032 -13.3031
   -11.1062 -11.1061 -11.0915 -11.0915 -11.0739 -11.0739 -11.0732 -11.0731
   -10.8504 -10.8504 -10.8333 -10.8333 -10.8267 -10.8267 -10.8009 -10.8008
    -9.6992  -9.6991  -9.6541  -9.6541  -9.6509  -9.6508  -9.6176  -9.6176
    -8.7672  -8.7671  -8.7670  -8.7669  -8.7020  -8.7020  -8.6870  -8.6870
    -8.6850  -8.6850  -8.6410  -8.6410  -8.6309  -8.6308  -8.5988  -8.5987
    -7.4253  -7.4252  -7.4228  -7.4228  -7.4118  -7.4118  -7.4055  -7.4054
    -6.3826  -6.3825  -6.3484  -6.3483  -6.3373  -6.3372  -6.3145  -6.3144
    -6.0651  -6.0651  -6.0428  -6.0427  -5.9598  -5.9597  -5.9380  -5.9380
    -5.5481  -5.5481  -5.5166  -5.5166  -5.5020  -5.5019  -5.4759  -5.4759
    -5.3620  -5.3620  -5.3589  -5.3588  -5.3187  -5.3187  -5.2994  -5.2994
    -5.0454  -5.0453  -5.0077  -5.0077  -4.9685  -4.9685  -4.9578  -4.9577
    -4.8473  -4.8473  -4.8334  -4.8333  -4.7494  -4.7494  -4.7481  -4.7481
    -3.7726  -3.7725  -3.7136  -3.7136  -3.6823  -3.6822  -3.6692  -3.6691
    -3.6278  -3.6278  -3.6264  -3.6264  -3.5645  -3.5644  -3.5604  -3.5603
    -3.5262  -3.5262  -3.5156  -3.5156  -3.5005  -3.5003  -3.4348  -3.4348
    -3.2962  -3.2962  -3.2522  -3.2522  -3.2354  -3.2354  -3.1735  -3.1735
    -3.1137  -3.1136  -3.1036  -3.1036  -3.0675  -3.0674  -3.0372  -3.0372
    -3.0057  -3.0057  -2.9841  -2.9840  -2.9283  -2.9281  -2.8546  -2.8546
    -2.7147  -2.7147  -2.6029  -2.6028  -2.5978  -2.5977  -2.5570  -2.5570
    -2.3819  -2.3819  -2.3338  -2.3337  -2.2267  -2.2267  -2.1227  -2.1226
    -2.0506  -2.0505  -2.0369  -2.0368  -1.8456  -1.8455  -1.8277  -1.8276
    -1.5118  -1.5118  -1.4693  -1.4693  -1.4160  -1.4160  -1.3936  -1.3936
    -1.1901  -1.1901  -1.1625  -1.1625  -1.1220  -1.1220  -1.0268  -1.0268
    -0.9798  -0.9797  -0.9788  -0.9787  -0.9386  -0.9385  -0.9245  -0.9244
    -0.8426  -0.8425  -0.7955  -0.7954  -0.7631  -0.7630  -0.7179  -0.7178
    -0.2833  -0.2833  -0.2691  -0.2690  -0.1423  -0.1421  -0.0984  -0.0984
    -0.0237  -0.0237   0.0187   0.0188   0.0488   0.0488   0.0802   0.0803
     0.0964   0.0964   0.1139   0.1140   0.1738   0.1738   0.2225   0.2226
     0.4077   0.4077   0.4393   0.4393   0.4970   0.4971   0.5832   0.5832
     0.7301   0.7303   0.7338   0.7343   0.7435   0.7437   0.7502   0.7506
     1.0364   1.0364   1.1252   1.1252   1.1869   1.1869   1.2632   1.2632
     1.3252   1.3253   1.3460   1.3460   1.4732   1.4732   1.5168   1.5168
     1.7046   1.7046   1.7229   1.7230   1.8843   1.8843   1.9001   1.9001
     7.1576   7.1578   7.1582   7.1584   7.1646   7.1648   7.1855   7.1859
     7.4255   7.4255   7.6056   7.6057   7.6677   7.6678   8.0562   8.0563
     8.2412   8.2413   8.3089   8.3089   8.5567   8.5568   8.6351   8.6351
     8.7887   8.7887   8.8852   8.8852   8.8878   8.8878   8.9802   8.9803
     9.1844   9.1844   9.1879   9.1879   9.3546   9.3546   9.3991   9.3991
     9.6040   9.6040   9.6071   9.6071   9.7440   9.7440   9.8188   9.8188
     9.8673   9.8673   9.9382   9.9382   9.9466   9.9466  10.0493  10.0493
    10.0804  10.0804  10.1695  10.1695  10.2544  10.2544  10.3334  10.3334
    10.4555

     highest occupied, lowest unoccupied level (ev):     1.9012    7.1095

!    total energy              =   -3588.52333301 Ry
     Harris-Foulkes estimate   =   -3588.52333301 Ry
     estimated scf accuracy    <          3.0E-09 Ry

     total all-electron energy =    -13380.851521 Ry

     The total energy is the sum of the following terms:

     one-electron contribution =   -1902.10183323 Ry
     hartree contribution      =    1244.04795723 Ry
     xc contribution           =    -727.47976368 Ry
     ewald contribution        =   -1243.68775844 Ry
     Dispersion Correction     =      -0.94624519 Ry
     one-center paw contrib.   =    -958.35568969 Ry

     convergence has been achieved in  18 iterations

     Forces acting on atoms (cartesian axes, Ry/au):

     atom    1 type  4   force =    -0.00027260    0.00004315   -0.00045434
     atom    2 type  4   force =     0.00027578    0.00004564    0.00045347
     atom    3 type  4   force =    -0.00027681    0.00004524   -0.00045410
     atom    4 type  4   force =     0.00027079    0.00004044    0.00045554
     atom    5 type  4   force =     0.00027260   -0.00004315    0.00045434
     atom    6 type  4   force =    -0.00027578   -0.00004564   -0.00045347
     atom    7 type  4   force =     0.00027681   -0.00004524    0.00045410
     atom    8 type  4   force =    -0.00027079   -0.00004044   -0.00045554
     atom    9 type  4   force =    -0.00020037    0.00014983    0.00065042
     atom   10 type  4   force =     0.00020373    0.00015104   -0.00065369
     atom   11 type  4   force =    -0.00020449    0.00015669    0.00065096
     atom   12 type  4   force =     0.00020099    0.00015166   -0.00065037
     atom   13 type  4   force =     0.00020037   -0.00014983   -0.00065042
     atom   14 type  4   force =    -0.00020373   -0.00015104    0.00065369
     atom   15 type  4   force =     0.00020449   -0.00015669   -0.00065096
     atom   16 type  4   force =    -0.00020099   -0.00015166    0.00065037
     atom   17 type  4   force =     0.00012791    0.00021003    0.00018807
     atom   18 type  4   force =    -0.00012950    0.00021393   -0.00018849
     atom   19 type  4   force =     0.00012978    0.00021635    0.00018614
     atom   20 type  4   force =    -0.00012778    0.00021004   -0.00018579
     atom   21 type  4   force =    -0.00012791   -0.00021003   -0.00018807
     atom   22 type  4   force =     0.00012950   -0.00021393    0.00018849
     atom   23 type  4   force =    -0.00012978   -0.00021635   -0.00018614
     atom   24 type  4   force =     0.00012778   -0.00021004    0.00018579
     atom   25 type  4   force =    -0.00005175    0.00023998    0.00000291
     atom   26 type  4   force =     0.00006335    0.00024023   -0.00002551
     atom   27 type  4   force =    -0.00006438    0.00023303    0.00003999
     atom   28 type  4   force =     0.00005181    0.00024438    0.00000180
     atom   29 type  4   force =     0.00005175   -0.00023998   -0.00000291
     atom   30 type  4   force =    -0.00006335   -0.00024023    0.00002551
     atom   31 type  4   force =     0.00006438   -0.00023303   -0.00003999
     atom   32 type  4   force =    -0.00005181   -0.00024438   -0.00000180
     atom   33 type  4   force =    -0.00001288   -0.00018779    0.00010487
     atom   34 type  4   force =     0.00001177   -0.00018208   -0.00009975
     atom   35 type  4   force =    -0.00001097   -0.00018033    0.00009573
     atom   36 type  4   force =     0.00001367   -0.00018353   -0.00010498
     atom   37 type  4   force =     0.00001288    0.00018779   -0.00010487
     atom   38 type  4   force =    -0.00001177    0.00018208    0.00009975
     atom   39 type  4   force =     0.00001097    0.00018033   -0.00009573
     atom   40 type  4   force =    -0.00001367    0.00018353    0.00010498
     atom   41 type  4   force =    -0.00033658   -0.00001967   -0.00003062
     atom   42 type  4   force =     0.00034939   -0.00001917    0.00001267
     atom   43 type  4   force =    -0.00035858   -0.00002558   -0.00000271
     atom   44 type  4   force =     0.00033330   -0.00001430    0.00003381
     atom   45 type  4   force =     0.00033658    0.00001967    0.00003062
     atom   46 type  4   force =    -0.00034939    0.00001917   -0.00001267
     atom   47 type  4   force =     0.00035858    0.00002558    0.00000271
     atom   48 type  4   force =    -0.00033330    0.00001430   -0.00003381
     atom   49 type  4   force =    -0.00006753   -0.00006702    0.00000563
     atom   50 type  4   force =     0.00016477   -0.00017569   -0.00035097
     atom   51 type  4   force =    -0.00023933   -0.00026639    0.00062154
     atom   52 type  4   force =     0.00003556   -0.00002674    0.00011117
     atom   53 type  4   force =     0.00006753    0.00006702   -0.00000563
     atom   54 type  4   force =    -0.00016477    0.00017569    0.00035097
     atom   55 type  4   force =     0.00023933    0.00026639   -0.00062154
     atom   56 type  4   force =    -0.00003556    0.00002674   -0.00011117
     atom   57 type  1   force =    -0.00038428   -0.00010756    0.00013333
     atom   58 type  1   force =     0.00038032   -0.00011074   -0.00013133
     atom   59 type  1   force =    -0.00037904   -0.00009394    0.00013121
     atom   60 type  1   force =     0.00038505   -0.00008937   -0.00013449
     atom   61 type  1   force =     0.00038428    0.00010756   -0.00013333
     atom   62 type  1   force =    -0.00038032    0.00011074    0.00013133
     atom   63 type  1   force =     0.00037904    0.00009394   -0.00013121
     atom   64 type  1   force =    -0.00038505    0.00008937    0.00013449
     atom   65 type  1   force =    -0.00028780   -0.00016682    0.00007684
     atom   66 type  1   force =     0.00028826   -0.00017088   -0.00007872
     atom   67 type  1   force =    -0.00028670   -0.00014518    0.00008172
     atom   68 type  1   force =     0.00028742   -0.00013724   -0.00007725
     atom   69 type  1   force =     0.00028780    0.00016682   -0.00007684
     atom   70 type  1   force =    -0.00028826    0.00017088    0.00007872
     atom   71 type  1   force =     0.00028670    0.00014518   -0.00008172
     atom   72 type  1   force =    -0.00028742    0.00013724    0.00007725
     atom   73 type  1   force =    -0.00009715   -0.00008042   -0.00023996
     atom   74 type  1   force =     0.00009554   -0.00008314    0.00024079
     atom   75 type  1   force =    -0.00009526   -0.00006957   -0.00024103
     atom   76 type  1   force =     0.00009765   -0.00006444    0.00023934
     atom   77 type  1   force =     0.00009715    0.00008042    0.00023996
     atom   78 type  1   force =    -0.00009554    0.00008314   -0.00024079
     atom   79 type  1   force =     0.00009526    0.00006957    0.00024103
     atom   80 type  1   force =    -0.00009765    0.00006444   -0.00023934
     atom   81 type  1   force =    -0.00004824   -0.00017636    0.00011641
     atom   82 type  1   force =     0.00007069   -0.00018214   -0.00012899
     atom   83 type  1   force =    -0.00009083   -0.00017067    0.00014002
     atom   84 type  1   force =     0.00004271   -0.00015971   -0.00011424
     atom   85 type  1   force =     0.00004824    0.00017636   -0.00011641
     atom   86 type  1   force =    -0.00007069    0.00018214    0.00012899
     atom   87 type  1   force =     0.00009083    0.00017067   -0.00014002
     atom   88 type  1   force =    -0.00004271    0.00015971    0.00011424
     atom   89 type  1   force =     0.00012697   -0.00023327    0.00019129
     atom   90 type  1   force =    -0.00012798   -0.00023813   -0.00019062
     atom   91 type  1   force =     0.00012749   -0.00023296    0.00019010
     atom   92 type  1   force =    -0.00012757   -0.00023749   -0.00019144
     atom   93 type  1   force =    -0.00012697    0.00023327   -0.00019129
     atom   94 type  1   force =     0.00012798    0.00023813    0.00019062
     atom   95 type  1   force =    -0.00012749    0.00023296   -0.00019010
     atom   96 type  1   force =     0.00012757    0.00023749    0.00019144
     atom   97 type  1   force =     0.00011394    0.00006587    0.00020803
     atom   98 type  1   force =    -0.00012609    0.00006717   -0.00023107
     atom   99 type  1   force =     0.00013627    0.00007569    0.00024990
     atom  100 type  1   force =    -0.00011064    0.00007530   -0.00020186
     atom  101 type  1   force =    -0.00011394   -0.00006587   -0.00020803
     atom  102 type  1   force =     0.00012609   -0.00006717    0.00023107
     atom  103 type  1   force =    -0.00013627   -0.00007569   -0.00024990
     atom  104 type  1   force =     0.00011064   -0.00007530    0.00020186
     atom  105 type  1   force =     0.00042722   -0.00002506   -0.00050289
     atom  106 type  1   force =    -0.00042960   -0.00003006    0.00050901
     atom  107 type  1   force =     0.00043041   -0.00004506   -0.00050807
     atom  108 type  1   force =    -0.00042625   -0.00003957    0.00049937
     atom  109 type  1   force =    -0.00042722    0.00002506    0.00050289
     atom  110 type  1   force =     0.00042960    0.00003006   -0.00050901
     atom  111 type  1   force =    -0.00043041    0.00004506    0.00050807
     atom  112 type  1   force =     0.00042625    0.00003957   -0.00049937
     atom  113 type  1   force =     0.00007526    0.00030444   -0.00074841
     atom  114 type  1   force =    -0.00020244    0.00041766    0.00115665
     atom  115 type  1   force =     0.00029112    0.00052879   -0.00146922
     atom  116 type  1   force =    -0.00003945    0.00025178    0.00061794
     atom  117 type  1   force =    -0.00007526   -0.00030444    0.00074841
     atom  118 type  1   force =     0.00020244   -0.00041766   -0.00115665
     atom  119 type  1   force =    -0.00029112   -0.00052879    0.00146922
     atom  120 type  1   force =     0.00003945   -0.00025178   -0.00061794
     atom  121 type  3   force =     0.00008884   -0.00003559   -0.00064171
     atom  122 type  3   force =    -0.00009026   -0.00003251    0.00064428
     atom  123 type  3   force =     0.00008997   -0.00003320   -0.00064293
     atom  124 type  3   force =    -0.00008904   -0.00003470    0.00064144
     atom  125 type  3   force =    -0.00008884    0.00003559    0.00064171
     atom  126 type  3   force =     0.00009026    0.00003251   -0.00064428
     atom  127 type  3   force =    -0.00008997    0.00003320    0.00064293
     atom  128 type  3   force =     0.00008904    0.00003470   -0.00064144
     atom  129 type  3   force =    -0.00012009   -0.00029247    0.00021261
     atom  130 type  3   force =     0.00012034   -0.00029179   -0.00021168
     atom  131 type  3   force =    -0.00012003   -0.00029117    0.00021042
     atom  132 type  3   force =     0.00012031   -0.00029265   -0.00021299
     atom  133 type  3   force =     0.00012009    0.00029247   -0.00021261
     atom  134 type  3   force =    -0.00012034    0.00029179    0.00021168
     atom  135 type  3   force =     0.00012003    0.00029117   -0.00021042
     atom  136 type  3   force =    -0.00012031    0.00029265    0.00021299
     atom  137 type  3   force =    -0.00007853   -0.00011706    0.00008219
     atom  138 type  3   force =     0.00007760   -0.00011761   -0.00008048
     atom  139 type  3   force =    -0.00007691   -0.00011796    0.00007917
     atom  140 type  3   force =     0.00007863   -0.00011714   -0.00008218
     atom  141 type  3   force =     0.00007853    0.00011706   -0.00008219
     atom  142 type  3   force =    -0.00007760    0.00011761    0.00008048
     atom  143 type  3   force =     0.00007691    0.00011796   -0.00007917
     atom  144 type  3   force =    -0.00007863    0.00011714    0.00008218
     atom  145 type  3   force =    -0.00013756   -0.00004505    0.00023977
     atom  146 type  3   force =     0.00013806   -0.00004566   -0.00024143
     atom  147 type  3   force =    -0.00013834   -0.00004533    0.00024168
     atom  148 type  3   force =     0.00013759   -0.00004512   -0.00023978
     atom  149 type  3   force =     0.00013756    0.00004505   -0.00023977
     atom  150 type  3   force =    -0.00013806    0.00004566    0.00024143
     atom  151 type  3   force =     0.00013834    0.00004533   -0.00024168
     atom  152 type  3   force =    -0.00013759    0.00004512    0.00023978
     atom  153 type  3   force =    -0.00050217    0.00002193    0.00048082
     atom  154 type  3   force =     0.00049845    0.00002164   -0.00048065
     atom  155 type  3   force =    -0.00049282    0.00002071    0.00048003
     atom  156 type  3   force =     0.00050379    0.00002199   -0.00048090
     atom  157 type  3   force =     0.00050217   -0.00002193   -0.00048082
     atom  158 type  3   force =    -0.00049845   -0.00002164    0.00048065
     atom  159 type  3   force =     0.00049282   -0.00002071   -0.00048003
     atom  160 type  3   force =    -0.00050379   -0.00002199    0.00048090
     atom  161 type  3   force =     0.00010165   -0.00042269    0.00009587
     atom  162 type  3   force =    -0.00010004   -0.00042019   -0.00009858
     atom  163 type  3   force =     0.00009997   -0.00042151    0.00009861
     atom  164 type  3   force =    -0.00010116   -0.00042181   -0.00009671
     atom  165 type  3   force =    -0.00010165    0.00042269   -0.00009587
     atom  166 type  3   force =     0.00010004    0.00042019    0.00009858
     atom  167 type  3   force =    -0.00009997    0.00042151   -0.00009861
     atom  168 type  3   force =     0.00010116    0.00042181    0.00009671
     atom  169 type  3   force =     0.00022204   -0.00020796    0.00053565
     atom  170 type  3   force =    -0.00021955   -0.00021069   -0.00053221
     atom  171 type  3   force =     0.00021609   -0.00021314    0.00052815
     atom  172 type  3   force =    -0.00022274   -0.00020779   -0.00053618
     atom  173 type  3   force =    -0.00022204    0.00020796   -0.00053565
     atom  174 type  3   force =     0.00021955    0.00021069    0.00053221
     atom  175 type  3   force =    -0.00021609    0.00021314   -0.00052815
     atom  176 type  3   force =     0.00022274    0.00020779    0.00053618
     atom  177 type  3   force =    -0.00005521   -0.00001670    0.00009083
     atom  178 type  3   force =     0.00005762   -0.00001606   -0.00009157
     atom  179 type  3   force =    -0.00005793   -0.00001635    0.00009062
     atom  180 type  3   force =     0.00005376   -0.00001603   -0.00009030
     atom  181 type  3   force =     0.00005521    0.00001670   -0.00009083
     atom  182 type  3   force =    -0.00005762    0.00001606    0.00009157
     atom  183 type  3   force =     0.00005793    0.00001635   -0.00009062
     atom  184 type  3   force =    -0.00005376    0.00001603    0.00009030

     Total force =     0.006533     Total SCF correction =     0.000120


     Computing stress (Cartesian axis) and pressure

          total   stress  (Ry/bohr**3)                   (kbar)     P=   -3.93
  -0.00001543  -0.00000001  -0.00000461         -2.27     -0.00     -0.68
  -0.00000001  -0.00003652   0.00000004         -0.00     -5.37      0.01
  -0.00000461   0.00000004  -0.00002824         -0.68      0.01     -4.15


     Writing output data file scf.save
 
     init_run     :    223.07s CPU    228.84s WALL (       1 calls)
     electrons    :  10573.91s CPU  10827.06s WALL (       1 calls)
     forces       :    121.24s CPU    121.84s WALL (       1 calls)
     stress       :    632.01s CPU    632.98s WALL (       1 calls)

     Called by init_run:
     wfcinit      :    205.44s CPU    210.94s WALL (       1 calls)
     potinit      :      6.28s CPU      6.34s WALL (       1 calls)

     Called by electrons:
     c_bands      :   9756.07s CPU   9974.39s WALL (      18 calls)
     sum_band     :    787.12s CPU    818.31s WALL (      18 calls)
     v_of_rho     :      3.63s CPU      4.01s WALL (      19 calls)
     newd         :     12.90s CPU     16.05s WALL (      19 calls)
     PAW_pot      :     13.31s CPU     13.31s WALL (      19 calls)
     mix_rho      :      0.87s CPU      0.96s WALL (      18 calls)

     Called by c_bands:
     init_us_2    :     25.68s CPU     25.80s WALL (     312 calls)
     cegterg      :   9641.31s CPU   9859.51s WALL (     144 calls)

     Called by sum_band:
     sum_band:bec :      0.44s CPU      0.45s WALL (     144 calls)
     addusdens    :     13.30s CPU     16.28s WALL (      18 calls)

     Called by *egterg:
     h_psi        :   4294.51s CPU   4463.85s WALL (     661 calls)
     s_psi        :   1343.58s CPU   1343.71s WALL (     661 calls)
     g_psi        :     14.92s CPU     14.92s WALL (     509 calls)
     cdiaghg      :    715.44s CPU    715.54s WALL (     653 calls)

     Called by h_psi:
     h_psi:pot    :   4273.92s CPU   4442.96s WALL (     661 calls)
     h_psi:calbec :   1317.14s CPU   1318.57s WALL (     661 calls)
     vloc_psi     :   1612.57s CPU   1780.02s WALL (     661 calls)
     add_vuspsi   :   1344.21s CPU   1344.36s WALL (     661 calls)

     General routines
     calbec       :   1901.28s CPU   1903.38s WALL (     845 calls)
     fft          :      2.86s CPU      3.49s WALL (     271 calls)
     fftw         :   1713.12s CPU   1907.69s WALL (  381892 calls)
 
     Parallel routines
     fft_scatter  :    270.00s CPU    460.74s WALL (  382163 calls)
 
     PWSCF        :     3h13m CPU        3h18m WALL

 
   This run was terminated on:  14: 6:45   4Nov2017            

=------------------------------------------------------------------------------=
   JOB DONE.
=------------------------------------------------------------------------------=
