
     Program PWSCF v.6.1 (svn rev. 13369) starts on 24Nov2017 at 23:50:29 

     This program is part of the open-source Quantum ESPRESSO suite
     for quantum simulation of materials; please cite
         "P. Giannozzi et al., J. Phys.:Condens. Matter 21 395502 (2009);
          URL http://www.quantum-espresso.org", 
     in publications or presentations arising from this work. More details at
     http://www.quantum-espresso.org/quote

     Parallel version (MPI), running on     8 processors
     R & G space division:  proc/nbgrp/npool/nimage =       8
     Waiting for input...
     Reading input from standard input

     Current dimensions of program PWSCF are:
     Max number of different atomic species (ntypx) = 10
     Max number of k-points (npk) =  40000
     Max angular momentum in pseudopotentials (lmaxx) =  3
               file C.pbe-n-kjpaw_psl.0.1.UPF: wavefunction(s)  2P renormalized
               file N.pbe-n-kjpaw_psl.0.1.UPF: wavefunction(s)  2P renormalized
               file H.pbe-kjpaw_psl.0.1.UPF: wavefunction(s)  1S renormalized
               file O.pbe-n-kjpaw_psl.0.1.UPF: wavefunction(s)  2P renormalized

     -------------------------------------
     Parameters for Dispersion Correction:
     -------------------------------------
       atom      VdW radius       C_6     

        C          2.744         60.710
        N          2.640         42.670
        H          1.892          4.857
        O          2.536         24.284

     Subspace diagonalization in iterative solution of the eigenvalue problem:
     a serial algorithm will be used

 
     Parallelization info
     --------------------
     sticks:   dense  smooth     PW     G-vecs:    dense   smooth      PW
     Min        1408    1408    372               164195   164195   22272
     Max        1409    1409    373               164199   164199   22277
     Sum       11271   11271   2979              1313587  1313587  178187
 


     bravais-lattice index     =            0
     lattice parameter (alat)  =      19.5776  a.u.
     unit-cell volume          =    9723.4666 (a.u.)^3
     number of atoms/cell      =          156
     number of atomic types    =            4
     number of electrons       =       416.00
     number of Kohn-Sham states=          249
     kinetic-energy cutoff     =     100.0000  Ry
     charge density cutoff     =     400.0000  Ry
     convergence threshold     =      1.0E-08
     mixing beta               =       0.5000
     number of iterations used =            8  plain     mixing
     Exchange-correlation      =  SLA  PW   PBX  PBC ( 1  4  3  4 0 0)

     celldm(1)=  19.577563  celldm(2)=   0.000000  celldm(3)=   0.000000
     celldm(4)=   0.000000  celldm(5)=   0.000000  celldm(6)=   0.000000

     crystal axes: (cart. coord. in units of alat)
               a(1) = (   1.000000   0.000000   0.000000 )  
               a(2) = (   0.000000   0.924286   0.000000 )  
               a(3) = (  -0.238737   0.000000   1.401971 )  

     reciprocal axes: (cart. coord. in units 2 pi/alat)
               b(1) = (  1.000000  0.000000  0.170287 )  
               b(2) = (  0.000000  1.081917  0.000000 )  
               b(3) = (  0.000000  0.000000  0.713282 )  


     PseudoPot. # 1 for  C read from file:
     /scratch/ahofstet/pseudo/C.pbe-n-kjpaw_psl.0.1.UPF
     MD5 check sum: 430fe95172b1e11ef3f8ed03bac87931
     Pseudo is Projector augmented-wave + core cor, Zval =  4.0
     Generated using "atomic" code by A. Dal Corso  v.5.0.99 svn rev. 10869
     Shape of augmentation charge: BESSEL
     Using radial grid of 1073 points,  4 beta functions with: 
                l(1) =   0
                l(2) =   0
                l(3) =   1
                l(4) =   1
     Q(r) pseudized with 0 coefficients 


     PseudoPot. # 2 for  N read from file:
     /scratch/ahofstet/pseudo/N.pbe-n-kjpaw_psl.0.1.UPF
     MD5 check sum: f73187c8b701007e77325f868c9291d7
     Pseudo is Projector augmented-wave + core cor, Zval =  5.0
     Generated using "atomic" code by A. Dal Corso  v.5.0.99 svn rev. 10869
     Shape of augmentation charge: PSQ
     Using radial grid of 1085 points,  4 beta functions with: 
                l(1) =   0
                l(2) =   0
                l(3) =   1
                l(4) =   1
     Q(r) pseudized with 0 coefficients 


     PseudoPot. # 3 for  H read from file:
     /scratch/ahofstet/pseudo/H.pbe-kjpaw_psl.0.1.UPF
     MD5 check sum: 94e484f906d9e9773b2f6e52662335b2
     Pseudo is Projector augmented-wave, Zval =  1.0
     Generated using "atomic" code by A. Dal Corso  v.5.0.99 svn rev. 10869
     Shape of augmentation charge: PSQ
     Using radial grid of  929 points,  2 beta functions with: 
                l(1) =   0
                l(2) =   0
     Q(r) pseudized with 0 coefficients 


     PseudoPot. # 4 for  O read from file:
     /scratch/ahofstet/pseudo/O.pbe-n-kjpaw_psl.0.1.UPF
     MD5 check sum: 3f94a2996a3169367d6eb21d9b593f20
     Pseudo is Projector augmented-wave + core cor, Zval =  6.0
     Generated using "atomic" code by A. Dal Corso  v.5.0.99 svn rev. 10869
     Shape of augmentation charge: BESSEL
     Using radial grid of 1095 points,  4 beta functions with: 
                l(1) =   0
                l(2) =   0
                l(3) =   1
                l(4) =   1
     Q(r) pseudized with 0 coefficients 


     atomic species   valence    mass     pseudopotential
        C              4.00    12.01070      C( 1.00)
        N              5.00    14.00670      N( 1.00)
        H              1.00     1.00794      H( 1.00)
        O              6.00    15.99940      O( 1.00)

      4 Sym. Ops., with inversion, found ( 2 have fractional translation)



   Cartesian axes

     site n.     atom                  positions (alat units)
         1           O   tau(   1) = (   0.5549702   0.0641830   0.2282451  )
         2           O   tau(   2) = (   0.3256614   0.5263259   0.4727404  )
         3           O   tau(   3) = (   0.2062931   0.8601027   1.1737259  )
         4           O   tau(   4) = (   0.4356018   0.3979599   0.9292305  )
         5           O   tau(   5) = (   0.3796582   0.3671155   0.2941234  )
         6           O   tau(   6) = (   0.5009734   0.8292583   0.4068621  )
         7           O   tau(   7) = (   0.3816050   0.5571702   1.1078476  )
         8           O   tau(   8) = (   0.2602898   0.0950274   0.9951088  )
         9           H   tau(   9) = (   0.3523426   0.4296571   0.3673027  )
        10           H   tau(  10) = (   0.5282890   0.8917999   0.3336828  )
        11           H   tau(  11) = (   0.4089206   0.4946286   1.0346682  )
        12           H   tau(  12) = (   0.2329742   0.0324858   1.0682882  )
        13           N   tau(  13) = (   0.4592673   0.2451070   0.0786154  )
        14           N   tau(  14) = (   0.4213643   0.7072499   0.6223701  )
        15           N   tau(  15) = (   0.3019959   0.6791787   1.3233555  )
        16           N   tau(  16) = (   0.3398989   0.2170358   0.7796009  )
        17           H   tau(  17) = (   0.4696999   0.1992539   0.1677924  )
        18           H   tau(  18) = (   0.4109317   0.6613967   0.5331931  )
        19           H   tau(  19) = (   0.2915633   0.7250319   1.2341785  )
        20           H   tau(  20) = (   0.3503315   0.2628890   0.8687779  )
        21           C   tau(  21) = (   0.2999629   0.2006477   1.3915091  )
        22           C   tau(  22) = (   0.3419320   0.6627906   0.7114473  )
        23           C   tau(  23) = (   0.4613004   0.7236380   0.0104618  )
        24           C   tau(  24) = (   0.4193313   0.2614952   0.6905236  )
        25           H   tau(  25) = (   0.2989310   0.2472896   1.2969676  )
        26           H   tau(  26) = (   0.3429639   0.7094325   0.8059888  )
        27           H   tau(  27) = (   0.4623323   0.6769961   0.1050034  )
        28           H   tau(  28) = (   0.4182994   0.2148532   0.5959821  )
        29           C   tau(  29) = (   0.6282979   0.1002260   0.0127228  )
        30           C   tau(  30) = (   0.2523338   0.5623689   0.6882627  )
        31           C   tau(  31) = (   0.1329654   0.8240597   1.3892482  )
        32           C   tau(  32) = (   0.5089295   0.3619168   0.7137083  )
        33           C   tau(  33) = (   0.6347105   0.0348196   0.1362522  )
        34           C   tau(  34) = (   0.2459211   0.4969625   0.5647333  )
        35           C   tau(  35) = (   0.1265527   0.8894661   1.2657188  )
        36           C   tau(  36) = (   0.5153422   0.4273232   0.8372377  )
        37           C   tau(  37) = (   0.7323013   0.8632762   0.1512993  )
        38           C   tau(  38) = (   0.1483303   0.4011333   0.5496862  )
        39           C   tau(  39) = (   0.0289619   0.0610096   1.2506717  )
        40           C   tau(  40) = (   0.6129330   0.5231524   0.8522848  )
        41           H   tau(  41) = (   0.7390679   0.8140300   0.2442114  )
        42           H   tau(  42) = (   0.1415637   0.3518872   0.4567741  )
        43           H   tau(  43) = (   0.0221953   0.1102557   1.1577595  )
        44           H   tau(  44) = (   0.6196995   0.5723985   0.9451969  )
        45           C   tau(  45) = (   0.8165989   0.8342590   0.0518043  )
        46           C   tau(  46) = (   0.0640327   0.3721161   0.6491812  )
        47           C   tau(  47) = (  -0.0553356   0.0900268   1.3501666  )
        48           C   tau(  48) = (   0.6972305   0.5521696   0.7527898  )
        49           H   tau(  49) = (   0.8904535   0.7606501   0.0668090  )
        50           H   tau(  50) = (  -0.0098219   0.2985072   0.6341765  )
        51           H   tau(  51) = (  -0.1291903   0.1636356   1.3351620  )
        52           H   tau(  52) = (   0.7710851   0.6257785   0.7677944  )
        53           C   tau(  53) = (   0.5692486   0.8966139   1.3328344  )
        54           C   tau(  54) = (   0.0726463   0.4344711   0.7701220  )
        55           C   tau(  55) = (   0.1920147   0.0276718   0.0691365  )
        56           C   tau(  56) = (   0.6886170   0.4898146   0.6318490  )
        57           H   tau(  57) = (   0.6355535   0.8710122   1.2553996  )
        58           H   tau(  58) = (   0.0063414   0.4088693   0.8475568  )
        59           H   tau(  59) = (   0.1257097   0.0532735   0.1465713  )
        60           H   tau(  60) = (   0.7549219   0.5154164   0.5544142  )
        61           C   tau(  61) = (   0.4758883   0.0655533   1.3142851  )
        62           C   tau(  62) = (   0.1660065   0.5276962   0.7886714  )
        63           C   tau(  63) = (   0.2853749   0.8587324   0.0876859  )
        64           C   tau(  64) = (   0.5952567   0.3965895   0.6132996  )
        65           H   tau(  65) = (   0.4669162   0.1143804   1.2213189  )
        66           H   tau(  66) = (   0.1749787   0.5765233   0.8816375  )
        67           H   tau(  67) = (   0.2943471   0.8099053   0.1806520  )
        68           H   tau(  68) = (   0.5862846   0.3477624   0.5203334  )
        69           C   tau(  69) = (   0.3691829   0.3452747   0.0660699  )
        70           C   tau(  70) = (   0.5114487   0.8074176   0.6349156  )
        71           C   tau(  71) = (   0.3920803   0.5790110   1.3359011  )
        72           C   tau(  72) = (   0.2498145   0.1168681   0.7670553  )
        73           C   tau(  73) = (   0.3299169   0.4075499   0.1814785  )
        74           C   tau(  74) = (   0.5507148   0.8696927   0.5195070  )
        75           C   tau(  75) = (   0.4313464   0.5167358   1.2204925  )
        76           C   tau(  76) = (   0.2105485   0.0545930   0.8824639  )
        77           C   tau(  77) = (   0.2412744   0.5091623   0.1713433  )
        78           C   tau(  78) = (   0.6393572   0.0470195   0.5296422  )
        79           C   tau(  79) = (   0.5199889   0.4151234   1.2306277  )
        80           C   tau(  80) = (   0.1219060   0.8772662   0.8723287  )
        81           H   tau(  81) = (   0.2122302   0.5589696   0.2592788  )
        82           H   tau(  82) = (   0.6684014   0.0968268   0.4417067  )
        83           H   tau(  83) = (   0.5490331   0.3653161   1.1426922  )
        84           H   tau(  84) = (   0.0928618   0.8274589   0.9602642  )
        85           C   tau(  85) = (   0.1910549   0.5449346   0.0519531  )
        86           C   tau(  86) = (   0.6895768   0.0827918   0.6490324  )
        87           C   tau(  87) = (   0.5702084   0.3793511   1.3500178  )
        88           C   tau(  88) = (   0.0716865   0.8414939   0.7529386  )
        89           H   tau(  89) = (   0.1222481   0.6242280   0.0487348  )
        90           H   tau(  90) = (   0.7583835   0.1620852   0.6522507  )
        91           H   tau(  91) = (   0.6390152   0.3000577   1.3532361  )
        92           H   tau(  92) = (   0.0028797   0.7622006   0.7497203  )
        93           C   tau(  93) = (  -0.0120370   0.4824822   1.3391804  )
        94           C   tau(  94) = (   0.6539318   0.0203393   0.7637760  )
        95           C   tau(  95) = (   0.7733002   0.4418036   0.0627905  )
        96           C   tau(  96) = (   0.1073314   0.9039464   0.6381950  )
        97           C   tau(  97) = (   0.0787848   0.3828343   1.3490421  )
        98           C   tau(  98) = (   0.5631101   0.8449771   0.7539143  )
        99           C   tau(  99) = (   0.6824785   0.5414515   0.0529288  )
       100           C   tau( 100) = (   0.1981531   0.0793086   0.6480566  )
       101           H   tau( 101) = (   0.1072303   0.3295254   1.2628994  )
       102           H   tau( 102) = (   0.5346646   0.7916682   0.8400570  )
       103           H   tau( 103) = (   0.6540330   0.5947603   0.1390715  )
       104           H   tau( 104) = (   0.2265986   0.1326175   0.5619139  )
       105           C   tau( 105) = (  -0.0704308   0.5175178   1.2078988  )
       106           C   tau( 106) = (   0.7123257   0.0553750   0.8950576  )
       107           C   tau( 107) = (   0.8316941   0.4067679   0.1940721  )
       108           C   tau( 108) = (   0.0489375   0.8689107   0.5069134  )
       109           C   tau( 109) = (  -0.1297759   0.3960959   1.1459252  )
       110           C   tau( 110) = (   0.7716707   0.8582388   0.9570312  )
       111           C   tau( 111) = (   0.8910391   0.5281898   0.2560457  )
       112           C   tau( 112) = (  -0.0104075   0.0660469   0.4449397  )
       113           H   tau( 113) = (  -0.1718791   0.4200842   1.0513886  )
       114           H   tau( 114) = (   0.8137739   0.8822271   1.0515678  )
       115           H   tau( 115) = (   0.9331423   0.5042015   0.3505824  )
       116           H   tau( 116) = (  -0.0525107   0.0420586   0.3504031  )
       117           H   tau( 117) = (  -0.2066190   0.3561387   1.2070689  )
       118           H   tau( 118) = (   0.8485139   0.8182815   0.8958875  )
       119           H   tau( 119) = (   0.9678823   0.5681470   0.1949020  )
       120           H   tau( 120) = (  -0.0872507   0.1060042   0.5060835  )
       121           H   tau( 121) = (  -0.0563592   0.3210352   1.1307765  )
       122           H   tau( 122) = (   0.6982540   0.7831780   0.9721799  )
       123           H   tau( 123) = (   0.8176224   0.6032505   0.2711944  )
       124           H   tau( 124) = (   0.0630092   0.1411077   0.4297911  )
       125           C   tau( 125) = (   0.0354681   0.5695824   1.1175881  )
       126           C   tau( 126) = (   0.6064268   0.1074396   0.9853683  )
       127           C   tau( 127) = (   0.7257952   0.3547033   0.2843829  )
       128           C   tau( 128) = (   0.1548365   0.8168462   0.4166026  )
       129           H   tau( 129) = (   0.0764310   0.6599560   1.1545455  )
       130           H   tau( 130) = (   0.5654639   0.1978131   0.9484109  )
       131           H   tau( 131) = (   0.6848323   0.2643297   0.2474254  )
       132           H   tau( 132) = (   0.1957993   0.7264726   0.4535600  )
       133           H   tau( 133) = (  -0.0060454   0.5889449   1.0215925  )
       134           H   tau( 134) = (   0.6479402   0.1268021   1.0813639  )
       135           H   tau( 135) = (   0.7673086   0.3353408   0.3803784  )
       136           H   tau( 136) = (   0.1133230   0.7974837   0.3206071  )
       137           H   tau( 137) = (   0.1149627   0.5002906   1.1060882  )
       138           H   tau( 138) = (   0.5269322   0.0381477   0.9968682  )
       139           H   tau( 139) = (   0.6463006   0.4239951   0.2958827  )
       140           H   tau( 140) = (   0.2343311   0.8861380   0.4051028  )
       141           C   tau( 141) = (  -0.1764511   0.6204870   1.2194666  )
       142           C   tau( 142) = (   0.8183460   0.1583441   0.8834899  )
       143           C   tau( 143) = (   0.9377144   0.3037987   0.1825044  )
       144           C   tau( 144) = (  -0.0570828   0.7659416   0.5184811  )
       145           H   tau( 145) = (  -0.1382158   0.7113084   1.2591800  )
       146           H   tau( 146) = (   0.7801106   0.2491655   0.8437765  )
       147           H   tau( 147) = (   0.8994790   0.2129773   0.1427910  )
       148           H   tau( 148) = (  -0.0188474   0.6751202   0.5581945  )
       149           H   tau( 149) = (   0.7430780   0.5871293   1.2801350  )
       150           H   tau( 150) = (  -0.1011831   0.1249865   0.8228214  )
       151           H   tau( 151) = (   0.0181852   0.3371564   0.1218359  )
       152           H   tau( 152) = (   0.8624464   0.7992992   0.5791496  )
       153           H   tau( 153) = (   0.7850242   0.6414579   1.1228746  )
       154           H   tau( 154) = (  -0.1431294   0.1793151   0.9800818  )
       155           H   tau( 155) = (  -0.0237610   0.2828278   0.2790963  )
       156           H   tau( 156) = (   0.9043926   0.7449706   0.4218892  )

     number of k points=     8
                       cart. coord. in units 2pi/alat
        k(    1) = (   0.0000000   0.0000000   0.0000000), wk =   0.2500000
        k(    2) = (   0.0000000   0.0000000  -0.3566408), wk =   0.2500000
        k(    3) = (   0.0000000  -0.5409583   0.0000000), wk =   0.2500000
        k(    4) = (   0.0000000  -0.5409583  -0.3566408), wk =   0.2500000
        k(    5) = (  -0.5000000   0.0000000  -0.0851433), wk =   0.2500000
        k(    6) = (  -0.5000000   0.0000000  -0.4417840), wk =   0.2500000
        k(    7) = (  -0.5000000  -0.5409583  -0.0851433), wk =   0.2500000
        k(    8) = (  -0.5000000  -0.5409583  -0.4417840), wk =   0.2500000

     Dense  grid:  1313587 G-vectors     FFT dimensions: ( 125, 120, 180)

     Estimated max dynamical RAM per process >    1703.94MB

     Estimated total allocated dynamical RAM >   13631.55MB

     Check: negative/imaginary core charge=   -0.000002    0.000000

     Initial potential from superposition of free atoms

     starting charge  415.99641, renormalised to  416.00000
     Starting wfc are  396 randomized atomic wfcs
     Checking if some PAW data can be deallocated... 

     total cpu time spent up to now is      134.8 secs

     per-process dynamical memory:  1124.0 Mb

     Self-consistent Calculation

     iteration #  1     ecut=   100.00 Ry     beta=0.50
     Davidson diagonalization with overlap
     ethr =  1.00E-02,  avg # of iterations =  4.2

     total cpu time spent up to now is      522.8 secs

     total energy              =   -1787.73244672 Ry
     Harris-Foulkes estimate   =   -1796.60483420 Ry
     estimated scf accuracy    <      16.75828684 Ry

     iteration #  2     ecut=   100.00 Ry     beta=0.50
     Davidson diagonalization with overlap
     ethr =  4.03E-03,  avg # of iterations =  2.0

     total cpu time spent up to now is      715.7 secs

     total energy              =   -1787.88856640 Ry
     Harris-Foulkes estimate   =   -1789.14654049 Ry
     estimated scf accuracy    <       2.34596087 Ry

     iteration #  3     ecut=   100.00 Ry     beta=0.50
     Davidson diagonalization with overlap
     ethr =  5.64E-04,  avg # of iterations =  5.0

     total cpu time spent up to now is     1183.8 secs

     total energy              =   -1790.40625590 Ry
     Harris-Foulkes estimate   =   -1791.73800940 Ry
     estimated scf accuracy    <       3.96445736 Ry

     iteration #  4     ecut=   100.00 Ry     beta=0.50
     Davidson diagonalization with overlap
     ethr =  5.64E-04,  avg # of iterations =  1.6

     total cpu time spent up to now is     1369.6 secs

     total energy              =   -1789.51856461 Ry
     Harris-Foulkes estimate   =   -1790.53876455 Ry
     estimated scf accuracy    <       1.55441414 Ry

     iteration #  5     ecut=   100.00 Ry     beta=0.50
     Davidson diagonalization with overlap
     ethr =  3.74E-04,  avg # of iterations =  6.1

     total cpu time spent up to now is     1784.6 secs

     total energy              =   -1790.49764311 Ry
     Harris-Foulkes estimate   =   -1790.92914856 Ry
     estimated scf accuracy    <       1.34297787 Ry

     iteration #  6     ecut=   100.00 Ry     beta=0.50
     Davidson diagonalization with overlap
     ethr =  3.23E-04,  avg # of iterations =  1.0

     total cpu time spent up to now is     1968.0 secs

     total energy              =   -1790.27188832 Ry
     Harris-Foulkes estimate   =   -1790.53739206 Ry
     estimated scf accuracy    <       0.57454933 Ry

     iteration #  7     ecut=   100.00 Ry     beta=0.50
     Davidson diagonalization with overlap
     ethr =  1.38E-04,  avg # of iterations =  5.1

     total cpu time spent up to now is     2278.2 secs

     total energy              =   -1790.49486467 Ry
     Harris-Foulkes estimate   =   -1790.49882642 Ry
     estimated scf accuracy    <       0.01887417 Ry

     iteration #  8     ecut=   100.00 Ry     beta=0.50
     Davidson diagonalization with overlap
     c_bands:  2 eigenvalues not converged
     ethr =  4.54E-06,  avg # of iterations = 13.0

     total cpu time spent up to now is     2675.4 secs

     total energy              =   -1790.49392146 Ry
     Harris-Foulkes estimate   =   -1790.49998815 Ry
     estimated scf accuracy    <       0.01133859 Ry

     iteration #  9     ecut=   100.00 Ry     beta=0.50
     Davidson diagonalization with overlap
     ethr =  2.73E-06,  avg # of iterations =  4.8

     total cpu time spent up to now is     2877.7 secs

     total energy              =   -1790.49495022 Ry
     Harris-Foulkes estimate   =   -1790.49526071 Ry
     estimated scf accuracy    <       0.00076256 Ry

     iteration # 10     ecut=   100.00 Ry     beta=0.50
     Davidson diagonalization with overlap
     ethr =  1.83E-07,  avg # of iterations =  4.9

     total cpu time spent up to now is     3316.6 secs

     total energy              =   -1790.49674295 Ry
     Harris-Foulkes estimate   =   -1790.49738943 Ry
     estimated scf accuracy    <       0.00165324 Ry

     iteration # 11     ecut=   100.00 Ry     beta=0.50
     Davidson diagonalization with overlap
     ethr =  1.83E-07,  avg # of iterations =  1.0

     total cpu time spent up to now is     3500.0 secs

     total energy              =   -1790.49647367 Ry
     Harris-Foulkes estimate   =   -1790.49680347 Ry
     estimated scf accuracy    <       0.00052568 Ry

     iteration # 12     ecut=   100.00 Ry     beta=0.50
     Davidson diagonalization with overlap
     ethr =  1.26E-07,  avg # of iterations =  4.0

     total cpu time spent up to now is     3870.6 secs

     total energy              =   -1790.49687684 Ry
     Harris-Foulkes estimate   =   -1790.49701480 Ry
     estimated scf accuracy    <       0.00045952 Ry

     iteration # 13     ecut=   100.00 Ry     beta=0.50
     Davidson diagonalization with overlap
     ethr =  1.10E-07,  avg # of iterations =  1.0

     total cpu time spent up to now is     4055.0 secs

     total energy              =   -1790.49680870 Ry
     Harris-Foulkes estimate   =   -1790.49688635 Ry
     estimated scf accuracy    <       0.00021237 Ry

     iteration # 14     ecut=   100.00 Ry     beta=0.50
     Davidson diagonalization with overlap
     ethr =  5.10E-08,  avg # of iterations =  3.0

     total cpu time spent up to now is     4324.5 secs

     total energy              =   -1790.49687001 Ry
     Harris-Foulkes estimate   =   -1790.49687058 Ry
     estimated scf accuracy    <       0.00000119 Ry

     iteration # 15     ecut=   100.00 Ry     beta=0.50
     Davidson diagonalization with overlap
     ethr =  2.87E-10,  avg # of iterations =  5.0

     total cpu time spent up to now is     4782.0 secs

     total energy              =   -1790.49687369 Ry
     Harris-Foulkes estimate   =   -1790.49687415 Ry
     estimated scf accuracy    <       0.00000167 Ry

     iteration # 16     ecut=   100.00 Ry     beta=0.50
     Davidson diagonalization with overlap
     ethr =  2.87E-10,  avg # of iterations =  1.0

     total cpu time spent up to now is     4966.0 secs

     total energy              =   -1790.49687322 Ry
     Harris-Foulkes estimate   =   -1790.49687372 Ry
     estimated scf accuracy    <       0.00000083 Ry

     iteration # 17     ecut=   100.00 Ry     beta=0.50
     Davidson diagonalization with overlap
     ethr =  2.01E-10,  avg # of iterations =  4.0

     total cpu time spent up to now is     5316.4 secs

     total energy              =   -1790.49687355 Ry
     Harris-Foulkes estimate   =   -1790.49687380 Ry
     estimated scf accuracy    <       0.00000050 Ry

     iteration # 18     ecut=   100.00 Ry     beta=0.50
     Davidson diagonalization with overlap
     ethr =  1.20E-10,  avg # of iterations =  1.0

     total cpu time spent up to now is     5500.6 secs

     total energy              =   -1790.49687352 Ry
     Harris-Foulkes estimate   =   -1790.49687358 Ry
     estimated scf accuracy    <       0.00000010 Ry

     iteration # 19     ecut=   100.00 Ry     beta=0.50
     Davidson diagonalization with overlap
     ethr =  2.38E-11,  avg # of iterations =  4.1

     total cpu time spent up to now is     5912.1 secs

     total energy              =   -1790.49687365 Ry
     Harris-Foulkes estimate   =   -1790.49687368 Ry
     estimated scf accuracy    <       0.00000015 Ry

     iteration # 20     ecut=   100.00 Ry     beta=0.50
     Davidson diagonalization with overlap
     ethr =  2.38E-11,  avg # of iterations =  1.0

     total cpu time spent up to now is     6095.3 secs

     total energy              =   -1790.49687362 Ry
     Harris-Foulkes estimate   =   -1790.49687366 Ry
     estimated scf accuracy    <       0.00000009 Ry

     iteration # 21     ecut=   100.00 Ry     beta=0.50
     Davidson diagonalization with overlap
     ethr =  2.15E-11,  avg # of iterations =  4.9

     total cpu time spent up to now is     6315.0 secs

     End of self-consistent calculation

          k = 0.0000 0.0000 0.0000 (164175 PWs)   bands (ev):

   -20.0663 -20.0607 -20.0205 -20.0199 -19.2760 -19.2440 -19.1466 -19.1238
   -18.4092 -18.4077 -18.3119 -18.3051 -15.3219 -15.2895 -15.2872 -15.2658
   -15.0204 -15.0169 -14.9633 -14.9515 -14.0828 -14.0644 -14.0590 -14.0561
   -13.3701 -13.3633 -13.2729 -13.2574 -12.4379 -12.4368 -12.3105 -12.3026
   -12.0834 -12.0542 -11.9970 -11.9907 -11.8385 -11.8091 -11.7498 -11.7480
   -10.8390 -10.8278 -10.7474 -10.7273 -10.6394 -10.6283 -10.6243 -10.6240
   -10.4250 -10.4199 -10.4123 -10.3995  -9.6689  -9.5914  -9.5279  -9.4956
    -9.1880  -9.1444  -9.0120  -8.9857  -8.8812  -8.8333  -8.7370  -8.6992
    -8.4123  -8.3922  -8.2628  -8.2076  -7.9500  -7.9103  -7.8122  -7.8086
    -7.2958  -7.2876  -7.2516  -7.1732  -6.7964  -6.7490  -6.7011  -6.6644
    -6.3905  -6.3466  -6.3359  -6.2840  -6.0319  -6.0079  -5.9498  -5.9385
    -5.6059  -5.6035  -5.5155  -5.4638  -5.4309  -5.3417  -5.3228  -5.2247
    -5.1065  -5.0597  -5.0306  -5.0268  -5.0046  -4.9477  -4.9035  -4.8763
    -4.8701  -4.8406  -4.6955  -4.6490  -4.6297  -4.6200  -4.5444  -4.5381
    -4.5123  -4.4705  -4.4338  -4.4306  -4.3431  -4.3283  -4.2387  -4.2325
    -4.1555  -4.1148  -4.0991  -4.0763  -4.0474  -4.0224  -4.0005  -3.9256
    -3.8001  -3.7980  -3.7857  -3.7244  -3.6907  -3.6525  -3.5547  -3.5175
    -3.4017  -3.3446  -3.3144  -3.2327  -3.2061  -3.1703  -3.1616  -3.1507
    -3.1273  -2.9902  -2.9399  -2.8966  -2.8937  -2.8643  -2.8525  -2.8228
    -2.7666  -2.7628  -2.7564  -2.7049  -2.5954  -2.5890  -2.5849  -2.4819
    -2.4735  -2.4408  -2.4180  -2.4045  -2.2185  -2.1842  -2.0140  -2.0110
    -1.9841  -1.9753  -1.9222  -1.9175  -1.9025  -1.8714  -1.8055  -1.7588
    -1.7273  -1.6687  -1.6588  -1.6374  -1.5674  -1.5431  -1.4352  -1.4127
    -1.4074  -1.3800  -1.3545  -1.3256  -1.1676  -1.1475  -0.4467  -0.4251
    -0.0915  -0.0713   0.0233   0.0718   0.0772   0.0815   0.2513   0.2625
     0.5368   0.5918   0.8098   0.8883   1.0175   1.0463   1.0845   1.1351
     2.9845   3.0365   3.2897   3.3204   4.7257   4.7972   4.8824   4.8881
     5.2012   5.2310   5.2416   5.2431   5.3393   5.3963   5.4815   5.4899
     5.7199   5.8946   5.8976   5.9550   5.9695   6.0171   6.4648   6.5752
     6.6598   6.6869   6.7031   6.7203   6.7960   7.0662   7.0995   7.3522
     7.3835   7.4837   7.4882   7.5619   7.5738   7.7385   7.8758   8.0674
     8.0759

          k = 0.0000 0.0000-0.3566 (164222 PWs)   bands (ev):

   -20.0635 -20.0635 -20.0202 -20.0202 -19.2615 -19.2615 -19.1337 -19.1337
   -18.4085 -18.4085 -18.3085 -18.3085 -15.3104 -15.3104 -15.2711 -15.2711
   -15.0198 -15.0198 -14.9576 -14.9576 -14.0775 -14.0775 -14.0517 -14.0517
   -13.3680 -13.3680 -13.2646 -13.2646 -12.4374 -12.4374 -12.3066 -12.3066
   -12.0833 -12.0833 -11.9779 -11.9779 -11.8435 -11.8435 -11.7296 -11.7296
   -10.8376 -10.8376 -10.7298 -10.7298 -10.6336 -10.6336 -10.6265 -10.6265
   -10.4264 -10.4264 -10.4027 -10.4027  -9.6128  -9.6128  -9.5370  -9.5370
    -9.1625  -9.1625  -9.0079  -9.0079  -8.8246  -8.8246  -8.7478  -8.7478
    -8.4074  -8.4074  -8.2339  -8.2339  -7.9492  -7.9492  -7.7797  -7.7797
    -7.2533  -7.2533  -7.2211  -7.2211  -6.7494  -6.7494  -6.7142  -6.7142
    -6.3957  -6.3957  -6.3242  -6.3242  -6.0104  -6.0104  -5.9382  -5.9382
    -5.6680  -5.6680  -5.4336  -5.4336  -5.4107  -5.4107  -5.2564  -5.2564
    -5.0457  -5.0457  -5.0368  -5.0368  -5.0175  -5.0175  -4.9075  -4.9075
    -4.7910  -4.7910  -4.7499  -4.7499  -4.5788  -4.5788  -4.5408  -4.5408
    -4.4337  -4.4337  -4.4079  -4.4079  -4.2667  -4.2667  -4.2305  -4.2305
    -4.2025  -4.2025  -4.1426  -4.1426  -4.0177  -4.0177  -3.9674  -3.9674
    -3.8692  -3.8692  -3.7681  -3.7681  -3.6527  -3.6527  -3.5429  -3.5429
    -3.3833  -3.3833  -3.2363  -3.2363  -3.1922  -3.1922  -3.1055  -3.1055
    -3.0707  -3.0707  -2.9140  -2.9140  -2.8748  -2.8748  -2.8415  -2.8415
    -2.7932  -2.7932  -2.7529  -2.7529  -2.5776  -2.5776  -2.5517  -2.5517
    -2.4357  -2.4357  -2.4144  -2.4144  -2.1998  -2.1998  -2.0144  -2.0144
    -1.9796  -1.9796  -1.9019  -1.9019  -1.8789  -1.8789  -1.7515  -1.7515
    -1.7260  -1.7260  -1.6420  -1.6420  -1.5546  -1.5546  -1.4225  -1.4225
    -1.4092  -1.4092  -1.3573  -1.3573  -1.1577  -1.1577  -0.4353  -0.4353
    -0.0867  -0.0867   0.0529   0.0529   0.0842   0.0842   0.2549   0.2549
     0.5549   0.5549   0.8633   0.8633   1.0207   1.0207   1.1212   1.1212
     3.0079   3.0079   3.3064   3.3064   4.7616   4.7616   4.8890   4.8890
     5.1988   5.1988   5.2492   5.2492   5.3738   5.3738   5.4844   5.4844
     5.8619   5.8619   5.8960   5.8960   5.9763   5.9763   6.4857   6.4857
     6.6133   6.6133   6.7200   6.7200   7.0804   7.0804   7.1828   7.1828
     7.3105   7.3105   7.4974   7.4974   7.8202   7.8202   7.9196   7.9196
     8.1315

          k = 0.0000-0.5410 0.0000 (164242 PWs)   bands (ev):

   -20.0443 -20.0443 -20.0414 -20.0414 -19.2128 -19.2128 -19.1862 -19.1862
   -18.3669 -18.3669 -18.3444 -18.3444 -15.3029 -15.3029 -15.2796 -15.2796
   -14.9943 -14.9943 -14.9816 -14.9816 -14.0751 -14.0751 -14.0610 -14.0610
   -13.3191 -13.3191 -13.3124 -13.3124 -12.3738 -12.3738 -12.3598 -12.3598
   -12.0514 -12.0514 -12.0057 -12.0057 -11.8026 -11.8026 -11.7750 -11.7750
   -10.8220 -10.8220 -10.7930 -10.7930 -10.6405 -10.6405 -10.6209 -10.6209
   -10.4038 -10.4038 -10.3872 -10.3872  -9.6162  -9.6162  -9.5550  -9.5550
    -9.0898  -9.0898  -9.0409  -9.0409  -8.8072  -8.8072  -8.7631  -8.7631
    -8.3425  -8.3425  -8.2902  -8.2902  -7.9031  -7.9031  -7.8405  -7.8405
    -7.2720  -7.2720  -7.2480  -7.2480  -6.7590  -6.7590  -6.7168  -6.7168
    -6.3536  -6.3536  -6.3000  -6.3000  -6.0011  -6.0011  -5.9064  -5.9064
    -5.6673  -5.6673  -5.6153  -5.6153  -5.3217  -5.3217  -5.2819  -5.2819
    -5.0189  -5.0189  -4.9863  -4.9863  -4.9369  -4.9369  -4.8295  -4.8295
    -4.8102  -4.8102  -4.7712  -4.7712  -4.6163  -4.6163  -4.5237  -4.5237
    -4.5156  -4.5156  -4.4364  -4.4364  -4.4052  -4.4052  -4.3752  -4.3752
    -4.1971  -4.1971  -4.0783  -4.0783  -4.0164  -4.0164  -3.8792  -3.8792
    -3.8213  -3.8213  -3.6560  -3.6560  -3.6356  -3.6356  -3.5621  -3.5621
    -3.3466  -3.3466  -3.2528  -3.2528  -3.1643  -3.1643  -3.1147  -3.1147
    -3.0666  -3.0666  -2.9480  -2.9480  -2.8612  -2.8612  -2.8483  -2.8483
    -2.8161  -2.8161  -2.7323  -2.7323  -2.5731  -2.5731  -2.4991  -2.4991
    -2.4712  -2.4712  -2.4521  -2.4521  -2.1317  -2.1317  -2.1124  -2.1124
    -2.0120  -2.0120  -1.9447  -1.9447  -1.8884  -1.8884  -1.8344  -1.8344
    -1.7036  -1.7036  -1.6279  -1.6279  -1.5693  -1.5693  -1.4234  -1.4234
    -1.3801  -1.3801  -1.3538  -1.3538  -0.7545  -0.7545  -0.7065  -0.7065
    -0.0597  -0.0597   0.0512   0.0512   0.1159   0.1159   0.1787   0.1787
     0.5273   0.5273   0.8047   0.8047   1.0879   1.0879   1.1370   1.1370
     2.9946   2.9946   3.2699   3.2699   4.7553   4.7553   4.8788   4.8788
     5.1175   5.1175   5.2552   5.2552   5.4684   5.4684   5.5516   5.5516
     5.9081   5.9081   5.9162   5.9162   6.0410   6.0410   6.2781   6.2781
     6.6840   6.6840   6.7964   6.7964   7.0726   7.0726   7.2540   7.2540
     7.4653   7.4653   7.5099   7.5099   7.5910   7.5910   7.7555   7.7555
     7.9298

          k = 0.0000-0.5410-0.3566 (164156 PWs)   bands (ev):

   -20.0429 -20.0429 -20.0428 -20.0428 -19.2122 -19.2122 -19.1868 -19.1868
   -18.3666 -18.3666 -18.3447 -18.3447 -15.3023 -15.3023 -15.2795 -15.2795
   -14.9949 -14.9949 -14.9824 -14.9824 -14.0742 -14.0742 -14.0603 -14.0603
   -13.3168 -13.3168 -13.3150 -13.3150 -12.3739 -12.3739 -12.3605 -12.3605
   -12.0527 -12.0527 -12.0154 -12.0154 -11.7981 -11.7981 -11.7670 -11.7670
   -10.8198 -10.8198 -10.7923 -10.7923 -10.6437 -10.6437 -10.6195 -10.6195
   -10.4051 -10.4051 -10.3887 -10.3887  -9.6056  -9.6056  -9.5582  -9.5582
    -9.0889  -9.0889  -9.0438  -9.0438  -8.8151  -8.8151  -8.7805  -8.7805
    -8.3332  -8.3332  -8.2914  -8.2914  -7.8723  -7.8723  -7.8592  -7.8592
    -7.2630  -7.2630  -7.2240  -7.2240  -6.7589  -6.7589  -6.7292  -6.7292
    -6.3689  -6.3689  -6.3267  -6.3267  -5.9888  -5.9888  -5.9202  -5.9202
    -5.6620  -5.6620  -5.6072  -5.6072  -5.3364  -5.3364  -5.2897  -5.2897
    -5.0182  -5.0182  -4.9599  -4.9599  -4.9404  -4.9404  -4.8689  -4.8689
    -4.8097  -4.8097  -4.7265  -4.7265  -4.6150  -4.6150  -4.5582  -4.5582
    -4.4906  -4.4906  -4.4582  -4.4582  -4.3427  -4.3427  -4.2955  -4.2955
    -4.2176  -4.2176  -4.1234  -4.1234  -4.0162  -4.0162  -3.8822  -3.8822
    -3.8594  -3.8594  -3.6895  -3.6895  -3.6052  -3.6052  -3.6049  -3.6049
    -3.3343  -3.3343  -3.2512  -3.2512  -3.1442  -3.1442  -3.0997  -3.0997
    -3.0496  -3.0496  -2.9600  -2.9600  -2.8881  -2.8881  -2.8847  -2.8847
    -2.7653  -2.7653  -2.7235  -2.7235  -2.5443  -2.5443  -2.5342  -2.5342
    -2.4833  -2.4833  -2.4451  -2.4451  -2.1253  -2.1253  -2.1150  -2.1150
    -1.9959  -1.9959  -1.9356  -1.9356  -1.8868  -1.8868  -1.8062  -1.8062
    -1.7097  -1.7097  -1.6904  -1.6904  -1.5640  -1.5640  -1.4540  -1.4540
    -1.3625  -1.3625  -1.3374  -1.3374  -0.7525  -0.7525  -0.7061  -0.7061
    -0.0600  -0.0600   0.0545   0.0545   0.1115   0.1115   0.1787   0.1787
     0.5285   0.5285   0.8017   0.8017   1.1137   1.1137   1.1189   1.1189
     2.9936   2.9936   3.2699   3.2699   4.7602   4.7602   4.8730   4.8730
     5.1200   5.1200   5.2461   5.2461   5.4893   5.4893   5.5413   5.5413
     5.9221   5.9221   5.9291   5.9291   6.0703   6.0703   6.2015   6.2015
     6.6656   6.6656   6.7772   6.7772   7.2116   7.2116   7.2771   7.2771
     7.4551   7.4551   7.4852   7.4852   7.5014   7.5014   7.6165   7.6165
     8.0015

          k =-0.5000 0.0000-0.0851 (164188 PWs)   bands (ev):

   -20.0663 -20.0607 -20.0205 -20.0199 -19.2760 -19.2440 -19.1466 -19.1238
   -18.4092 -18.4077 -18.3119 -18.3051 -15.3451 -15.3085 -15.2696 -15.2421
   -15.0068 -15.0055 -14.9733 -14.9604 -14.0937 -14.0732 -14.0626 -14.0422
   -13.3915 -13.3662 -13.2577 -13.2489 -12.4375 -12.4332 -12.2984 -12.2947
   -12.0600 -12.0403 -12.0269 -11.9824 -11.8275 -11.8186 -11.7627 -11.7569
   -10.8792 -10.8395 -10.7718 -10.7522 -10.6578 -10.6280 -10.6211 -10.6105
   -10.4130 -10.4033 -10.3790 -10.3606  -9.6459  -9.6221  -9.5670  -9.4966
    -9.1680  -9.1430  -9.0152  -8.9828  -8.8537  -8.8461  -8.7088  -8.6567
    -8.4259  -8.4000  -8.2875  -8.2102  -7.9550  -7.8607  -7.8441  -7.8430
    -7.3416  -7.2662  -7.2482  -7.1728  -6.8023  -6.7501  -6.6986  -6.6783
    -6.3762  -6.3500  -6.2949  -6.2646  -6.0368  -5.9529  -5.9422  -5.9203
    -5.7182  -5.6616  -5.5847  -5.5006  -5.4277  -5.3457  -5.3352  -5.2125
    -5.0255  -5.0219  -5.0183  -4.9820  -4.9625  -4.9126  -4.8991  -4.8955
    -4.8047  -4.7522  -4.7268  -4.6546  -4.6296  -4.6070  -4.5877  -4.5782
    -4.5701  -4.5295  -4.5235  -4.5057  -4.4004  -4.2843  -4.2667  -4.2217
    -4.1643  -4.1265  -4.0866  -4.0524  -4.0159  -3.9831  -3.9630  -3.9109
    -3.8445  -3.7872  -3.7503  -3.7006  -3.6413  -3.5565  -3.5110  -3.4845
    -3.3842  -3.2930  -3.2863  -3.2347  -3.2077  -3.2023  -3.1638  -3.1532
    -3.1284  -3.1244  -2.9297  -2.8996  -2.8983  -2.8982  -2.8415  -2.8239
    -2.8239  -2.7617  -2.6951  -2.6815  -2.5720  -2.5674  -2.5576  -2.5421
    -2.4793  -2.4551  -2.4406  -2.4181  -2.2078  -2.1632  -2.1557  -2.1296
    -2.0357  -2.0255  -1.9729  -1.9219  -1.8480  -1.8136  -1.7786  -1.7348
    -1.7032  -1.6816  -1.6662  -1.6369  -1.6005  -1.5853  -1.4391  -1.4170
    -1.3751  -1.3405  -1.3396  -1.3108  -1.0664  -1.0247  -0.4940  -0.4654
    -0.0614  -0.0560   0.0262   0.0747   0.0886   0.0951   0.2123   0.2355
     0.5006   0.5964   0.8201   0.8700   0.9911   1.0620   1.0683   1.1447
     2.9509   3.0029   3.3469   3.3775   4.8312   4.8349   4.8440   4.8966
     5.1618   5.1778   5.1989   5.2262   5.3179   5.3352   5.5152   5.5866
     5.7128   5.7795   5.8068   6.0282   6.0919   6.1869   6.3058   6.4170
     6.4719   6.5718   6.7541   6.8978   7.0777   7.1021   7.1998   7.2833
     7.3633   7.4073   7.5489   7.6284   7.6799   7.7355   7.7442   7.8980
     8.0330

          k =-0.5000 0.0000-0.4418 (164200 PWs)   bands (ev):

   -20.0635 -20.0635 -20.0202 -20.0202 -19.2615 -19.2615 -19.1337 -19.1337
   -18.4085 -18.4085 -18.3085 -18.3085 -15.3286 -15.3286 -15.2541 -15.2541
   -15.0066 -15.0066 -14.9671 -14.9671 -14.0804 -14.0804 -14.0542 -14.0542
   -13.3789 -13.3789 -13.2534 -13.2534 -12.4354 -12.4354 -12.2971 -12.2971
   -12.0646 -12.0646 -11.9919 -11.9919 -11.8490 -11.8490 -11.7295 -11.7295
   -10.8617 -10.8617 -10.7597 -10.7597 -10.6505 -10.6505 -10.6100 -10.6100
   -10.4018 -10.4018 -10.3767 -10.3767  -9.6291  -9.6291  -9.5343  -9.5343
    -9.1635  -9.1635  -8.9956  -8.9956  -8.7994  -8.7994  -8.7571  -8.7571
    -8.4152  -8.4152  -8.2409  -8.2409  -7.8888  -7.8888  -7.8410  -7.8410
    -7.2564  -7.2564  -7.2252  -7.2252  -6.7685  -6.7685  -6.7308  -6.7308
    -6.3632  -6.3632  -6.2942  -6.2942  -5.9750  -5.9750  -5.9598  -5.9598
    -5.6778  -5.6778  -5.5532  -5.5532  -5.4205  -5.4205  -5.2352  -5.2352
    -5.0198  -5.0198  -4.9880  -4.9880  -4.9613  -4.9613  -4.8983  -4.8983
    -4.7927  -4.7927  -4.7324  -4.7324  -4.6094  -4.6094  -4.5907  -4.5907
    -4.4696  -4.4696  -4.4047  -4.4047  -4.3425  -4.3425  -4.2246  -4.2246
    -4.2223  -4.2223  -4.1009  -4.1009  -3.9908  -3.9908  -3.9303  -3.9303
    -3.8472  -3.8472  -3.7590  -3.7590  -3.6003  -3.6003  -3.5116  -3.5116
    -3.3567  -3.3567  -3.2365  -3.2365  -3.2082  -3.2082  -3.1622  -3.1622
    -3.0135  -3.0135  -2.9632  -2.9632  -2.9157  -2.9157  -2.8131  -2.8131
    -2.8003  -2.8003  -2.6932  -2.6932  -2.6087  -2.6087  -2.5437  -2.5437
    -2.4640  -2.4640  -2.4154  -2.4154  -2.2010  -2.2010  -2.1229  -2.1229
    -2.0292  -2.0292  -1.9328  -1.9328  -1.8230  -1.8230  -1.7336  -1.7336
    -1.7045  -1.7045  -1.6662  -1.6662  -1.6195  -1.6195  -1.4127  -1.4127
    -1.3679  -1.3679  -1.3261  -1.3261  -1.0446  -1.0446  -0.4797  -0.4797
    -0.0574  -0.0574   0.0474   0.0474   0.0958   0.0958   0.2264   0.2264
     0.5386   0.5386   0.8560   0.8560   1.0002   1.0002   1.1325   1.1325
     2.9748   2.9748   3.3631   3.3631   4.8293   4.8293   4.8743   4.8743
     5.1681   5.1681   5.2161   5.2161   5.3191   5.3191   5.5618   5.5618
     5.7399   5.7399   5.9982   5.9982   6.0785   6.0785   6.2411   6.2411
     6.6308   6.6308   6.8337   6.8337   7.0446   7.0446   7.2249   7.2249
     7.4800   7.4800   7.5789   7.5789   7.6814   7.6814   7.8002   7.8002
     8.0014

          k =-0.5000-0.5410-0.0851 (164252 PWs)   bands (ev):

   -20.0443 -20.0443 -20.0414 -20.0414 -19.2128 -19.2128 -19.1862 -19.1862
   -18.3669 -18.3669 -18.3444 -18.3444 -15.3206 -15.3206 -15.2584 -15.2584
   -14.9980 -14.9980 -14.9833 -14.9833 -14.0787 -14.0787 -14.0516 -14.0516
   -13.3372 -13.3372 -13.2951 -13.2951 -12.3740 -12.3740 -12.3696 -12.3696
   -12.0679 -12.0679 -11.9961 -11.9961 -11.7903 -11.7903 -11.7817 -11.7817
   -10.7866 -10.7866 -10.7785 -10.7785 -10.6357 -10.6357 -10.6190 -10.6190
   -10.4357 -10.4357 -10.4060 -10.4060  -9.5889  -9.5889  -9.5666  -9.5666
    -9.0916  -9.0916  -9.0539  -9.0539  -8.8367  -8.8367  -8.7689  -8.7689
    -8.3356  -8.3356  -8.2672  -8.2672  -7.8951  -7.8951  -7.8405  -7.8405
    -7.2875  -7.2875  -7.2331  -7.2331  -6.7416  -6.7416  -6.7004  -6.7004
    -6.3769  -6.3769  -6.3297  -6.3297  -6.0130  -6.0130  -5.9384  -5.9384
    -5.5846  -5.5846  -5.5568  -5.5568  -5.3346  -5.3346  -5.2663  -5.2663
    -5.0538  -5.0538  -5.0158  -5.0158  -4.9301  -4.9301  -4.8361  -4.8361
    -4.7849  -4.7849  -4.7541  -4.7541  -4.6568  -4.6568  -4.6148  -4.6148
    -4.5508  -4.5508  -4.4516  -4.4516  -4.4195  -4.4195  -4.3464  -4.3464
    -4.1408  -4.1408  -4.0751  -4.0751  -3.9721  -3.9721  -3.9480  -3.9480
    -3.8123  -3.8123  -3.6595  -3.6595  -3.5699  -3.5699  -3.5419  -3.5419
    -3.3061  -3.3061  -3.2502  -3.2502  -3.1806  -3.1806  -3.1420  -3.1420
    -3.0269  -3.0269  -2.9363  -2.9363  -2.8662  -2.8662  -2.8455  -2.8455
    -2.7988  -2.7988  -2.7187  -2.7187  -2.5944  -2.5944  -2.5043  -2.5043
    -2.4877  -2.4877  -2.4529  -2.4529  -2.2266  -2.2266  -2.0657  -2.0657
    -2.0429  -2.0429  -1.9488  -1.9488  -1.9391  -1.9391  -1.8080  -1.8080
    -1.6828  -1.6828  -1.6772  -1.6772  -1.6349  -1.6349  -1.3887  -1.3887
    -1.3404  -1.3404  -1.2277  -1.2277  -0.7974  -0.7974  -0.7177  -0.7177
    -0.0602  -0.0602   0.0539   0.0539   0.1370   0.1370   0.1707   0.1707
     0.5401   0.5401   0.8160   0.8160   1.0633   1.0633   1.0971   1.0971
     3.0031   3.0031   3.2959   3.2959   4.7624   4.7624   4.9886   4.9886
     5.0892   5.0892   5.2105   5.2105   5.4058   5.4058   5.4550   5.4550
     5.7802   5.7802   5.9585   5.9585   6.2169   6.2169   6.3289   6.3289
     6.7142   6.7142   6.7411   6.7411   6.9732   6.9732   7.3760   7.3760
     7.4724   7.4724   7.6680   7.6680   7.6852   7.6852   7.7519   7.7519
     7.8676

          k =-0.5000-0.5410-0.4418 (164152 PWs)   bands (ev):

   -20.0429 -20.0429 -20.0428 -20.0428 -19.2122 -19.2122 -19.1868 -19.1868
   -18.3666 -18.3666 -18.3447 -18.3447 -15.3201 -15.3201 -15.2582 -15.2582
   -14.9988 -14.9988 -14.9840 -14.9840 -14.0768 -14.0768 -14.0519 -14.0519
   -13.3371 -13.3371 -13.2955 -13.2955 -12.3735 -12.3735 -12.3712 -12.3712
   -12.0744 -12.0744 -12.0020 -12.0020 -11.7807 -11.7807 -11.7762 -11.7762
   -10.7878 -10.7878 -10.7805 -10.7805 -10.6357 -10.6357 -10.6188 -10.6188
   -10.4325 -10.4325 -10.4056 -10.4056  -9.5864  -9.5864  -9.5734  -9.5734
    -9.0851  -9.0851  -9.0503  -9.0503  -8.8456  -8.8456  -8.7802  -8.7802
    -8.3284  -8.3284  -8.2841  -8.2841  -7.8813  -7.8813  -7.8321  -7.8321
    -7.2461  -7.2461  -7.2384  -7.2384  -6.7381  -6.7381  -6.7250  -6.7250
    -6.3823  -6.3823  -6.3525  -6.3525  -6.0159  -6.0159  -5.9480  -5.9480
    -5.5833  -5.5833  -5.5584  -5.5584  -5.3452  -5.3452  -5.2557  -5.2557
    -5.0458  -5.0458  -5.0254  -5.0254  -4.9439  -4.9439  -4.8396  -4.8396
    -4.7734  -4.7734  -4.7057  -4.7057  -4.6899  -4.6899  -4.5787  -4.5787
    -4.5732  -4.5732  -4.4449  -4.4449  -4.3575  -4.3575  -4.2947  -4.2947
    -4.1718  -4.1718  -4.1184  -4.1184  -3.9744  -3.9744  -3.9421  -3.9421
    -3.8479  -3.8479  -3.7171  -3.7171  -3.5608  -3.5608  -3.5484  -3.5484
    -3.3165  -3.3165  -3.2457  -3.2457  -3.1380  -3.1380  -3.1118  -3.1118
    -3.0330  -3.0330  -2.9101  -2.9101  -2.8832  -2.8832  -2.8574  -2.8574
    -2.7906  -2.7906  -2.7493  -2.7493  -2.5772  -2.5772  -2.5398  -2.5398
    -2.4702  -2.4702  -2.4534  -2.4534  -2.2337  -2.2337  -2.0513  -2.0513
    -2.0415  -2.0415  -1.9557  -1.9557  -1.9283  -1.9283  -1.7852  -1.7852
    -1.7034  -1.7034  -1.6821  -1.6821  -1.5940  -1.5940  -1.4193  -1.4193
    -1.3621  -1.3621  -1.2203  -1.2203  -0.7987  -0.7987  -0.7202  -0.7202
    -0.0538  -0.0538   0.0547   0.0547   0.1394   0.1394   0.1676   0.1676
     0.5454   0.5454   0.8015   0.8015   1.0823   1.0823   1.0903   1.0903
     3.0024   3.0024   3.2949   3.2949   4.7610   4.7610   4.9875   4.9875
     5.0915   5.0915   5.2177   5.2177   5.4146   5.4146   5.4383   5.4383
     5.8048   5.8048   6.0022   6.0022   6.1929   6.1929   6.2531   6.2531
     6.6736   6.6736   6.7271   6.7271   7.1939   7.1939   7.2663   7.2663
     7.5197   7.5197   7.5480   7.5480   7.7329   7.7330   7.7818   7.7818
     7.8044

     highest occupied, lowest unoccupied level (ev):     1.1447    2.9509

!    total energy              =   -1790.49687363 Ry
     Harris-Foulkes estimate   =   -1790.49687364 Ry
     estimated scf accuracy    <          8.2E-09 Ry

     total all-electron energy =     -6914.425785 Ry

     The total energy is the sum of the following terms:

     one-electron contribution =   -1095.96294006 Ry
     hartree contribution      =     698.25547632 Ry
     xc contribution           =    -416.95873355 Ry
     ewald contribution        =    -413.52443089 Ry
     Dispersion Correction     =      -0.72107727 Ry
     one-center paw contrib.   =    -561.58516818 Ry

     convergence has been achieved in  21 iterations

     Forces acting on atoms (cartesian axes, Ry/au):

     atom    1 type  4   force =    -0.00062296    0.00006721   -0.00001528
     atom    2 type  4   force =     0.00062296    0.00006721    0.00001528
     atom    3 type  4   force =     0.00062296   -0.00006721    0.00001528
     atom    4 type  4   force =    -0.00062296   -0.00006721   -0.00001528
     atom    5 type  4   force =     0.00047684   -0.00035364    0.00028318
     atom    6 type  4   force =    -0.00047684   -0.00035364   -0.00028318
     atom    7 type  4   force =    -0.00047684    0.00035364   -0.00028318
     atom    8 type  4   force =     0.00047684    0.00035364    0.00028318
     atom    9 type  3   force =     0.00044724    0.00026240    0.00046591
     atom   10 type  3   force =    -0.00044724    0.00026240   -0.00046591
     atom   11 type  3   force =    -0.00044724   -0.00026240   -0.00046591
     atom   12 type  3   force =     0.00044724   -0.00026240    0.00046591
     atom   13 type  2   force =     0.00025770   -0.00014813   -0.00057889
     atom   14 type  2   force =    -0.00025770   -0.00014813    0.00057889
     atom   15 type  2   force =    -0.00025770    0.00014813    0.00057889
     atom   16 type  2   force =     0.00025770    0.00014813   -0.00057889
     atom   17 type  3   force =    -0.00042788   -0.00040222   -0.00024966
     atom   18 type  3   force =     0.00042788   -0.00040222    0.00024966
     atom   19 type  3   force =     0.00042788    0.00040222    0.00024966
     atom   20 type  3   force =    -0.00042788    0.00040222   -0.00024966
     atom   21 type  1   force =     0.00009506   -0.00037249   -0.00006941
     atom   22 type  1   force =    -0.00009506   -0.00037249    0.00006941
     atom   23 type  1   force =    -0.00009506    0.00037249    0.00006941
     atom   24 type  1   force =     0.00009506    0.00037249   -0.00006941
     atom   25 type  3   force =    -0.00058219    0.00036130    0.00036029
     atom   26 type  3   force =     0.00058219    0.00036130   -0.00036029
     atom   27 type  3   force =     0.00058219   -0.00036130   -0.00036029
     atom   28 type  3   force =    -0.00058219   -0.00036130    0.00036029
     atom   29 type  1   force =     0.00133212   -0.00062258   -0.00078555
     atom   30 type  1   force =    -0.00133212   -0.00062258    0.00078555
     atom   31 type  1   force =    -0.00133212    0.00062258    0.00078555
     atom   32 type  1   force =     0.00133212    0.00062258   -0.00078555
     atom   33 type  1   force =     0.00088166   -0.00068703    0.00018728
     atom   34 type  1   force =    -0.00088166   -0.00068703   -0.00018728
     atom   35 type  1   force =    -0.00088166    0.00068703   -0.00018728
     atom   36 type  1   force =     0.00088166    0.00068703    0.00018728
     atom   37 type  1   force =    -0.00035954    0.00061480   -0.00092234
     atom   38 type  1   force =     0.00035954    0.00061480    0.00092234
     atom   39 type  1   force =     0.00035954   -0.00061480    0.00092234
     atom   40 type  1   force =    -0.00035954   -0.00061480   -0.00092234
     atom   41 type  3   force =    -0.00016283    0.00044023   -0.00006827
     atom   42 type  3   force =     0.00016283    0.00044023    0.00006827
     atom   43 type  3   force =     0.00016283   -0.00044023    0.00006827
     atom   44 type  3   force =    -0.00016283   -0.00044023   -0.00006827
     atom   45 type  1   force =    -0.00022752   -0.00005523   -0.00012987
     atom   46 type  1   force =     0.00022752   -0.00005523    0.00012987
     atom   47 type  1   force =     0.00022752    0.00005523    0.00012987
     atom   48 type  1   force =    -0.00022752    0.00005523   -0.00012987
     atom   49 type  3   force =    -0.00029682   -0.00001867   -0.00026172
     atom   50 type  3   force =     0.00029682   -0.00001867    0.00026172
     atom   51 type  3   force =     0.00029682    0.00001867    0.00026172
     atom   52 type  3   force =    -0.00029682    0.00001867   -0.00026172
     atom   53 type  1   force =     0.00074736   -0.00026345    0.00023420
     atom   54 type  1   force =    -0.00074736   -0.00026345   -0.00023420
     atom   55 type  1   force =    -0.00074736    0.00026345   -0.00023420
     atom   56 type  1   force =     0.00074736    0.00026345    0.00023420
     atom   57 type  3   force =     0.00039023   -0.00032254   -0.00080300
     atom   58 type  3   force =    -0.00039023   -0.00032254    0.00080300
     atom   59 type  3   force =    -0.00039023    0.00032254    0.00080300
     atom   60 type  3   force =     0.00039023    0.00032254   -0.00080300
     atom   61 type  1   force =    -0.00081206   -0.00129970   -0.00014769
     atom   62 type  1   force =     0.00081206   -0.00129970    0.00014769
     atom   63 type  1   force =     0.00081206    0.00129970    0.00014769
     atom   64 type  1   force =    -0.00081206    0.00129970   -0.00014769
     atom   65 type  3   force =     0.00012120    0.00011969    0.00077121
     atom   66 type  3   force =    -0.00012120    0.00011969   -0.00077121
     atom   67 type  3   force =    -0.00012120   -0.00011969   -0.00077121
     atom   68 type  3   force =     0.00012120   -0.00011969    0.00077121
     atom   69 type  1   force =    -0.00156165    0.00143390   -0.00041943
     atom   70 type  1   force =     0.00156165    0.00143390    0.00041943
     atom   71 type  1   force =     0.00156165   -0.00143390    0.00041943
     atom   72 type  1   force =    -0.00156165   -0.00143390   -0.00041943
     atom   73 type  1   force =    -0.00038527   -0.00046290   -0.00019526
     atom   74 type  1   force =     0.00038527   -0.00046290    0.00019526
     atom   75 type  1   force =     0.00038527    0.00046290    0.00019526
     atom   76 type  1   force =    -0.00038527    0.00046290   -0.00019526
     atom   77 type  1   force =    -0.00006757    0.00012652   -0.00013298
     atom   78 type  1   force =     0.00006757    0.00012652    0.00013298
     atom   79 type  1   force =     0.00006757   -0.00012652    0.00013298
     atom   80 type  1   force =    -0.00006757   -0.00012652   -0.00013298
     atom   81 type  3   force =    -0.00065772    0.00063529    0.00049519
     atom   82 type  3   force =     0.00065772    0.00063529   -0.00049519
     atom   83 type  3   force =     0.00065772   -0.00063529   -0.00049519
     atom   84 type  3   force =    -0.00065772   -0.00063529    0.00049519
     atom   85 type  1   force =     0.00047263    0.00072860   -0.00164934
     atom   86 type  1   force =    -0.00047263    0.00072860    0.00164934
     atom   87 type  1   force =    -0.00047263   -0.00072860    0.00164934
     atom   88 type  1   force =     0.00047263   -0.00072860   -0.00164934
     atom   89 type  3   force =    -0.00051789    0.00033105   -0.00014689
     atom   90 type  3   force =     0.00051789    0.00033105    0.00014689
     atom   91 type  3   force =     0.00051789   -0.00033105    0.00014689
     atom   92 type  3   force =    -0.00051789   -0.00033105   -0.00014689
     atom   93 type  1   force =    -0.00006267   -0.00010527   -0.00001530
     atom   94 type  1   force =     0.00006267   -0.00010527    0.00001530
     atom   95 type  1   force =     0.00006267    0.00010527    0.00001530
     atom   96 type  1   force =    -0.00006267    0.00010527   -0.00001530
     atom   97 type  1   force =    -0.00026234    0.00059231   -0.00039050
     atom   98 type  1   force =     0.00026234    0.00059231    0.00039050
     atom   99 type  1   force =     0.00026234   -0.00059231    0.00039050
     atom  100 type  1   force =    -0.00026234   -0.00059231   -0.00039050
     atom  101 type  3   force =     0.00088441    0.00067996    0.00012214
     atom  102 type  3   force =    -0.00088441    0.00067996   -0.00012214
     atom  103 type  3   force =    -0.00088441   -0.00067996   -0.00012214
     atom  104 type  3   force =     0.00088441   -0.00067996    0.00012214
     atom  105 type  1   force =     0.00018214   -0.00008612   -0.00061259
     atom  106 type  1   force =    -0.00018214   -0.00008612    0.00061259
     atom  107 type  1   force =    -0.00018214    0.00008612    0.00061259
     atom  108 type  1   force =     0.00018214    0.00008612   -0.00061259
     atom  109 type  1   force =     0.00007955   -0.00019493   -0.00003962
     atom  110 type  1   force =    -0.00007955   -0.00019493    0.00003962
     atom  111 type  1   force =    -0.00007955    0.00019493    0.00003962
     atom  112 type  1   force =     0.00007955    0.00019493   -0.00003962
     atom  113 type  3   force =    -0.00001079    0.00014953    0.00021249
     atom  114 type  3   force =     0.00001079    0.00014953   -0.00021249
     atom  115 type  3   force =     0.00001079   -0.00014953   -0.00021249
     atom  116 type  3   force =    -0.00001079   -0.00014953    0.00021249
     atom  117 type  3   force =    -0.00008794   -0.00006797    0.00002248
     atom  118 type  3   force =     0.00008794   -0.00006797   -0.00002248
     atom  119 type  3   force =     0.00008794    0.00006797   -0.00002248
     atom  120 type  3   force =    -0.00008794    0.00006797    0.00002248
     atom  121 type  3   force =     0.00021361   -0.00012759   -0.00029061
     atom  122 type  3   force =    -0.00021361   -0.00012759    0.00029061
     atom  123 type  3   force =    -0.00021361    0.00012759    0.00029061
     atom  124 type  3   force =     0.00021361    0.00012759   -0.00029061
     atom  125 type  1   force =     0.00040116   -0.00036770   -0.00005728
     atom  126 type  1   force =    -0.00040116   -0.00036770    0.00005728
     atom  127 type  1   force =    -0.00040116    0.00036770    0.00005728
     atom  128 type  1   force =     0.00040116    0.00036770   -0.00005728
     atom  129 type  3   force =     0.00026311    0.00004582    0.00012769
     atom  130 type  3   force =    -0.00026311    0.00004582   -0.00012769
     atom  131 type  3   force =    -0.00026311   -0.00004582   -0.00012769
     atom  132 type  3   force =     0.00026311   -0.00004582    0.00012769
     atom  133 type  3   force =     0.00005379   -0.00028980    0.00033371
     atom  134 type  3   force =    -0.00005379   -0.00028980   -0.00033371
     atom  135 type  3   force =    -0.00005379    0.00028980   -0.00033371
     atom  136 type  3   force =     0.00005379    0.00028980    0.00033371
     atom  137 type  3   force =     0.00001002   -0.00043877   -0.00013329
     atom  138 type  3   force =    -0.00001002   -0.00043877    0.00013329
     atom  139 type  3   force =    -0.00001002    0.00043877    0.00013329
     atom  140 type  3   force =     0.00001002    0.00043877   -0.00013329
     atom  141 type  1   force =     0.00019522   -0.00030462    0.00015376
     atom  142 type  1   force =    -0.00019522   -0.00030462   -0.00015376
     atom  143 type  1   force =    -0.00019522    0.00030462   -0.00015376
     atom  144 type  1   force =     0.00019522    0.00030462    0.00015376
     atom  145 type  3   force =     0.00022159   -0.00005113    0.00014126
     atom  146 type  3   force =    -0.00022159   -0.00005113   -0.00014126
     atom  147 type  3   force =    -0.00022159    0.00005113   -0.00014126
     atom  148 type  3   force =     0.00022159    0.00005113    0.00014126
     atom  149 type  3   force =     0.00019851    0.00002380    0.00043544
     atom  150 type  3   force =    -0.00019851    0.00002380   -0.00043544
     atom  151 type  3   force =    -0.00019851   -0.00002380   -0.00043544
     atom  152 type  3   force =     0.00019851   -0.00002380    0.00043544
     atom  153 type  3   force =     0.00015691   -0.00035870    0.00035725
     atom  154 type  3   force =    -0.00015691   -0.00035870   -0.00035725
     atom  155 type  3   force =    -0.00015691    0.00035870   -0.00035725
     atom  156 type  3   force =     0.00015691    0.00035870    0.00035725

     Total force =     0.010484     Total SCF correction =     0.000175


     Computing stress (Cartesian axis) and pressure

          total   stress  (Ry/bohr**3)                   (kbar)     P=   -4.44
  -0.00003191   0.00000000  -0.00000548         -4.69      0.00     -0.81
   0.00000000  -0.00003225   0.00000000          0.00     -4.74      0.00
  -0.00000548   0.00000000  -0.00002646         -0.81      0.00     -3.89


     Writing output data file scf.save
 
     init_run     :    130.48s CPU    134.09s WALL (       1 calls)
     electrons    :   6032.39s CPU   6180.54s WALL (       1 calls)
     forces       :     62.34s CPU     62.77s WALL (       1 calls)
     stress       :    301.14s CPU    301.82s WALL (       1 calls)

     Called by init_run:
     wfcinit      :    114.22s CPU    117.59s WALL (       1 calls)
     potinit      :      5.59s CPU      5.64s WALL (       1 calls)

     Called by electrons:
     c_bands      :   5493.23s CPU   5621.33s WALL (      21 calls)
     sum_band     :    509.58s CPU    526.47s WALL (      21 calls)
     v_of_rho     :      4.37s CPU      4.67s WALL (      22 calls)
     newd         :     13.09s CPU     15.90s WALL (      22 calls)
     PAW_pot      :     10.88s CPU     10.89s WALL (      22 calls)
     mix_rho      :      1.13s CPU      1.18s WALL (      21 calls)

     Called by c_bands:
     init_us_2    :     20.48s CPU     20.56s WALL (     360 calls)
     cegterg      :   5397.83s CPU   5525.80s WALL (     168 calls)

     Called by sum_band:
     sum_band:bec :      0.20s CPU      0.20s WALL (     168 calls)
     addusdens    :     13.16s CPU     15.82s WALL (      21 calls)

     Called by *egterg:
     h_psi        :   2731.44s CPU   2828.41s WALL (     798 calls)
     s_psi        :    695.37s CPU    695.42s WALL (     798 calls)
     g_psi        :     10.57s CPU     10.57s WALL (     622 calls)
     cdiaghg      :    229.30s CPU    229.31s WALL (     790 calls)

     Called by h_psi:
     h_psi:pot    :   2717.17s CPU   2813.92s WALL (     798 calls)
     h_psi:calbec :    714.60s CPU    715.55s WALL (     798 calls)
     vloc_psi     :   1307.53s CPU   1403.30s WALL (     798 calls)
     add_vuspsi   :    695.03s CPU    695.07s WALL (     798 calls)

     General routines
     calbec       :   1027.60s CPU   1029.00s WALL (    1006 calls)
     fft          :      8.10s CPU      8.61s WALL (     310 calls)
     fftw         :   1435.61s CPU   1545.01s WALL (  294176 calls)
 
     Parallel routines
     fft_scatter  :    495.30s CPU    604.15s WALL (  294486 calls)
 
     PWSCF        :     1h49m CPU        1h52m WALL

 
   This run was terminated on:   1:43: 5  25Nov2017            

=------------------------------------------------------------------------------=
   JOB DONE.
=------------------------------------------------------------------------------=
