
     Program PWSCF v.6.1 (svn rev. 13369) starts on  4Nov2017 at  1:49:43 

     This program is part of the open-source Quantum ESPRESSO suite
     for quantum simulation of materials; please cite
         "P. Giannozzi et al., J. Phys.:Condens. Matter 21 395502 (2009);
          URL http://www.quantum-espresso.org", 
     in publications or presentations arising from this work. More details at
     http://www.quantum-espresso.org/quote

     Parallel version (MPI), running on     8 processors
     R & G space division:  proc/nbgrp/npool/nimage =       8
     Waiting for input...
     Reading input from standard input

     Current dimensions of program PWSCF are:
     Max number of different atomic species (ntypx) = 10
     Max number of k-points (npk) =  40000
     Max angular momentum in pseudopotentials (lmaxx) =  3
               file C.pbe-n-kjpaw_psl.0.1.UPF: wavefunction(s)  2P renormalized
               file N.pbe-n-kjpaw_psl.0.1.UPF: wavefunction(s)  2P renormalized
               file H.pbe-kjpaw_psl.0.1.UPF: wavefunction(s)  1S renormalized
               file O.pbe-n-kjpaw_psl.0.1.UPF: wavefunction(s)  2P renormalized

     -------------------------------------
     Parameters for Dispersion Correction:
     -------------------------------------
       atom      VdW radius       C_6     

        C          2.744         60.710
        N          2.640         42.670
        H          1.892          4.857
        O          2.536         24.284

     Subspace diagonalization in iterative solution of the eigenvalue problem:
     a serial algorithm will be used

 
     Parallelization info
     --------------------
     sticks:   dense  smooth     PW     G-vecs:    dense   smooth      PW
     Min        1621    1621    429               143740   143740   19642
     Max        1622    1622    430               143742   143742   19645
     Sum       12971   12971   3435              1149929  1149929  157143
 


     bravais-lattice index     =            0
     lattice parameter (alat)  =      19.4729  a.u.
     unit-cell volume          =    8512.7539 (a.u.)^3
     number of atoms/cell      =          140
     number of atomic types    =            4
     number of electrons       =       408.00
     number of Kohn-Sham states=          244
     kinetic-energy cutoff     =     100.0000  Ry
     charge density cutoff     =     400.0000  Ry
     convergence threshold     =      1.0E-08
     mixing beta               =       0.5000
     number of iterations used =            8  plain     mixing
     Exchange-correlation      =  SLA  PW   PBX  PBC ( 1  4  3  4 0 0)

     celldm(1)=  19.472872  celldm(2)=   0.000000  celldm(3)=   0.000000
     celldm(4)=   0.000000  celldm(5)=   0.000000  celldm(6)=   0.000000

     crystal axes: (cart. coord. in units of alat)
               a(1) = (   1.000000   0.000000   0.000000 )  
               a(2) = (   0.000000   1.075830   0.000000 )  
               a(3) = (  -0.376406   0.000000   1.071609 )  

     reciprocal axes: (cart. coord. in units 2 pi/alat)
               b(1) = (  1.000000  0.000000  0.351253 )  
               b(2) = (  0.000000  0.929515  0.000000 )  
               b(3) = (  0.000000  0.000000  0.933176 )  


     PseudoPot. # 1 for  C read from file:
     /scratch/ahofstet/pseudo/C.pbe-n-kjpaw_psl.0.1.UPF
     MD5 check sum: 430fe95172b1e11ef3f8ed03bac87931
     Pseudo is Projector augmented-wave + core cor, Zval =  4.0
     Generated using "atomic" code by A. Dal Corso  v.5.0.99 svn rev. 10869
     Shape of augmentation charge: BESSEL
     Using radial grid of 1073 points,  4 beta functions with: 
                l(1) =   0
                l(2) =   0
                l(3) =   1
                l(4) =   1
     Q(r) pseudized with 0 coefficients 


     PseudoPot. # 2 for  N read from file:
     /scratch/ahofstet/pseudo/N.pbe-n-kjpaw_psl.0.1.UPF
     MD5 check sum: f73187c8b701007e77325f868c9291d7
     Pseudo is Projector augmented-wave + core cor, Zval =  5.0
     Generated using "atomic" code by A. Dal Corso  v.5.0.99 svn rev. 10869
     Shape of augmentation charge: PSQ
     Using radial grid of 1085 points,  4 beta functions with: 
                l(1) =   0
                l(2) =   0
                l(3) =   1
                l(4) =   1
     Q(r) pseudized with 0 coefficients 


     PseudoPot. # 3 for  H read from file:
     /scratch/ahofstet/pseudo/H.pbe-kjpaw_psl.0.1.UPF
     MD5 check sum: 94e484f906d9e9773b2f6e52662335b2
     Pseudo is Projector augmented-wave, Zval =  1.0
     Generated using "atomic" code by A. Dal Corso  v.5.0.99 svn rev. 10869
     Shape of augmentation charge: PSQ
     Using radial grid of  929 points,  2 beta functions with: 
                l(1) =   0
                l(2) =   0
     Q(r) pseudized with 0 coefficients 


     PseudoPot. # 4 for  O read from file:
     /scratch/ahofstet/pseudo/O.pbe-n-kjpaw_psl.0.1.UPF
     MD5 check sum: 3f94a2996a3169367d6eb21d9b593f20
     Pseudo is Projector augmented-wave + core cor, Zval =  6.0
     Generated using "atomic" code by A. Dal Corso  v.5.0.99 svn rev. 10869
     Shape of augmentation charge: BESSEL
     Using radial grid of 1095 points,  4 beta functions with: 
                l(1) =   0
                l(2) =   0
                l(3) =   1
                l(4) =   1
     Q(r) pseudized with 0 coefficients 


     atomic species   valence    mass     pseudopotential
        C              4.00    12.01070      C( 1.00)
        N              5.00    14.00670      N( 1.00)
        H              1.00     1.00794      H( 1.00)
        O              6.00    15.99940      O( 1.00)

      2 Sym. Ops., with inversion, found
          (note:  2 additional sym.ops. were found but ignored
           their fractional translations are incommensurate with FFT grid)


   Cartesian axes

     site n.     atom                  positions (alat units)
         1           O   tau(   1) = (   0.4927870   0.4897943   0.3298082  )
         2           O   tau(   2) = (   0.8190099   1.0277094   0.2059963  )
         3           O   tau(   3) = (   0.1308067   0.5860359   0.7418007  )
         4           O   tau(   4) = (  -0.1954162   0.0481208   0.8656127  )
         5           O   tau(   5) = (   0.4994349   0.5723375   0.5304310  )
         6           O   tau(   6) = (   0.8123619   0.0344224   0.0053734  )
         7           O   tau(   7) = (   0.1241588   0.5034927   0.5411779  )
         8           O   tau(   8) = (  -0.1887682   1.0414078   1.0662355  )
         9           O   tau(   9) = (   0.4550564   0.0788407   0.4794522  )
        10           O   tau(  10) = (   0.8567404   0.6167558   0.0563523  )
        11           O   tau(  11) = (   0.1685373   0.9969896   0.5921568  )
        12           O   tau(  12) = (  -0.2331467   0.4590744   1.0152566  )
        13           O   tau(  13) = (   0.5260607   0.0937923   0.2777278  )
        14           O   tau(  14) = (   0.7857361   0.6317074   0.2580766  )
        15           O   tau(  15) = (   0.0975330   0.9820379   0.7938811  )
        16           O   tau(  16) = (  -0.1621424   0.4441228   0.8135323  )
        17           O   tau(  17) = (   0.6834775   0.3069077   0.4054469  )
        18           O   tau(  18) = (   0.6283193   0.8448228   0.1303575  )
        19           O   tau(  19) = (  -0.0598838   0.7689225   0.6661620  )
        20           O   tau(  20) = (  -0.0047257   0.2310074   0.9412514  )
        21           C   tau(  21) = (   0.4583277   0.3700735   0.2625204  )
        22           C   tau(  22) = (   0.8534691   0.9079886   0.2732840  )
        23           C   tau(  23) = (   0.1652660   0.7057567   0.8090885  )
        24           C   tau(  24) = (  -0.2298754   0.1678416   0.7983249  )
        25           C   tau(  25) = (   0.3995624   0.2765547   0.3690539  )
        26           C   tau(  26) = (   0.9122344   0.8144698   0.1667506  )
        27           C   tau(  27) = (   0.2240312   0.7992756   0.7025550  )
        28           C   tau(  28) = (  -0.2886407   0.2613605   0.9048583  )
        29           C   tau(  29) = (   0.4105641   0.3547711   0.4958506  )
        30           C   tau(  30) = (   0.9012328   0.8926862   0.0399538  )
        31           C   tau(  31) = (   0.2130296   0.7210591   0.5757583  )
        32           C   tau(  32) = (  -0.2776391   0.1831440   1.0316551  )
        33           H   tau(  33) = (   0.4705212   0.3056378   0.5686650  )
        34           H   tau(  34) = (   0.4648694   0.8435529   1.0387484  )
        35           H   tau(  35) = (   0.1530725   0.7701924   0.5029439  )
        36           H   tau(  36) = (   0.1587243   0.2322773   0.0328606  )
        37           H   tau(  37) = (   0.3151810   0.3746949   0.5390213  )
        38           H   tau(  38) = (   0.9966158   0.9126100  -0.0032168  )
        39           H   tau(  39) = (   0.3084127   0.7011353   0.5325877  )
        40           H   tau(  40) = (  -0.3730222   0.1632202   1.0748257  )
        41           C   tau(  41) = (   0.4722691   0.4820348   0.4592917  )
        42           C   tau(  42) = (   0.8395278   1.0199499   0.0765127  )
        43           C   tau(  43) = (   0.1513246   0.5937954   0.6123172  )
        44           C   tau(  44) = (  -0.2159341   0.0558803   0.9950962  )
        45           C   tau(  45) = (   0.3451473   0.4021790   0.1705298  )
        46           C   tau(  46) = (  -0.0333505   0.9400941   0.3652747  )
        47           C   tau(  47) = (   0.2784464   0.6736512   0.9010792  )
        48           C   tau(  48) = (   0.6569442   0.1357361   0.7063342  )
        49           H   tau(  49) = (   0.3545600   0.5007129   0.1318072  )
        50           H   tau(  50) = (  -0.0427631   1.0386280   0.4039972  )
        51           H   tau(  51) = (   0.2690337   0.5751173   0.9398017  )
        52           H   tau(  52) = (   0.6663568   0.0372022   0.6676117  )
        53           H   tau(  53) = (   0.3454495   0.3356626   0.0874047  )
        54           H   tau(  54) = (  -0.0336527   0.8735777   0.4483998  )
        55           H   tau(  55) = (   0.2781442   0.7401676   0.9842042  )
        56           H   tau(  56) = (   0.6572464   0.2022525   0.6232092  )
        57           C   tau(  57) = (   0.2227726   0.3794508   0.2517015  )
        58           C   tau(  58) = (   0.0890242   0.9173659   0.2841030  )
        59           C   tau(  59) = (   0.4008210   0.6963795   0.8199075  )
        60           C   tau(  60) = (   0.5345695   0.1584644   0.7875059  )
        61           H   tau(  61) = (   0.1346978   0.3687950   0.1928843  )
        62           H   tau(  62) = (   0.1770990   0.9067101   0.3429201  )
        63           H   tau(  63) = (   0.4888959   0.7070353   0.8787246  )
        64           H   tau(  64) = (   0.4464947   0.1691201   0.7286888  )
        65           H   tau(  65) = (   0.2063110   0.4607170   0.3193989  )
        66           H   tau(  66) = (   0.1054859   0.9986321   0.2164056  )
        67           H   tau(  67) = (   0.4172827   0.6151132   0.7522101  )
        68           H   tau(  68) = (   0.5181078   0.0771981   0.8552033  )
        69           C   tau(  69) = (   0.2573555   0.2601434   0.3278904  )
        70           C   tau(  70) = (   0.0544414   0.7980585   0.2079140  )
        71           C   tau(  71) = (   0.3662382   0.8156868   0.7437185  )
        72           C   tau(  72) = (   0.5691523   0.2777717   0.8636949  )
        73           C   tau(  73) = (   0.1827337   0.1572412   0.3521971  )
        74           C   tau(  74) = (   0.1290632   0.6951563   0.1836073  )
        75           C   tau(  75) = (   0.4408600   0.9185890   0.7194118  )
        76           C   tau(  76) = (   0.4945305   0.3806739   0.8880016  )
        77           C   tau(  77) = (   0.4635170   0.1443489   0.3814870  )
        78           C   tau(  78) = (   0.8482799   0.6822640   0.1543174  )
        79           C   tau(  79) = (   0.1600767   0.9314813   0.6901219  )
        80           C   tau(  80) = (  -0.2246862   0.3935662   0.9172915  )
        81           C   tau(  81) = (   0.5471487   0.1722691   0.1628895  )
        82           C   tau(  82) = (   0.7646481   0.7101842   0.3729150  )
        83           C   tau(  83) = (   0.0764449   0.9035611   0.9087194  )
        84           C   tau(  84) = (  -0.1410544   0.3656460   0.6986939  )
        85           H   tau(  85) = (   0.4601999   0.1687434   0.1010916  )
        86           H   tau(  86) = (   0.8515969   0.7066585   0.4347128  )
        87           H   tau(  87) = (   0.1633938   0.9070868   0.9705173  )
        88           H   tau(  88) = (  -0.2280032   0.3691717   0.6368961  )
        89           H   tau(  89) = (   0.6278566   0.1254995   0.1116755  )
        90           H   tau(  90) = (   0.6839403   0.6634146   0.4241289  )
        91           H   tau(  91) = (  -0.0042629   0.9503307   0.9599334  )
        92           H   tau(  92) = (  -0.0603466   0.4124156   0.6474800  )
        93           C   tau(  93) = (   0.5800778   0.3145426   0.1951879  )
        94           C   tau(  94) = (   0.7317191   0.8524577   0.3406166  )
        95           C   tau(  95) = (   0.0435159   0.7612876   0.8764210  )
        96           C   tau(  96) = (  -0.1081254   0.2233725   0.7309924  )
        97           C   tau(  97) = (   0.6119843   0.3844183   0.0675138  )
        98           C   tau(  98) = (   0.6998126   0.9223334   0.4682907  )
        99           C   tau(  99) = (   0.0116094   0.6914119   1.0040951  )
       100           C   tau( 100) = (  -0.0762189   0.1534968   0.6033182  )
       101           H   tau( 101) = (   0.6957368   0.3386890   0.0202084  )
       102           H   tau( 102) = (   0.6160601   0.8766041   0.5155961  )
       103           H   tau( 103) = (  -0.0721431   0.7371412   1.0514005  )
       104           H   tau( 104) = (   0.0075336   0.1992261   0.5560129  )
       105           H   tau( 105) = (   0.5297185   0.3786299   0.0001954  )
       106           H   tau( 106) = (   0.7820783   0.9165450   0.5356090  )
       107           H   tau( 107) = (   0.0938752   0.6972003   1.0714135  )
       108           H   tau( 108) = (  -0.1584847   0.1592852   0.5359999  )
       109           H   tau( 109) = (   0.6367213   0.4862985   0.0858338  )
       110           H   tau( 110) = (   0.6750755   1.0242136   0.4499707  )
       111           H   tau( 111) = (  -0.0131276   0.5895317   0.9857751  )
       112           H   tau( 112) = (  -0.0514818   0.0516166   0.6216382  )
       113           C   tau( 113) = (   0.6986234   0.3108775   0.2874298  )
       114           C   tau( 114) = (   0.6131734   0.8487926   0.2483747  )
       115           C   tau( 115) = (  -0.0750297   0.7649527   0.7841791  )
       116           C   tau( 116) = (   0.0104203   0.2270376   0.8232343  )
       117           C   tau( 117) = (   0.8311731   0.3053185   0.2269893  )
       118           C   tau( 118) = (   0.4806237   0.8432336   0.3088151  )
       119           C   tau( 119) = (  -0.2075794   0.7705117   0.8446196  )
       120           C   tau( 120) = (   0.1429699   0.2325966   0.7627938  )
       121           H   tau( 121) = (   0.9039957   0.2932032   0.3036396  )
       122           H   tau( 122) = (   0.4078011   0.8311183   0.2321649  )
       123           H   tau( 123) = (  -0.2804020   0.7826270   0.7679693  )
       124           H   tau( 124) = (   0.2157925   0.2447119   0.8394441  )
       125           H   tau( 125) = (   0.8357667   0.2243432   0.1571773  )
       126           H   tau( 126) = (   0.4760301   0.7622583   0.3786272  )
       127           H   tau( 127) = (  -0.2121730   0.8514870   0.9144316  )
       128           H   tau( 128) = (   0.1475636   0.3135719   0.6929817  )
       129           H   tau( 129) = (   0.8496277   0.3954244   0.1724705  )
       130           H   tau( 130) = (   0.4621692   0.9333395   0.3633340  )
       131           H   tau( 131) = (  -0.2260340   0.6804058   0.8991384  )
       132           H   tau( 132) = (   0.1614245   0.1424907   0.7082749  )
       133           H   tau( 133) = (   0.0829405   0.1546868   0.3170053  )
       134           H   tau( 134) = (   0.2288564   0.6926019   0.2187991  )
       135           H   tau( 135) = (   0.5406532   0.9211434   0.7546036  )
       136           H   tau( 136) = (   0.3947373   0.3832283   0.8528098  )
       137           H   tau( 137) = (   0.2166297   0.0741788   0.4082069  )
       138           H   tau( 138) = (   0.0951672   0.6120939   0.1275976  )
       139           H   tau( 139) = (   0.4069640   1.0016514   0.6634020  )
       140           H   tau( 140) = (   0.5284265   0.4637363   0.9440114  )

     number of k points=     8
                       cart. coord. in units 2pi/alat
        k(    1) = (   0.0000000   0.0000000   0.0000000), wk =   0.2500000
        k(    2) = (   0.0000000   0.0000000  -0.4665881), wk =   0.2500000
        k(    3) = (   0.0000000  -0.4647574   0.0000000), wk =   0.2500000
        k(    4) = (   0.0000000  -0.4647574  -0.4665881), wk =   0.2500000
        k(    5) = (  -0.5000000   0.0000000  -0.1756267), wk =   0.2500000
        k(    6) = (  -0.5000000   0.0000000  -0.6422148), wk =   0.2500000
        k(    7) = (  -0.5000000  -0.4647574  -0.1756267), wk =   0.2500000
        k(    8) = (  -0.5000000  -0.4647574  -0.6422148), wk =   0.2500000

     Dense  grid:  1149929 G-vectors     FFT dimensions: ( 125, 135, 144)

     Estimated max dynamical RAM per process >    1455.94MB

     Estimated total allocated dynamical RAM >   11647.54MB

     Check: negative/imaginary core charge=   -0.000002    0.000000

     Initial potential from superposition of free atoms

     starting charge  407.99703, renormalised to  408.00000
     Starting wfc are  368 randomized atomic wfcs
     Checking if some PAW data can be deallocated... 

     total cpu time spent up to now is       88.0 secs

     per-process dynamical memory:   971.0 Mb

     Self-consistent Calculation

     iteration #  1     ecut=   100.00 Ry     beta=0.50
     Davidson diagonalization with overlap
     ethr =  1.00E-02,  avg # of iterations =  3.8

     total cpu time spent up to now is      338.9 secs

     total energy              =   -1939.28906083 Ry
     Harris-Foulkes estimate   =   -1946.75885011 Ry
     estimated scf accuracy    <      14.31326763 Ry

     iteration #  2     ecut=   100.00 Ry     beta=0.50
     Davidson diagonalization with overlap
     ethr =  3.51E-03,  avg # of iterations =  2.8

     total cpu time spent up to now is      468.7 secs

     total energy              =   -1940.03249758 Ry
     Harris-Foulkes estimate   =   -1941.04765904 Ry
     estimated scf accuracy    <       2.04268881 Ry

     iteration #  3     ecut=   100.00 Ry     beta=0.50
     Davidson diagonalization with overlap
     ethr =  5.01E-04,  avg # of iterations =  5.0

     total cpu time spent up to now is      743.1 secs

     total energy              =   -1941.68829947 Ry
     Harris-Foulkes estimate   =   -1942.57958359 Ry
     estimated scf accuracy    <       2.51968184 Ry

     iteration #  4     ecut=   100.00 Ry     beta=0.50
     Davidson diagonalization with overlap
     ethr =  5.01E-04,  avg # of iterations =  2.0

     total cpu time spent up to now is      865.4 secs

     total energy              =   -1941.25949476 Ry
     Harris-Foulkes estimate   =   -1941.82273419 Ry
     estimated scf accuracy    <       0.83915482 Ry

     iteration #  5     ecut=   100.00 Ry     beta=0.50
     Davidson diagonalization with overlap
     ethr =  2.06E-04,  avg # of iterations =  4.9

     total cpu time spent up to now is     1133.5 secs

     total energy              =   -1941.88232394 Ry
     Harris-Foulkes estimate   =   -1942.19800208 Ry
     estimated scf accuracy    <       1.12745060 Ry

     iteration #  6     ecut=   100.00 Ry     beta=0.50
     Davidson diagonalization with overlap
     ethr =  2.06E-04,  avg # of iterations =  1.0

     total cpu time spent up to now is     1252.2 secs

     total energy              =   -1941.65347912 Ry
     Harris-Foulkes estimate   =   -1941.90462791 Ry
     estimated scf accuracy    <       0.57191345 Ry

     iteration #  7     ecut=   100.00 Ry     beta=0.50
     Davidson diagonalization with overlap
     ethr =  1.40E-04,  avg # of iterations =  6.6

     total cpu time spent up to now is     1459.1 secs

     total energy              =   -1941.83554569 Ry
     Harris-Foulkes estimate   =   -1941.83725336 Ry
     estimated scf accuracy    <       0.00767637 Ry

     iteration #  8     ecut=   100.00 Ry     beta=0.50
     Davidson diagonalization with overlap
     ethr =  1.88E-06,  avg # of iterations = 13.0

     total cpu time spent up to now is     1769.4 secs

     total energy              =   -1941.83608333 Ry
     Harris-Foulkes estimate   =   -1941.83853520 Ry
     estimated scf accuracy    <       0.00495930 Ry

     iteration #  9     ecut=   100.00 Ry     beta=0.50
     Davidson diagonalization with overlap
     ethr =  1.22E-06,  avg # of iterations =  2.0

     total cpu time spent up to now is     1891.8 secs

     total energy              =   -1941.83611563 Ry
     Harris-Foulkes estimate   =   -1941.83648129 Ry
     estimated scf accuracy    <       0.00076409 Ry

     iteration # 10     ecut=   100.00 Ry     beta=0.50
     Davidson diagonalization with overlap
     ethr =  1.87E-07,  avg # of iterations =  4.0

     total cpu time spent up to now is     2144.7 secs

     total energy              =   -1941.83698692 Ry
     Harris-Foulkes estimate   =   -1941.83736454 Ry
     estimated scf accuracy    <       0.00087111 Ry

     iteration # 11     ecut=   100.00 Ry     beta=0.50
     Davidson diagonalization with overlap
     ethr =  1.87E-07,  avg # of iterations =  1.0

     total cpu time spent up to now is     2263.4 secs

     total energy              =   -1941.83683884 Ry
     Harris-Foulkes estimate   =   -1941.83701998 Ry
     estimated scf accuracy    <       0.00025625 Ry

     iteration # 12     ecut=   100.00 Ry     beta=0.50
     Davidson diagonalization with overlap
     ethr =  6.28E-08,  avg # of iterations =  4.0

     total cpu time spent up to now is     2511.8 secs

     total energy              =   -1941.83705613 Ry
     Harris-Foulkes estimate   =   -1941.83724079 Ry
     estimated scf accuracy    <       0.00047856 Ry

     iteration # 13     ecut=   100.00 Ry     beta=0.50
     Davidson diagonalization with overlap
     ethr =  6.28E-08,  avg # of iterations =  1.0

     total cpu time spent up to now is     2630.5 secs

     total energy              =   -1941.83699641 Ry
     Harris-Foulkes estimate   =   -1941.83706977 Ry
     estimated scf accuracy    <       0.00017204 Ry

     iteration # 14     ecut=   100.00 Ry     beta=0.50
     Davidson diagonalization with overlap
     ethr =  4.22E-08,  avg # of iterations =  4.0

     total cpu time spent up to now is     2849.0 secs

     total energy              =   -1941.83709221 Ry
     Harris-Foulkes estimate   =   -1941.83709484 Ry
     estimated scf accuracy    <       0.00001725 Ry

     iteration # 15     ecut=   100.00 Ry     beta=0.50
     Davidson diagonalization with overlap
     ethr =  4.23E-09,  avg # of iterations =  1.0

     total cpu time spent up to now is     2967.7 secs

     total energy              =   -1941.83708864 Ry
     Harris-Foulkes estimate   =   -1941.83709250 Ry
     estimated scf accuracy    <       0.00001247 Ry

     iteration # 16     ecut=   100.00 Ry     beta=0.50
     Davidson diagonalization with overlap
     ethr =  3.06E-09,  avg # of iterations =  2.6

     total cpu time spent up to now is     3092.7 secs

     total energy              =   -1941.83708786 Ry
     Harris-Foulkes estimate   =   -1941.83708937 Ry
     estimated scf accuracy    <       0.00000411 Ry

     iteration # 17     ecut=   100.00 Ry     beta=0.50
     Davidson diagonalization with overlap
     ethr =  1.01E-09,  avg # of iterations =  4.0

     total cpu time spent up to now is     3315.3 secs

     total energy              =   -1941.83708971 Ry
     Harris-Foulkes estimate   =   -1941.83708978 Ry
     estimated scf accuracy    <       0.00000023 Ry

     iteration # 18     ecut=   100.00 Ry     beta=0.50
     Davidson diagonalization with overlap
     ethr =  5.75E-11,  avg # of iterations =  1.2

     total cpu time spent up to now is     3434.7 secs

     total energy              =   -1941.83708965 Ry
     Harris-Foulkes estimate   =   -1941.83708971 Ry
     estimated scf accuracy    <       0.00000012 Ry

     iteration # 19     ecut=   100.00 Ry     beta=0.50
     Davidson diagonalization with overlap
     ethr =  2.86E-11,  avg # of iterations =  4.0

     total cpu time spent up to now is     3654.5 secs

     total energy              =   -1941.83708971 Ry
     Harris-Foulkes estimate   =   -1941.83708974 Ry
     estimated scf accuracy    <       0.00000008 Ry

     iteration # 20     ecut=   100.00 Ry     beta=0.50
     Davidson diagonalization with overlap
     ethr =  1.92E-11,  avg # of iterations =  1.0

     total cpu time spent up to now is     3773.2 secs

     total energy              =   -1941.83708969 Ry
     Harris-Foulkes estimate   =   -1941.83708971 Ry
     estimated scf accuracy    <       0.00000004 Ry

     iteration # 21     ecut=   100.00 Ry     beta=0.50
     Davidson diagonalization with overlap
     ethr =  1.01E-11,  avg # of iterations =  4.0

     total cpu time spent up to now is     3981.3 secs

     total energy              =   -1941.83708971 Ry
     Harris-Foulkes estimate   =   -1941.83708972 Ry
     estimated scf accuracy    <       0.00000001 Ry

     iteration # 22     ecut=   100.00 Ry     beta=0.50
     Davidson diagonalization with overlap
     ethr =  3.55E-12,  avg # of iterations =  1.0

     total cpu time spent up to now is     4099.9 secs

     End of self-consistent calculation

          k = 0.0000 0.0000 0.0000 (143751 PWs)   bands (ev):

   -21.4596 -21.4499 -21.4486 -21.4406 -21.2302 -21.2277 -21.2221 -21.2195
   -19.8441 -19.8434 -19.8416 -19.8394 -19.2732 -19.2721 -19.2645 -19.2638
   -19.0852 -19.0833 -19.0774 -19.0773 -15.2456 -15.2341 -15.2321 -15.2264
   -14.2125 -14.2040 -14.1887 -14.1838 -13.0733 -13.0656 -13.0114 -13.0014
   -12.2599 -12.2492 -12.2388 -12.2220 -11.7103 -11.7057 -11.7024 -11.6930
   -11.5355 -11.4480 -11.4372 -11.3988 -10.8468 -10.8215 -10.8082 -10.7783
    -9.8871  -9.8623  -9.8537  -9.8320  -9.4243  -9.3859  -9.3516  -9.2836
    -8.8785  -8.8401  -8.8228  -8.8092  -7.9524  -7.9177  -7.9011  -7.8863
    -7.6626  -7.6576  -7.6224  -7.6089  -7.1895  -7.1355  -7.1049  -7.1020
    -6.6723  -6.6652  -6.6179  -6.5954  -6.0530  -6.0085  -6.0001  -5.9039
    -5.8719  -5.8600  -5.6635  -5.6328  -5.5766  -5.5659  -5.5071  -5.4573
    -5.4115  -5.3097  -5.2730  -5.2113  -5.2026  -5.1151  -5.0447  -4.9829
    -4.8809  -4.8805  -4.8700  -4.8650  -4.7082  -4.6438  -4.5700  -4.5490
    -4.5388  -4.4404  -4.4125  -4.3856  -4.3793  -4.3745  -4.3594  -4.2350
    -4.1630  -4.1435  -4.1075  -4.0597  -3.9839  -3.9450  -3.8720  -3.8356
    -3.8263  -3.8082  -3.7957  -3.7673  -3.7199  -3.6715  -3.6558  -3.6451
    -3.5698  -3.5200  -3.4953  -3.4058  -3.3387  -3.3118  -3.2662  -3.2515
    -3.1647  -3.1620  -3.0510  -3.0356  -2.9633  -2.8960  -2.8464  -2.8012
    -2.7572  -2.7416  -2.7148  -2.6828  -2.6725  -2.6284  -2.6008  -2.5822
    -2.4505  -2.4139  -2.4054  -2.3628  -2.3038  -2.2781  -2.2755  -2.2584
    -2.2428  -2.1996  -2.1595  -2.1417  -2.0638  -2.0501  -2.0246  -1.8598
    -1.8028  -1.7291  -1.7151  -1.6790  -1.6000  -1.5784  -1.5658  -1.5425
    -1.3903  -1.2907  -1.2678  -1.1750  -0.8373  -0.7776  -0.7614  -0.7485
    -0.7392  -0.7134  -0.6729  -0.6718  -0.3996  -0.3378  -0.1758  -0.1145
    -0.0049   0.0275   0.0614   0.1245   0.3046   0.3471   0.3977   0.4500
     0.4671   0.5696   0.6843   0.6921   4.4175   4.4335   4.4714   4.5588
     5.1403   5.1580   5.1731   5.2354   5.2871   5.3507   5.4195   5.5022
     5.5033   5.5073   5.7327   5.8031   6.4364   6.9292   7.0316   7.2535
     7.3864   7.4162   7.5864   7.6028   7.6968   7.7017   7.7144   7.7407
     7.8625   7.8690   7.8824   8.0099   8.0466   8.1496   8.3069   8.3432
     8.3695   8.3804   8.4053   8.5272

          k = 0.0000 0.0000-0.4666 (143806 PWs)   bands (ev):

   -21.4564 -21.4564 -21.4429 -21.4429 -21.2291 -21.2291 -21.2206 -21.2206
   -19.8438 -19.8438 -19.8405 -19.8404 -19.2726 -19.2726 -19.2643 -19.2643
   -19.0843 -19.0843 -19.0773 -19.0773 -15.2377 -15.2377 -15.2314 -15.2314
   -14.2045 -14.2045 -14.1903 -14.1903 -13.0388 -13.0388 -13.0372 -13.0372
   -12.2497 -12.2497 -12.2362 -12.2362 -11.7078 -11.7078 -11.6992 -11.6992
   -11.4867 -11.4867 -11.4203 -11.4203 -10.8450 -10.8450 -10.7823 -10.7823
    -9.8757  -9.8757  -9.8433  -9.8433  -9.3944  -9.3944  -9.3243  -9.3243
    -8.8777  -8.8777  -8.8003  -8.8003  -7.9313  -7.9313  -7.8963  -7.8963
    -7.6473  -7.6473  -7.6301  -7.6301  -7.1680  -7.1680  -7.1068  -7.1068
    -6.6533  -6.6533  -6.6193  -6.6193  -6.0296  -6.0296  -5.9582  -5.9582
    -5.8539  -5.8539  -5.6461  -5.6461  -5.5668  -5.5668  -5.4506  -5.4506
    -5.3903  -5.3903  -5.2453  -5.2453  -5.1721  -5.1721  -4.9711  -4.9711
    -4.8907  -4.8907  -4.8498  -4.8498  -4.6792  -4.6792  -4.5895  -4.5895
    -4.5302  -4.5302  -4.4348  -4.4348  -4.4015  -4.4015  -4.2354  -4.2354
    -4.1673  -4.1673  -4.0669  -4.0669  -3.9815  -3.9815  -3.8354  -3.8354
    -3.8022  -3.8021  -3.7512  -3.7512  -3.6812  -3.6812  -3.6214  -3.6214
    -3.5575  -3.5575  -3.4199  -3.4199  -3.3497  -3.3497  -3.2660  -3.2660
    -3.1872  -3.1872  -3.0884  -3.0884  -2.9757  -2.9757  -2.8370  -2.8370
    -2.7582  -2.7582  -2.6882  -2.6882  -2.6506  -2.6506  -2.5576  -2.5576
    -2.4268  -2.4268  -2.3672  -2.3672  -2.3145  -2.3145  -2.2647  -2.2647
    -2.2110  -2.2110  -2.1436  -2.1436  -2.0214  -2.0214  -1.9486  -1.9485
    -1.7486  -1.7485  -1.6792  -1.6792  -1.6012  -1.6012  -1.5590  -1.5590
    -1.3766  -1.3766  -1.2088  -1.2088  -0.8375  -0.8375  -0.7630  -0.7630
    -0.6976  -0.6976  -0.6603  -0.6603  -0.3711  -0.3711  -0.1419  -0.1419
     0.0176   0.0176   0.0848   0.0848   0.3187   0.3187   0.4595   0.4595
     0.5737   0.5737   0.6007   0.6007   4.4459   4.4459   4.4976   4.4976
     5.1268   5.1268   5.2212   5.2212   5.3228   5.3228   5.4604   5.4604
     5.4961   5.4961   5.7674   5.7674   6.6606   6.6606   7.1895   7.1895
     7.3982   7.3982   7.5606   7.5606   7.6568   7.6569   7.7711   7.7711
     7.8190   7.8190   8.0210   8.0210   8.1683   8.1683   8.3042   8.3042
     8.3641   8.3641   8.4580   8.4580

          k = 0.0000-0.4648 0.0000 (143670 PWs)   bands (ev):

   -21.4541 -21.4541 -21.4454 -21.4454 -21.2250 -21.2250 -21.2246 -21.2246
   -19.8428 -19.8428 -19.8414 -19.8414 -19.2727 -19.2727 -19.2642 -19.2642
   -19.0844 -19.0844 -19.0772 -19.0772 -15.2420 -15.2420 -15.2269 -15.2269
   -14.2086 -14.2086 -14.1862 -14.1862 -13.0697 -13.0697 -13.0056 -13.0056
   -12.2570 -12.2570 -12.2287 -12.2287 -11.7092 -11.7092 -11.6958 -11.6958
   -11.4938 -11.4938 -11.4190 -11.4190 -10.8318 -10.8318 -10.7941 -10.7941
    -9.8760  -9.8760  -9.8404  -9.8404  -9.4147  -9.4147  -9.3090  -9.3090
    -8.8570  -8.8570  -8.8142  -8.8142  -7.9361  -7.9361  -7.8945  -7.8945
    -7.6609  -7.6609  -7.6148  -7.6148  -7.1545  -7.1545  -7.1060  -7.1060
    -6.6673  -6.6673  -6.6145  -6.6145  -6.0302  -6.0302  -5.9878  -5.9878
    -5.7636  -5.7636  -5.7207  -5.7207  -5.5395  -5.5395  -5.4842  -5.4842
    -5.3869  -5.3869  -5.3095  -5.3095  -5.1309  -5.1309  -4.9908  -4.9908
    -4.9074  -4.9074  -4.8616  -4.8616  -4.5629  -4.5629  -4.5612  -4.5612
    -4.5359  -4.5359  -4.4245  -4.4245  -4.3390  -4.3390  -4.2720  -4.2720
    -4.1762  -4.1762  -4.0733  -4.0733  -4.0464  -4.0464  -3.9174  -3.9174
    -3.8150  -3.8150  -3.7863  -3.7863  -3.6841  -3.6841  -3.5997  -3.5997
    -3.5431  -3.5431  -3.4672  -3.4672  -3.2878  -3.2878  -3.2268  -3.2268
    -3.2045  -3.2044  -3.0463  -3.0463  -2.9079  -2.9079  -2.8133  -2.8133
    -2.7495  -2.7495  -2.7359  -2.7359  -2.6581  -2.6581  -2.5489  -2.5489
    -2.4201  -2.4201  -2.3972  -2.3972  -2.3155  -2.3155  -2.2500  -2.2500
    -2.2085  -2.2085  -2.1400  -2.1400  -2.0713  -2.0713  -1.9187  -1.9187
    -1.7419  -1.7419  -1.7056  -1.7056  -1.6078  -1.6078  -1.5590  -1.5590
    -1.3708  -1.3708  -1.2089  -1.2089  -0.8248  -0.8248  -0.7667  -0.7667
    -0.6997  -0.6997  -0.6682  -0.6682  -0.3456  -0.3456  -0.1333  -0.1333
    -0.0328  -0.0328   0.0787   0.0787   0.3596   0.3596   0.4288   0.4288
     0.4928   0.4928   0.6888   0.6888   4.4248   4.4248   4.5079   4.5079
     5.1840   5.1840   5.2337   5.2337   5.2882   5.2882   5.4800   5.4800
     5.5675   5.5675   5.6606   5.6606   6.5669   6.5669   7.2197   7.2197
     7.3886   7.3886   7.5016   7.5016   7.6284   7.6284   7.8242   7.8242
     7.8867   7.8867   8.0348   8.0349   8.0855   8.0855   8.2038   8.2038
     8.3456   8.3456   8.5371   8.5371

          k = 0.0000-0.4648-0.4666 (143716 PWs)   bands (ev):

   -21.4540 -21.4540 -21.4455 -21.4455 -21.2250 -21.2250 -21.2246 -21.2246
   -19.8424 -19.8424 -19.8419 -19.8419 -19.2726 -19.2726 -19.2643 -19.2643
   -19.0843 -19.0843 -19.0773 -19.0773 -15.2382 -15.2382 -15.2307 -15.2307
   -14.2017 -14.2017 -14.1935 -14.1935 -13.0387 -13.0387 -13.0369 -13.0369
   -12.2450 -12.2450 -12.2418 -12.2418 -11.7065 -11.7065 -11.7002 -11.7002
   -11.4560 -11.4560 -11.4539 -11.4539 -10.8392 -10.8392 -10.7852 -10.7852
    -9.8667  -9.8667  -9.8527  -9.8527  -9.3926  -9.3926  -9.3274  -9.3274
    -8.8875  -8.8875  -8.7862  -8.7862  -7.9345  -7.9345  -7.8926  -7.8926
    -7.6398  -7.6398  -7.6383  -7.6383  -7.1402  -7.1402  -7.1295  -7.1295
    -6.6424  -6.6424  -6.6381  -6.6381  -6.0447  -6.0447  -5.9690  -5.9690
    -5.7400  -5.7400  -5.7275  -5.7275  -5.5344  -5.5344  -5.4568  -5.4568
    -5.3978  -5.3978  -5.3279  -5.3279  -5.1402  -5.1402  -4.9950  -4.9950
    -4.8690  -4.8690  -4.8391  -4.8391  -4.6584  -4.6584  -4.5989  -4.5989
    -4.4779  -4.4779  -4.4725  -4.4725  -4.3052  -4.3052  -4.3031  -4.3031
    -4.1526  -4.1525  -4.1264  -4.1264  -3.9610  -3.9610  -3.9530  -3.9530
    -3.7695  -3.7695  -3.7492  -3.7492  -3.6510  -3.6510  -3.6250  -3.6250
    -3.5468  -3.5468  -3.4828  -3.4828  -3.2978  -3.2978  -3.2455  -3.2455
    -3.1516  -3.1516  -3.1440  -3.1440  -2.9227  -2.9227  -2.8406  -2.8406
    -2.7520  -2.7520  -2.6876  -2.6876  -2.6043  -2.6043  -2.5689  -2.5689
    -2.4193  -2.4193  -2.3631  -2.3631  -2.3272  -2.3272  -2.2543  -2.2543
    -2.2155  -2.2155  -2.1747  -2.1747  -2.0127  -2.0127  -1.9750  -1.9750
    -1.7387  -1.7387  -1.7052  -1.7052  -1.5880  -1.5880  -1.5721  -1.5721
    -1.3593  -1.3593  -1.1960  -1.1960  -0.8339  -0.8339  -0.7937  -0.7936
    -0.6833  -0.6833  -0.6671  -0.6671  -0.3355  -0.3355  -0.1450  -0.1450
     0.0154   0.0154   0.0407   0.0407   0.3579   0.3579   0.4411   0.4411
     0.5758   0.5758   0.5892   0.5892   4.4548   4.4548   4.4807   4.4807
     5.1795   5.1795   5.2214   5.2214   5.3110   5.3110   5.4744   5.4744
     5.5870   5.5870   5.6250   5.6250   6.7382   6.7383   6.9302   6.9302
     7.4665   7.4665   7.5147   7.5147   7.6614   7.6614   7.7220   7.7220
     7.8293   7.8293   8.0599   8.0599   8.2561   8.2561   8.3008   8.3009
     8.4557   8.4557   8.5827   8.5827

          k =-0.5000 0.0000-0.1756 (143728 PWs)   bands (ev):

   -21.4564 -21.4564 -21.4429 -21.4429 -21.2291 -21.2291 -21.2206 -21.2206
   -19.8438 -19.8438 -19.8404 -19.8404 -19.2725 -19.2725 -19.2643 -19.2643
   -19.0843 -19.0843 -19.0773 -19.0773 -15.2421 -15.2421 -15.2264 -15.2263
   -14.2008 -14.2008 -14.1984 -14.1984 -13.0536 -13.0536 -13.0260 -13.0260
   -12.2286 -12.2286 -12.2014 -12.2014 -11.7435 -11.7435 -11.7079 -11.7079
   -11.4687 -11.4687 -11.4412 -11.4412 -10.8406 -10.8406 -10.7991 -10.7991
    -9.8727  -9.8727  -9.8423  -9.8423  -9.4106  -9.4106  -9.3525  -9.3525
    -8.8476  -8.8476  -8.8259  -8.8259  -7.9268  -7.9268  -7.9119  -7.9119
    -7.5769  -7.5769  -7.5624  -7.5624  -7.1742  -7.1742  -7.0584  -7.0584
    -6.7226  -6.7226  -6.6075  -6.6075  -6.0115  -6.0115  -5.9495  -5.9495
    -5.8861  -5.8861  -5.6376  -5.6376  -5.5398  -5.5398  -5.4933  -5.4933
    -5.3566  -5.3566  -5.3139  -5.3139  -5.1358  -5.1358  -5.0019  -5.0019
    -4.9281  -4.9281  -4.8490  -4.8490  -4.7699  -4.7699  -4.5706  -4.5706
    -4.4714  -4.4714  -4.4439  -4.4439  -4.3917  -4.3917  -4.2666  -4.2666
    -4.1841  -4.1841  -4.1290  -4.1290  -3.9927  -3.9927  -3.8958  -3.8958
    -3.8156  -3.8156  -3.6826  -3.6826  -3.6720  -3.6720  -3.5887  -3.5887
    -3.4765  -3.4765  -3.4536  -3.4536  -3.3018  -3.3018  -3.2860  -3.2860
    -3.1976  -3.1976  -3.1059  -3.1059  -2.9099  -2.9099  -2.7960  -2.7960
    -2.7819  -2.7819  -2.7398  -2.7398  -2.6277  -2.6277  -2.5817  -2.5817
    -2.4554  -2.4554  -2.3592  -2.3592  -2.3380  -2.3380  -2.2827  -2.2827
    -2.1831  -2.1831  -2.0964  -2.0964  -2.0142  -2.0142  -1.9512  -1.9512
    -1.7599  -1.7599  -1.6810  -1.6810  -1.6068  -1.6068  -1.5476  -1.5476
    -1.3308  -1.3308  -1.2185  -1.2185  -0.8311  -0.8311  -0.7703  -0.7703
    -0.7023  -0.7023  -0.6436  -0.6436  -0.3592  -0.3592  -0.1375  -0.1375
     0.0124   0.0124   0.0892   0.0892   0.2725   0.2725   0.4806   0.4806
     0.5894   0.5894   0.6102   0.6102   4.4350   4.4350   4.4920   4.4920
     5.1330   5.1330   5.2512   5.2512   5.3246   5.3246   5.4509   5.4509
     5.4930   5.4931   5.7577   5.7577   6.7178   6.7178   7.1446   7.1446
     7.1774   7.1774   7.5033   7.5033   7.6028   7.6028   7.7530   7.7530
     7.8570   7.8570   7.9585   7.9585   8.1783   8.1783   8.2839   8.2840
     8.4048   8.4048   8.4965   8.4965

          k =-0.5000 0.0000-0.6422 (143710 PWs)   bands (ev):

   -21.4585 -21.4510 -21.4495 -21.4396 -21.2301 -21.2278 -21.2222 -21.2194
   -19.8449 -19.8426 -19.8407 -19.8402 -19.2728 -19.2721 -19.2649 -19.2638
   -19.0843 -19.0842 -19.0783 -19.0764 -15.2449 -15.2353 -15.2289 -15.2279
   -14.2064 -14.2047 -14.1964 -14.1905 -13.0864 -13.0590 -13.0188 -12.9927
   -12.2383 -12.2171 -12.2108 -12.1929 -11.7447 -11.7415 -11.7141 -11.7034
   -11.5045 -11.4731 -11.4306 -11.4145 -10.8535 -10.8381 -10.8054 -10.7809
    -9.8768  -9.8724  -9.8717  -9.8153  -9.4576  -9.3753  -9.3738  -9.3087
    -8.8773  -8.8700  -8.8080  -8.7925  -7.9557  -7.9351  -7.9123  -7.8847
    -7.6054  -7.5944  -7.5358  -7.5278  -7.1751  -7.1670  -7.0950  -7.0362
    -6.7409  -6.6809  -6.6103  -6.5915  -6.0981  -6.0217  -5.9787  -5.9439
    -5.9011  -5.7073  -5.7050  -5.6520  -5.5857  -5.5495  -5.4750  -5.4590
    -5.3739  -5.3380  -5.3336  -5.3127  -5.1874  -5.0311  -5.0064  -4.9945
    -4.9298  -4.9151  -4.8798  -4.8225  -4.8151  -4.7209  -4.6839  -4.5362
    -4.5168  -4.4608  -4.4577  -4.3894  -4.3824  -4.3274  -4.3038  -4.2963
    -4.2278  -4.2248  -4.1618  -4.0193  -3.9766  -3.9454  -3.9201  -3.8770
    -3.8714  -3.7814  -3.7788  -3.7253  -3.6150  -3.5841  -3.5546  -3.5211
    -3.5121  -3.4984  -3.4593  -3.4193  -3.4067  -3.3843  -3.2834  -3.2296
    -3.1493  -3.1356  -3.1121  -3.0392  -2.9952  -2.9583  -2.9367  -2.8524
    -2.7429  -2.7345  -2.7180  -2.6724  -2.6171  -2.6105  -2.6047  -2.5794
    -2.4523  -2.4168  -2.4058  -2.4002  -2.3516  -2.3144  -2.2671  -2.2614
    -2.2183  -2.1339  -2.1078  -2.0672  -2.0390  -1.9949  -1.9250  -1.9072
    -1.7778  -1.7038  -1.6944  -1.6870  -1.6284  -1.5990  -1.5864  -1.5660
    -1.3372  -1.3367  -1.2694  -1.1681  -0.8087  -0.8043  -0.7660  -0.7307
    -0.7258  -0.7225  -0.7000  -0.6522  -0.4317  -0.2652  -0.1917  -0.1033
    -0.0391   0.0554   0.0634   0.1358   0.1983   0.3779   0.4179   0.4241
     0.4921   0.5774   0.6963   0.7117   4.3555   4.4120   4.5271   4.5696
     5.0870   5.1774   5.2275   5.2558   5.3037   5.3372   5.4405   5.4639
     5.4640   5.4999   5.7509   5.7573   6.6162   6.9548   7.0401   7.2328
     7.2736   7.2839   7.3299   7.3717   7.7402   7.7406   7.7820   7.7859
     7.8374   7.8477   7.8698   7.9488   8.0678   8.1751   8.2359   8.2653
     8.3422   8.3422   8.5345   8.5586

          k =-0.5000-0.4648-0.1756 (143748 PWs)   bands (ev):

   -21.4540 -21.4539 -21.4455 -21.4455 -21.2251 -21.2251 -21.2245 -21.2245
   -19.8424 -19.8424 -19.8418 -19.8418 -19.2725 -19.2725 -19.2643 -19.2643
   -19.0844 -19.0843 -19.0773 -19.0773 -15.2404 -15.2404 -15.2280 -15.2280
   -14.2001 -14.2001 -14.1991 -14.1991 -13.0439 -13.0439 -13.0363 -13.0363
   -12.2205 -12.2205 -12.2113 -12.2113 -11.7290 -11.7290 -11.7212 -11.7212
   -11.4605 -11.4605 -11.4473 -11.4473 -10.8388 -10.8388 -10.8022 -10.8022
    -9.8768  -9.8768  -9.8408  -9.8408  -9.4088  -9.4088  -9.3514  -9.3514
    -8.8479  -8.8479  -8.8261  -8.8261  -7.9247  -7.9247  -7.9056  -7.9056
    -7.5753  -7.5753  -7.5644  -7.5644  -7.1349  -7.1349  -7.1099  -7.1099
    -6.6760  -6.6760  -6.6659  -6.6659  -5.9893  -5.9893  -5.9745  -5.9745
    -5.7827  -5.7827  -5.6939  -5.6939  -5.5326  -5.5326  -5.5065  -5.5065
    -5.3697  -5.3697  -5.3610  -5.3610  -5.0796  -5.0796  -5.0378  -5.0378
    -4.9532  -4.9532  -4.8900  -4.8900  -4.6090  -4.6090  -4.5918  -4.5918
    -4.4955  -4.4955  -4.4687  -4.4687  -4.3305  -4.3305  -4.3053  -4.3053
    -4.1732  -4.1732  -4.1657  -4.1657  -3.9982  -3.9982  -3.9738  -3.9738
    -3.8126  -3.8126  -3.6680  -3.6680  -3.6017  -3.6017  -3.5523  -3.5523
    -3.5137  -3.5137  -3.4883  -3.4883  -3.3349  -3.3349  -3.2815  -3.2815
    -3.1603  -3.1603  -3.1145  -3.1145  -2.8777  -2.8777  -2.8257  -2.8257
    -2.7774  -2.7774  -2.7481  -2.7481  -2.6200  -2.6200  -2.5828  -2.5828
    -2.4185  -2.4185  -2.3629  -2.3629  -2.3190  -2.3190  -2.3050  -2.3050
    -2.1884  -2.1884  -2.0803  -2.0803  -1.9849  -1.9849  -1.9596  -1.9596
    -1.7123  -1.7123  -1.7084  -1.7084  -1.6073  -1.6073  -1.5838  -1.5838
    -1.3451  -1.3451  -1.2218  -1.2218  -0.8236  -0.8236  -0.7970  -0.7970
    -0.6892  -0.6892  -0.6386  -0.6386  -0.3373  -0.3373  -0.1385  -0.1385
     0.0069   0.0069   0.0442   0.0442   0.3660   0.3660   0.4139   0.4139
     0.5939   0.5939   0.5996   0.5997   4.4483   4.4483   4.4731   4.4731
     5.2011   5.2011   5.2176   5.2176   5.3157   5.3157   5.4616   5.4616
     5.6056   5.6056   5.6112   5.6112   6.8076   6.8076   6.9652   6.9652
     7.2702   7.2702   7.2748   7.2749   7.6191   7.6191   7.7443   7.7443
     7.7953   7.7953   8.1414   8.1415   8.2280   8.2280   8.3073   8.3073
     8.5108   8.5108   8.5408   8.5408

          k =-0.5000-0.4648-0.6422 (143800 PWs)   bands (ev):

   -21.4539 -21.4539 -21.4455 -21.4455 -21.2251 -21.2251 -21.2245 -21.2245
   -19.8429 -19.8429 -19.8413 -19.8413 -19.2725 -19.2725 -19.2644 -19.2644
   -19.0844 -19.0844 -19.0772 -19.0772 -15.2386 -15.2386 -15.2299 -15.2299
   -14.2039 -14.2039 -14.1949 -14.1949 -13.0726 -13.0726 -13.0065 -13.0065
   -12.2261 -12.2261 -12.2054 -12.2054 -11.7286 -11.7286 -11.7226 -11.7226
   -11.4857 -11.4857 -11.4231 -11.4231 -10.8466 -10.8466 -10.7927 -10.7927
    -9.8812  -9.8812  -9.8400  -9.8400  -9.4335  -9.4335  -9.3217  -9.3217
    -8.8878  -8.8878  -8.7870  -8.7870  -7.9453  -7.9453  -7.8873  -7.8873
    -7.6010  -7.6010  -7.5333  -7.5333  -7.1434  -7.1434  -7.1057  -7.1057
    -6.6828  -6.6828  -6.6375  -6.6375  -6.0670  -6.0670  -5.9288  -5.9288
    -5.7925  -5.7925  -5.6892  -5.6892  -5.5515  -5.5515  -5.4975  -5.4975
    -5.3585  -5.3585  -5.3379  -5.3379  -5.0725  -5.0725  -4.9984  -4.9984
    -4.9662  -4.9662  -4.8989  -4.8989  -4.6824  -4.6824  -4.5620  -4.5620
    -4.5400  -4.5400  -4.4582  -4.4582  -4.3272  -4.3272  -4.3162  -4.3162
    -4.1942  -4.1942  -4.0912  -4.0912  -4.0417  -4.0417  -3.9283  -3.9283
    -3.7810  -3.7810  -3.7680  -3.7680  -3.5624  -3.5624  -3.5531  -3.5531
    -3.5300  -3.5300  -3.4560  -3.4560  -3.3402  -3.3402  -3.2736  -3.2736
    -3.1564  -3.1564  -3.0401  -3.0401  -2.9557  -2.9557  -2.8547  -2.8547
    -2.7906  -2.7906  -2.7019  -2.7019  -2.6159  -2.6159  -2.5381  -2.5381
    -2.4285  -2.4285  -2.3723  -2.3723  -2.3217  -2.3217  -2.2855  -2.2855
    -2.1918  -2.1917  -2.0869  -2.0869  -2.0476  -2.0476  -1.9250  -1.9250
    -1.7265  -1.7265  -1.7205  -1.7205  -1.6304  -1.6304  -1.5463  -1.5463
    -1.3508  -1.3508  -1.1956  -1.1956  -0.8143  -0.8143  -0.7746  -0.7746
    -0.7010  -0.7010  -0.6739  -0.6739  -0.3325  -0.3325  -0.1502  -0.1502
    -0.0022  -0.0022   0.0616   0.0616   0.3443   0.3443   0.4171   0.4171
     0.5096   0.5096   0.7044   0.7044   4.3780   4.3780   4.5457   4.5457
     5.1735   5.1735   5.2368   5.2368   5.3161   5.3161   5.4599   5.4599
     5.5840   5.5840   5.6225   5.6225   6.8328   6.8328   7.0132   7.0132
     7.1383   7.1383   7.3802   7.3802   7.5465   7.5465   7.8423   7.8423
     7.9097   7.9097   8.0065   8.0065   8.2350   8.2350   8.3733   8.3734
     8.4636   8.4636   8.5428   8.5429

     highest occupied, lowest unoccupied level (ev):     0.7117    4.3555

!    total energy              =   -1941.83708970 Ry
     Harris-Foulkes estimate   =   -1941.83708971 Ry
     estimated scf accuracy    <          8.5E-09 Ry

     total all-electron energy =     -7353.564340 Ry

     The total energy is the sum of the following terms:

     one-electron contribution =   -1268.27134231 Ry
     hartree contribution      =     791.48003526 Ry
     xc contribution           =    -425.96931230 Ry
     ewald contribution        =    -475.51881682 Ry
     Dispersion Correction     =      -0.69652388 Ry
     one-center paw contrib.   =    -562.86112966 Ry

     convergence has been achieved in  22 iterations

     Forces acting on atoms (cartesian axes, Ry/au):

     atom    1 type  4   force =    -0.00005602   -0.00020535    0.00034642
     atom    2 type  4   force =     0.00005805   -0.00020252   -0.00034700
     atom    3 type  4   force =     0.00005602    0.00020535   -0.00034642
     atom    4 type  4   force =    -0.00005805    0.00020252    0.00034700
     atom    5 type  4   force =    -0.00019666   -0.00029339   -0.00019216
     atom    6 type  4   force =     0.00019632   -0.00029478    0.00019188
     atom    7 type  4   force =     0.00019666    0.00029339    0.00019216
     atom    8 type  4   force =    -0.00019632    0.00029478   -0.00019188
     atom    9 type  4   force =    -0.00020393    0.00023468   -0.00090459
     atom   10 type  4   force =     0.00020459    0.00023558    0.00090390
     atom   11 type  4   force =     0.00020393   -0.00023468    0.00090459
     atom   12 type  4   force =    -0.00020459   -0.00023558   -0.00090390
     atom   13 type  4   force =     0.00051571    0.00009949    0.00007224
     atom   14 type  4   force =    -0.00051675    0.00009790   -0.00007295
     atom   15 type  4   force =    -0.00051571   -0.00009949   -0.00007224
     atom   16 type  4   force =     0.00051675   -0.00009790    0.00007295
     atom   17 type  4   force =    -0.00008269    0.00024034   -0.00043624
     atom   18 type  4   force =     0.00008175    0.00023851    0.00043484
     atom   19 type  4   force =     0.00008269   -0.00024034    0.00043624
     atom   20 type  4   force =    -0.00008175   -0.00023851   -0.00043484
     atom   21 type  1   force =     0.00007730   -0.00023306   -0.00075598
     atom   22 type  1   force =    -0.00007787   -0.00023562    0.00075632
     atom   23 type  1   force =    -0.00007730    0.00023306    0.00075598
     atom   24 type  1   force =     0.00007787    0.00023562   -0.00075632
     atom   25 type  1   force =     0.00031119    0.00002268   -0.00025535
     atom   26 type  1   force =    -0.00031419    0.00004366    0.00025494
     atom   27 type  1   force =    -0.00031119   -0.00002268    0.00025535
     atom   28 type  1   force =     0.00031419   -0.00004366   -0.00025494
     atom   29 type  1   force =     0.00057009    0.00009330   -0.00042158
     atom   30 type  1   force =    -0.00057035    0.00009075    0.00042180
     atom   31 type  1   force =    -0.00057009   -0.00009330    0.00042158
     atom   32 type  1   force =     0.00057035   -0.00009075   -0.00042180
     atom   33 type  3   force =    -0.00042202    0.00031700   -0.00022175
     atom   34 type  3   force =     0.00042212    0.00031727    0.00022188
     atom   35 type  3   force =     0.00042202   -0.00031700    0.00022175
     atom   36 type  3   force =    -0.00042212   -0.00031727   -0.00022188
     atom   37 type  3   force =     0.00068964   -0.00052362    0.00021327
     atom   38 type  3   force =    -0.00068987   -0.00052368   -0.00021316
     atom   39 type  3   force =    -0.00068964    0.00052362   -0.00021327
     atom   40 type  3   force =     0.00068987    0.00052368    0.00021316
     atom   41 type  1   force =     0.00003125    0.00065196    0.00049932
     atom   42 type  1   force =    -0.00004188    0.00064952   -0.00050253
     atom   43 type  1   force =    -0.00003125   -0.00065196   -0.00049932
     atom   44 type  1   force =     0.00004188   -0.00064952    0.00050253
     atom   45 type  1   force =     0.00090606   -0.00014041   -0.00016753
     atom   46 type  1   force =    -0.00090887   -0.00015348    0.00016890
     atom   47 type  1   force =    -0.00090606    0.00014041    0.00016753
     atom   48 type  1   force =     0.00090887    0.00015348   -0.00016890
     atom   49 type  3   force =     0.00001924    0.00063755   -0.00002528
     atom   50 type  3   force =    -0.00001924    0.00063651    0.00002494
     atom   51 type  3   force =    -0.00001924   -0.00063755    0.00002528
     atom   52 type  3   force =     0.00001924   -0.00063651   -0.00002494
     atom   53 type  3   force =     0.00028712   -0.00054129   -0.00093131
     atom   54 type  3   force =    -0.00028716   -0.00054091    0.00093123
     atom   55 type  3   force =    -0.00028712    0.00054129    0.00093131
     atom   56 type  3   force =     0.00028716    0.00054091   -0.00093123
     atom   57 type  1   force =    -0.00020674   -0.00052291   -0.00077316
     atom   58 type  1   force =     0.00020348   -0.00051052    0.00077215
     atom   59 type  1   force =     0.00020674    0.00052291    0.00077316
     atom   60 type  1   force =    -0.00020348    0.00051052   -0.00077215
     atom   61 type  3   force =     0.00082486   -0.00006335    0.00022752
     atom   62 type  3   force =    -0.00082551   -0.00006296   -0.00022804
     atom   63 type  3   force =    -0.00082486    0.00006335   -0.00022752
     atom   64 type  3   force =     0.00082551    0.00006296    0.00022804
     atom   65 type  3   force =    -0.00009325    0.00030036    0.00005565
     atom   66 type  3   force =     0.00009346    0.00030006   -0.00005584
     atom   67 type  3   force =     0.00009325   -0.00030036   -0.00005565
     atom   68 type  3   force =    -0.00009346   -0.00030006    0.00005584
     atom   69 type  1   force =     0.00003319    0.00034801   -0.00033775
     atom   70 type  1   force =    -0.00004000    0.00036329    0.00033614
     atom   71 type  1   force =    -0.00003319   -0.00034801    0.00033775
     atom   72 type  1   force =     0.00004000   -0.00036329   -0.00033614
     atom   73 type  1   force =    -0.00010167   -0.00012369   -0.00034200
     atom   74 type  1   force =     0.00010691   -0.00010839    0.00034424
     atom   75 type  1   force =     0.00010167    0.00012369    0.00034200
     atom   76 type  1   force =    -0.00010691    0.00010839   -0.00034424
     atom   77 type  1   force =     0.00009209   -0.00106241    0.00050443
     atom   78 type  1   force =    -0.00007814   -0.00106771   -0.00050072
     atom   79 type  1   force =    -0.00009209    0.00106241   -0.00050443
     atom   80 type  1   force =     0.00007814    0.00106771    0.00050072
     atom   81 type  1   force =     0.00029441   -0.00032767   -0.00033240
     atom   82 type  1   force =    -0.00029624   -0.00032193    0.00033225
     atom   83 type  1   force =    -0.00029441    0.00032767    0.00033240
     atom   84 type  1   force =     0.00029624    0.00032193   -0.00033225
     atom   85 type  3   force =    -0.00012052   -0.00036770   -0.00047905
     atom   86 type  3   force =     0.00012093   -0.00036772    0.00047949
     atom   87 type  3   force =     0.00012052    0.00036770    0.00047905
     atom   88 type  3   force =    -0.00012093    0.00036772   -0.00047949
     atom   89 type  3   force =     0.00034356   -0.00011110   -0.00000122
     atom   90 type  3   force =    -0.00034351   -0.00011096    0.00000102
     atom   91 type  3   force =    -0.00034356    0.00011110    0.00000122
     atom   92 type  3   force =     0.00034351    0.00011096   -0.00000102
     atom   93 type  1   force =     0.00017639   -0.00019133    0.00018758
     atom   94 type  1   force =    -0.00017478   -0.00018549   -0.00018706
     atom   95 type  1   force =    -0.00017639    0.00019133   -0.00018758
     atom   96 type  1   force =     0.00017478    0.00018549    0.00018706
     atom   97 type  1   force =    -0.00035757    0.00013337   -0.00003835
     atom   98 type  1   force =     0.00036182    0.00011808    0.00003680
     atom   99 type  1   force =     0.00035757   -0.00013337    0.00003835
     atom  100 type  1   force =    -0.00036182   -0.00011808   -0.00003680
     atom  101 type  3   force =    -0.00060056    0.00015276   -0.00056253
     atom  102 type  3   force =     0.00060053    0.00015259    0.00056268
     atom  103 type  3   force =     0.00060056   -0.00015276    0.00056253
     atom  104 type  3   force =    -0.00060053   -0.00015259   -0.00056268
     atom  105 type  3   force =    -0.00034972   -0.00013109    0.00043036
     atom  106 type  3   force =     0.00035004   -0.00013119   -0.00042981
     atom  107 type  3   force =     0.00034972    0.00013109   -0.00043036
     atom  108 type  3   force =    -0.00035004    0.00013119    0.00042981
     atom  109 type  3   force =    -0.00004735    0.00019883    0.00012586
     atom  110 type  3   force =     0.00004753    0.00019835   -0.00012567
     atom  111 type  3   force =     0.00004735   -0.00019883   -0.00012586
     atom  112 type  3   force =    -0.00004753   -0.00019835    0.00012567
     atom  113 type  1   force =    -0.00046181    0.00019754   -0.00145795
     atom  114 type  1   force =     0.00046092    0.00019838    0.00145562
     atom  115 type  1   force =     0.00046181   -0.00019754    0.00145795
     atom  116 type  1   force =    -0.00046092   -0.00019838   -0.00145562
     atom  117 type  1   force =    -0.00058217   -0.00020880    0.00195368
     atom  118 type  1   force =     0.00058495   -0.00022594   -0.00195465
     atom  119 type  1   force =     0.00058217    0.00020880   -0.00195368
     atom  120 type  1   force =    -0.00058495    0.00022594    0.00195465
     atom  121 type  3   force =    -0.00020866   -0.00004522   -0.00133654
     atom  122 type  3   force =     0.00020867   -0.00004541    0.00133693
     atom  123 type  3   force =     0.00020866    0.00004522    0.00133654
     atom  124 type  3   force =    -0.00020867    0.00004541   -0.00133693
     atom  125 type  3   force =    -0.00016340    0.00096409   -0.00007003
     atom  126 type  3   force =     0.00016325    0.00096267    0.00007031
     atom  127 type  3   force =     0.00016340   -0.00096409    0.00007003
     atom  128 type  3   force =    -0.00016325   -0.00096267   -0.00007031
     atom  129 type  3   force =     0.00012251   -0.00077857   -0.00000849
     atom  130 type  3   force =    -0.00012244   -0.00077879    0.00000842
     atom  131 type  3   force =    -0.00012251    0.00077857    0.00000849
     atom  132 type  3   force =     0.00012244    0.00077879   -0.00000842
     atom  133 type  3   force =    -0.00063662    0.00062941    0.00014548
     atom  134 type  3   force =     0.00063734    0.00062958   -0.00014517
     atom  135 type  3   force =     0.00063662   -0.00062941   -0.00014548
     atom  136 type  3   force =    -0.00063734   -0.00062958    0.00014517
     atom  137 type  3   force =     0.00015193   -0.00010638    0.00024735
     atom  138 type  3   force =    -0.00015152   -0.00010615   -0.00024695
     atom  139 type  3   force =    -0.00015193    0.00010638   -0.00024735
     atom  140 type  3   force =     0.00015152    0.00010615    0.00024695

     Total force =     0.009795     Total SCF correction =     0.000173


     Computing stress (Cartesian axis) and pressure

          total   stress  (Ry/bohr**3)                   (kbar)     P=   -4.47
  -0.00003705  -0.00000000  -0.00000103         -5.45     -0.00     -0.15
  -0.00000000  -0.00002468  -0.00000000         -0.00     -3.63     -0.00
  -0.00000103  -0.00000000  -0.00002953         -0.15     -0.00     -4.34


     Writing output data file scf.save
 
     init_run     :     84.40s CPU     87.32s WALL (       1 calls)
     electrons    :   3862.47s CPU   4012.20s WALL (       1 calls)
     forces       :     39.70s CPU     40.07s WALL (       1 calls)
     stress       :    294.65s CPU    295.23s WALL (       1 calls)

     Called by init_run:
     wfcinit      :     67.89s CPU     70.59s WALL (       1 calls)
     potinit      :      5.74s CPU      5.80s WALL (       1 calls)

     Called by electrons:
     c_bands      :   3477.87s CPU   3606.70s WALL (      22 calls)
     sum_band     :    354.76s CPU    372.38s WALL (      22 calls)
     v_of_rho     :      3.95s CPU      4.30s WALL (      23 calls)
     newd         :     10.41s CPU     13.20s WALL (      23 calls)
     PAW_pot      :     14.21s CPU     14.22s WALL (      23 calls)
     mix_rho      :      1.08s CPU      1.15s WALL (      22 calls)

     Called by c_bands:
     init_us_2    :     22.58s CPU     22.65s WALL (     376 calls)
     cegterg      :   3392.93s CPU   3521.68s WALL (     176 calls)

     Called by sum_band:
     sum_band:bec :      0.23s CPU      0.23s WALL (     176 calls)
     addusdens    :     10.74s CPU     13.42s WALL (      22 calls)

     Called by *egterg:
     h_psi        :   1897.07s CPU   1995.70s WALL (     775 calls)
     s_psi        :    384.52s CPU    384.57s WALL (     775 calls)
     g_psi        :     12.18s CPU     12.19s WALL (     591 calls)
     cdiaghg      :    190.82s CPU    190.87s WALL (     767 calls)

     Called by h_psi:
     h_psi:pot    :   1883.20s CPU   1981.66s WALL (     775 calls)
     h_psi:calbec :    368.82s CPU    369.47s WALL (     775 calls)
     vloc_psi     :   1130.03s CPU   1227.78s WALL (     775 calls)
     add_vuspsi   :    384.35s CPU    384.40s WALL (     775 calls)

     General routines
     calbec       :    521.02s CPU    521.93s WALL (     991 calls)
     fft          :      2.33s CPU      2.92s WALL (     323 calls)
     fftw         :   1215.39s CPU   1327.51s WALL (  294146 calls)
 
     Parallel routines
     fft_scatter  :    199.97s CPU    305.52s WALL (  294469 calls)
 
     PWSCF        :     1h11m CPU        1h15m WALL

 
   This run was terminated on:   3: 4:53   4Nov2017            

=------------------------------------------------------------------------------=
   JOB DONE.
=------------------------------------------------------------------------------=
