
     Program PWSCF v.6.1 (svn rev. 13369) starts on 20Dec2017 at 23:27:25 

     This program is part of the open-source Quantum ESPRESSO suite
     for quantum simulation of materials; please cite
         "P. Giannozzi et al., J. Phys.:Condens. Matter 21 395502 (2009);
          URL http://www.quantum-espresso.org", 
     in publications or presentations arising from this work. More details at
     http://www.quantum-espresso.org/quote

     Parallel version (MPI), running on     8 processors
     R & G space division:  proc/nbgrp/npool/nimage =       8
     Waiting for input...
     Reading input from standard input

     Current dimensions of program PWSCF are:
     Max number of different atomic species (ntypx) = 10
     Max number of k-points (npk) =  40000
     Max angular momentum in pseudopotentials (lmaxx) =  3
               file C.pbe-n-kjpaw_psl.0.1.UPF: wavefunction(s)  2P renormalized
               file N.pbe-n-kjpaw_psl.0.1.UPF: wavefunction(s)  2P renormalized
               file H.pbe-kjpaw_psl.0.1.UPF: wavefunction(s)  1S renormalized
               file O.pbe-n-kjpaw_psl.0.1.UPF: wavefunction(s)  2P renormalized

     -------------------------------------
     Parameters for Dispersion Correction:
     -------------------------------------
       atom      VdW radius       C_6     

        C          2.744         60.710
        N          2.640         42.670
        H          1.892          4.857
        O          2.536         24.284

     Subspace diagonalization in iterative solution of the eigenvalue problem:
     a serial algorithm will be used

 
     Parallelization info
     --------------------
     sticks:   dense  smooth     PW     G-vecs:    dense   smooth      PW
     Min         858     858    226               148678   148678   20019
     Max         859     859    227               148681   148681   20027
     Sum        6871    6871   1811              1189437  1189437  160175
 


     bravais-lattice index     =            0
     lattice parameter (alat)  =      13.2714  a.u.
     unit-cell volume          =    8805.0508 (a.u.)^3
     number of atoms/cell      =          128
     number of atomic types    =            4
     number of electrons       =       480.00
     number of Kohn-Sham states=          288
     kinetic-energy cutoff     =     100.0000  Ry
     charge density cutoff     =     400.0000  Ry
     convergence threshold     =      1.0E-08
     mixing beta               =       0.5000
     number of iterations used =            8  plain     mixing
     Exchange-correlation      =  SLA  PW   PBX  PBC ( 1  4  3  4 0 0)

     celldm(1)=  13.271358  celldm(2)=   0.000000  celldm(3)=   0.000000
     celldm(4)=   0.000000  celldm(5)=   0.000000  celldm(6)=   0.000000

     crystal axes: (cart. coord. in units of alat)
               a(1) = (   1.000000   0.000000   0.000000 )  
               a(2) = (   0.000000   1.226673   0.000000 )  
               a(3) = (  -0.001554   0.000000   3.070839 )  

     reciprocal axes: (cart. coord. in units 2 pi/alat)
               b(1) = (  1.000000  0.000000  0.000506 )  
               b(2) = (  0.000000  0.815213  0.000000 )  
               b(3) = (  0.000000  0.000000  0.325644 )  


     PseudoPot. # 1 for  C read from file:
     /scratch/ahofstet/pseudo/C.pbe-n-kjpaw_psl.0.1.UPF
     MD5 check sum: 430fe95172b1e11ef3f8ed03bac87931
     Pseudo is Projector augmented-wave + core cor, Zval =  4.0
     Generated using "atomic" code by A. Dal Corso  v.5.0.99 svn rev. 10869
     Shape of augmentation charge: BESSEL
     Using radial grid of 1073 points,  4 beta functions with: 
                l(1) =   0
                l(2) =   0
                l(3) =   1
                l(4) =   1
     Q(r) pseudized with 0 coefficients 


     PseudoPot. # 2 for  N read from file:
     /scratch/ahofstet/pseudo/N.pbe-n-kjpaw_psl.0.1.UPF
     MD5 check sum: f73187c8b701007e77325f868c9291d7
     Pseudo is Projector augmented-wave + core cor, Zval =  5.0
     Generated using "atomic" code by A. Dal Corso  v.5.0.99 svn rev. 10869
     Shape of augmentation charge: PSQ
     Using radial grid of 1085 points,  4 beta functions with: 
                l(1) =   0
                l(2) =   0
                l(3) =   1
                l(4) =   1
     Q(r) pseudized with 0 coefficients 


     PseudoPot. # 3 for  H read from file:
     /scratch/ahofstet/pseudo/H.pbe-kjpaw_psl.0.1.UPF
     MD5 check sum: 94e484f906d9e9773b2f6e52662335b2
     Pseudo is Projector augmented-wave, Zval =  1.0
     Generated using "atomic" code by A. Dal Corso  v.5.0.99 svn rev. 10869
     Shape of augmentation charge: PSQ
     Using radial grid of  929 points,  2 beta functions with: 
                l(1) =   0
                l(2) =   0
     Q(r) pseudized with 0 coefficients 


     PseudoPot. # 4 for  O read from file:
     /scratch/ahofstet/pseudo/O.pbe-n-kjpaw_psl.0.1.UPF
     MD5 check sum: 3f94a2996a3169367d6eb21d9b593f20
     Pseudo is Projector augmented-wave + core cor, Zval =  6.0
     Generated using "atomic" code by A. Dal Corso  v.5.0.99 svn rev. 10869
     Shape of augmentation charge: BESSEL
     Using radial grid of 1095 points,  4 beta functions with: 
                l(1) =   0
                l(2) =   0
                l(3) =   1
                l(4) =   1
     Q(r) pseudized with 0 coefficients 


     atomic species   valence    mass     pseudopotential
        C              4.00    12.01070      C( 1.00)
        N              5.00    14.00670      N( 1.00)
        H              1.00     1.00794      H( 1.00)
        O              6.00    15.99940      O( 1.00)

      2 Sym. Ops., with inversion, found



   Cartesian axes

     site n.     atom                  positions (alat units)
         1           O   tau(   1) = (   0.2966416   0.1471303   2.3115696  )
         2           O   tau(   2) = (   0.2009566   0.7602647   2.2946170  )
         3           O   tau(   3) = (   0.7018041   1.0795424   0.7592697  )
         4           O   tau(   4) = (   0.7974891   0.4664080   0.7762223  )
         5           O   tau(   5) = (   0.4832552   1.1858329   2.4760870  )
         6           O   tau(   6) = (   0.0143387   0.5723043   2.1300901  )
         7           O   tau(   7) = (   0.5151905   0.0408398   0.5947522  )
         8           O   tau(   8) = (   0.9841070   0.6543685   0.9407492  )
         9           O   tau(   9) = (   0.3256503   0.4627644   0.2148163  )
        10           O   tau(  10) = (   0.1734422   1.0760683   1.3205891  )
        11           O   tau(  11) = (   0.6727954   0.7639083   2.8560230  )
        12           O   tau(  12) = (   0.8250035   0.1506045   1.7502502  )
        13           O   tau(  13) = (   0.3320591   0.4399226   0.5310352  )
        14           O   tau(  14) = (   0.1669432   1.0533049   1.0043547  )
        15           O   tau(  15) = (   0.6663867   0.7867501   2.5398041  )
        16           O   tau(  16) = (   0.8315026   0.1733679   2.0664845  )
        17           O   tau(  17) = (   0.0202831   0.1583551   0.2316145  )
        18           O   tau(  18) = (   0.4789555   0.7716260   1.3038335  )
        19           O   tau(  19) = (   0.9781626   1.0683176   2.8392248  )
        20           O   tau(  20) = (   0.5194902   0.4550468   1.7670058  )
        21           O   tau(  21) = (   0.9941595   0.1546241   0.5415400  )
        22           O   tau(  22) = (   0.5050994   0.7678618   0.9939152  )
        23           O   tau(  23) = (   0.0042863   1.0720486   2.5292993  )
        24           O   tau(  24) = (   0.4933463   0.4588110   2.0769241  )
        25           N   tau(  25) = (   0.3770982   0.0985273   2.4609188  )
        26           N   tau(  26) = (   0.1205219   0.7116484   2.1452570  )
        27           N   tau(  27) = (   0.6213475   1.1281455   0.6099205  )
        28           N   tau(  28) = (   0.8779238   0.5150244   0.9255823  )
        29           N   tau(  29) = (   0.1700649   0.6902511   2.7384107  )
        30           N   tau(  30) = (   0.3275968   0.0767115   1.8678719  )
        31           N   tau(  31) = (   0.8283808   0.5364217   0.3324286  )
        32           N   tau(  32) = (   0.6708489   1.1499613   1.2029674  )
        33           H   tau(  33) = (   0.1542251   0.7796662   2.8518033  )
        34           H   tau(  34) = (   0.3434435   0.1661570   1.7545028  )
        35           H   tau(  35) = (   0.8442206   0.4470065   0.2190360  )
        36           H   tau(  36) = (   0.6550022   1.0605157   1.3163365  )
        37           H   tau(  37) = (   0.1526420   0.7399004   2.6035158  )
        38           H   tau(  38) = (   0.3450047   0.1263159   2.0027866  )
        39           H   tau(  39) = (   0.8458037   0.4867723   0.4673235  )
        40           H   tau(  40) = (   0.6534411   1.1003568   1.0680527  )
        41           N   tau(  41) = (   0.2030433   0.7283644   0.0506923  )
        42           N   tau(  42) = (   0.2961963   0.1148990   1.4847497  )
        43           N   tau(  43) = (   0.7954025   0.4983083   3.0201470  )
        44           N   tau(  44) = (   0.7022494   1.1117738   1.5860896  )
        45           N   tau(  45) = (   0.0350424   0.0783310   0.3885229  )
        46           N   tau(  46) = (   0.4642209   0.6915782   1.1469410  )
        47           N   tau(  47) = (   0.9634033   1.1483417   2.6823164  )
        48           N   tau(  48) = (   0.5342248   0.5350945   1.9238983  )
        49           C   tau(  49) = (   0.3451583   0.2153313   2.6315936  )
        50           C   tau(  50) = (   0.1525097   0.8284267   1.9745819  )
        51           C   tau(  51) = (   0.6532874   1.0113414   0.4392457  )
        52           C   tau(  52) = (   0.8459360   0.3982460   1.0962574  )
        53           C   tau(  53) = (   0.2746360   0.3965302   2.6072265  )
        54           C   tau(  54) = (   0.2230670   1.0096054   1.9989737  )
        55           C   tau(  55) = (   0.7238097   0.8301425   0.4636128  )
        56           C   tau(  56) = (   0.7753787   0.2170673   1.0718656  )
        57           H   tau(  57) = (   0.2413793   0.4492478   2.4652879  )
        58           H   tau(  58) = (   0.2563421   1.0622898   2.1409251  )
        59           H   tau(  59) = (   0.7570664   0.7774250   0.6055514  )
        60           H   tau(  60) = (   0.7421036   0.1643830   0.9299142  )
        61           C   tau(  61) = (   0.2439969   0.5157186   2.7670313  )
        62           C   tau(  62) = (   0.2536827   1.1288482   1.8392040  )
        63           C   tau(  63) = (   0.7544488   0.7109541   0.3038079  )
        64           C   tau(  64) = (   0.7447630   0.0978245   1.2316353  )
        65           C   tau(  65) = (   0.2910791   0.4414198   2.9520179  )
        66           C   tau(  66) = (   0.2065787   1.0545860   1.6542076  )
        67           C   tau(  67) = (   0.7073666   0.7852529   0.1188213  )
        68           C   tau(  68) = (   0.7918670   0.1720868   1.4166317  )
        69           C   tau(  69) = (   0.3590987   0.2526693   2.9676089  )
        70           C   tau(  70) = (   0.1385364   0.8658466   1.6385826  )
        71           C   tau(  71) = (   0.6393470   0.9740035   0.1032304  )
        72           C   tau(  72) = (   0.8599094   0.3608261   1.4322567  )
        73           H   tau(  73) = (   0.3890627   0.1967138   0.0382426  )
        74           H   tau(  74) = (   0.1101066   0.8099282   1.4971013  )
        75           H   tau(  75) = (   0.6093830   1.0299589   3.0325967  )
        76           H   tau(  76) = (   0.8883391   0.4167445   1.5737380  )
        77           C   tau(  77) = (   0.3876151   0.1378685   2.8106595  )
        78           C   tau(  78) = (   0.1100312   0.7510005   1.7955067  )
        79           C   tau(  79) = (   0.6108306   1.0888042   0.2601798  )
        80           C   tau(  80) = (   0.8884145   0.4756723   1.2753326  )
        81           H   tau(  81) = (   0.4386590  -0.0077999   2.8219974  )
        82           H   tau(  82) = (   0.0589813   0.6053355   1.7841495  )
        83           H   tau(  83) = (   0.5597867   1.2344726   0.2488419  )
        84           H   tau(  84) = (   0.9394644   0.6213373   1.2866898  )
        85           C   tau(  85) = (   0.2690600   0.5555157   0.0521362  )
        86           C   tau(  86) = (   0.2301214   1.1687426   1.4832757  )
        87           C   tau(  87) = (   0.7293857   0.6711571   3.0187031  )
        88           C   tau(  88) = (   0.7683243   0.0579301   1.5875636  )
        89           C   tau(  89) = (   0.2974436   0.5407672   0.3959449  )
        90           C   tau(  90) = (   0.2016313   1.1541347   1.1394893  )
        91           C   tau(  91) = (   0.7010022   0.6859056   2.6748944  )
        92           C   tau(  92) = (   0.7968144   0.0725381   1.9313500  )
        93           C   tau(  93) = (   0.2313646   0.7374114   0.3973388  )
        94           C   tau(  94) = (   0.2677868   0.1240573   1.1381080  )
        95           C   tau(  95) = (   0.7670811   0.4892614   2.6735005  )
        96           C   tau(  96) = (   0.7306589   1.1026154   1.9327313  )
        97           C   tau(  97) = (   0.1870234   0.8241573   0.2210317  )
        98           C   tau(  98) = (   0.3122071   0.2107280   1.3144272  )
        99           C   tau(  99) = (   0.8114223   0.4025154   2.8498076  )
       100           C   tau( 100) = (   0.6862387   1.0159448   1.7564120  )
       101           C   tau( 101) = (   0.1223074   1.0126690   0.2193221  )
       102           C   tau( 102) = (   0.3769923   0.3992214   1.3161424  )
       103           C   tau( 103) = (   0.8761384   0.2140038   2.8515172  )
       104           C   tau( 104) = (   0.6214534   0.8274514   1.7546968  )
       105           H   tau( 105) = (   0.0861008   1.0810213   0.0852211  )
       106           H   tau( 106) = (   0.4132741   0.4675575   1.4502309  )
       107           H   tau( 107) = (   0.9123450   0.1456515   2.9856181  )
       108           H   tau( 108) = (   0.5851716   0.7591152   1.6206084  )
       109           C   tau( 109) = (   0.1040968   1.1072969   0.3915879  )
       110           C   tau( 110) = (   0.3951786   0.4938566   1.1438778  )
       111           C   tau( 111) = (   0.8943489   0.1193758   2.6792514  )
       112           C   tau( 112) = (   0.6032671   0.7328161   1.9269615  )
       113           C   tau( 113) = (   0.1444658   1.0230355   0.5675166  )
       114           C   tau( 114) = (   0.3547552   0.4096530   0.9679394  )
       115           C   tau( 115) = (   0.8539799   0.2036372   2.5033227  )
       116           C   tau( 116) = (   0.6436906   0.8170198   2.1028999  )
       117           H   tau( 117) = (   0.1240578   1.1001153   0.6998572  )
       118           H   tau( 118) = (   0.3751685   0.4867484   0.8356096  )
       119           H   tau( 119) = (   0.8743879   0.1265574   2.3709820  )
       120           H   tau( 120) = (   0.6232772   0.7399244   2.2352297  )
       121           C   tau( 121) = (   0.2092245   0.8366644   0.5690860  )
       122           C   tau( 122) = (   0.2899507   0.2232959   0.9663595  )
       123           C   tau( 123) = (   0.7892212   0.3900083   2.5017532  )
       124           C   tau( 124) = (   0.7084950   1.0033769   2.1044798  )
       125           H   tau( 125) = (   0.2411185   0.7667293   0.7035718  )
       126           H   tau( 126) = (   0.2580153   0.1533683   0.8318783  )
       127           H   tau( 127) = (   0.7573272   0.4599435   2.3672675  )
       128           H   tau( 128) = (   0.7404304   1.0733045   2.2389609  )

     number of k points=     4
                       cart. coord. in units 2pi/alat
        k(    1) = (   0.0000000   0.0000000   0.0000000), wk =   0.3333333
        k(    2) = (   0.0000000  -0.4076067   0.0000000), wk =   0.3333333
        k(    3) = (   0.3333333   0.0000000   0.0001687), wk =   0.6666667
        k(    4) = (   0.3333333  -0.4076067   0.0001687), wk =   0.6666667

     Dense  grid:  1189437 G-vectors     FFT dimensions: (  90, 108, 270)

     Estimated max dynamical RAM per process >    1430.96MB

     Estimated total allocated dynamical RAM >   11447.68MB

     Check: negative/imaginary core charge=   -0.000002    0.000000

     Initial potential from superposition of free atoms

     starting charge  479.99721, renormalised to  480.00000
     Starting wfc are  416 randomized atomic wfcs
     Checking if some PAW data can be deallocated... 

     total cpu time spent up to now is       75.7 secs

     per-process dynamical memory:   797.2 Mb

     Self-consistent Calculation

     iteration #  1     ecut=   100.00 Ry     beta=0.50
     Davidson diagonalization with overlap
     ethr =  1.00E-02,  avg # of iterations =  3.0

     total cpu time spent up to now is      287.8 secs

     total energy              =   -2517.33300112 Ry
     Harris-Foulkes estimate   =   -2525.36309891 Ry
     estimated scf accuracy    <      14.58235479 Ry

     iteration #  2     ecut=   100.00 Ry     beta=0.50
     Davidson diagonalization with overlap
     ethr =  3.04E-03,  avg # of iterations =  3.0

     total cpu time spent up to now is      414.6 secs

     total energy              =   -2519.12003363 Ry
     Harris-Foulkes estimate   =   -2520.58726385 Ry
     estimated scf accuracy    <       2.99203117 Ry

     iteration #  3     ecut=   100.00 Ry     beta=0.50
     Davidson diagonalization with overlap
     ethr =  6.23E-04,  avg # of iterations =  8.0

     total cpu time spent up to now is      635.3 secs

     total energy              =   -2520.12023175 Ry
     Harris-Foulkes estimate   =   -2520.73527149 Ry
     estimated scf accuracy    <       1.44065727 Ry

     iteration #  4     ecut=   100.00 Ry     beta=0.50
     Davidson diagonalization with overlap
     ethr =  3.00E-04,  avg # of iterations =  7.0

     total cpu time spent up to now is      760.4 secs

     total energy              =   -2520.27741770 Ry
     Harris-Foulkes estimate   =   -2520.44829706 Ry
     estimated scf accuracy    <       0.40917501 Ry

     iteration #  5     ecut=   100.00 Ry     beta=0.50
     Davidson diagonalization with overlap
     ethr =  8.52E-05,  avg # of iterations =  7.0

     total cpu time spent up to now is      935.6 secs

     total energy              =   -2520.40183777 Ry
     Harris-Foulkes estimate   =   -2520.47624444 Ry
     estimated scf accuracy    <       0.23079467 Ry

     iteration #  6     ecut=   100.00 Ry     beta=0.50
     Davidson diagonalization with overlap
     ethr =  4.81E-05,  avg # of iterations =  2.8

     total cpu time spent up to now is     1045.5 secs

     total energy              =   -2520.42647280 Ry
     Harris-Foulkes estimate   =   -2520.43837508 Ry
     estimated scf accuracy    <       0.03095155 Ry

     iteration #  7     ecut=   100.00 Ry     beta=0.50
     Davidson diagonalization with overlap
     ethr =  6.45E-06,  avg # of iterations =  9.2

     total cpu time spent up to now is     1261.7 secs

     total energy              =   -2520.43592971 Ry
     Harris-Foulkes estimate   =   -2520.43905257 Ry
     estimated scf accuracy    <       0.00909944 Ry

     iteration #  8     ecut=   100.00 Ry     beta=0.50
     Davidson diagonalization with overlap
     ethr =  1.90E-06,  avg # of iterations =  3.2

     total cpu time spent up to now is     1374.3 secs

     total energy              =   -2520.43721366 Ry
     Harris-Foulkes estimate   =   -2520.43752315 Ry
     estimated scf accuracy    <       0.00105634 Ry

     iteration #  9     ecut=   100.00 Ry     beta=0.50
     Davidson diagonalization with overlap
     ethr =  2.20E-07,  avg # of iterations =  4.0

     total cpu time spent up to now is     1568.6 secs

     total energy              =   -2520.43760120 Ry
     Harris-Foulkes estimate   =   -2520.43782438 Ry
     estimated scf accuracy    <       0.00069229 Ry

     iteration # 10     ecut=   100.00 Ry     beta=0.50
     Davidson diagonalization with overlap
     ethr =  1.44E-07,  avg # of iterations =  2.0

     total cpu time spent up to now is     1672.2 secs

     total energy              =   -2520.43759619 Ry
     Harris-Foulkes estimate   =   -2520.43767153 Ry
     estimated scf accuracy    <       0.00018030 Ry

     iteration # 11     ecut=   100.00 Ry     beta=0.50
     Davidson diagonalization with overlap
     ethr =  3.76E-08,  avg # of iterations =  4.0

     total cpu time spent up to now is     1853.2 secs

     total energy              =   -2520.43767407 Ry
     Harris-Foulkes estimate   =   -2520.43770209 Ry
     estimated scf accuracy    <       0.00010620 Ry

     iteration # 12     ecut=   100.00 Ry     beta=0.50
     Davidson diagonalization with overlap
     ethr =  2.21E-08,  avg # of iterations =  2.0

     total cpu time spent up to now is     1959.4 secs

     total energy              =   -2520.43767963 Ry
     Harris-Foulkes estimate   =   -2520.43768797 Ry
     estimated scf accuracy    <       0.00002809 Ry

     iteration # 13     ecut=   100.00 Ry     beta=0.50
     Davidson diagonalization with overlap
     ethr =  5.85E-09,  avg # of iterations =  2.5

     total cpu time spent up to now is     2073.1 secs

     total energy              =   -2520.43768110 Ry
     Harris-Foulkes estimate   =   -2520.43768366 Ry
     estimated scf accuracy    <       0.00000715 Ry

     iteration # 14     ecut=   100.00 Ry     beta=0.50
     Davidson diagonalization with overlap
     ethr =  1.49E-09,  avg # of iterations =  4.0

     total cpu time spent up to now is     2252.8 secs

     total energy              =   -2520.43768385 Ry
     Harris-Foulkes estimate   =   -2520.43768425 Ry
     estimated scf accuracy    <       0.00000156 Ry

     iteration # 15     ecut=   100.00 Ry     beta=0.50
     Davidson diagonalization with overlap
     ethr =  3.25E-10,  avg # of iterations =  2.0

     total cpu time spent up to now is     2360.9 secs

     total energy              =   -2520.43768397 Ry
     Harris-Foulkes estimate   =   -2520.43768410 Ry
     estimated scf accuracy    <       0.00000045 Ry

     iteration # 16     ecut=   100.00 Ry     beta=0.50
     Davidson diagonalization with overlap
     ethr =  9.38E-11,  avg # of iterations =  4.0

     total cpu time spent up to now is     2506.8 secs

     total energy              =   -2520.43768405 Ry
     Harris-Foulkes estimate   =   -2520.43768412 Ry
     estimated scf accuracy    <       0.00000021 Ry

     iteration # 17     ecut=   100.00 Ry     beta=0.50
     Davidson diagonalization with overlap
     ethr =  4.32E-11,  avg # of iterations =  2.0

     total cpu time spent up to now is     2613.6 secs

     total energy              =   -2520.43768405 Ry
     Harris-Foulkes estimate   =   -2520.43768408 Ry
     estimated scf accuracy    <       0.00000006 Ry

     iteration # 18     ecut=   100.00 Ry     beta=0.50
     Davidson diagonalization with overlap
     ethr =  1.32E-11,  avg # of iterations =  4.0

     total cpu time spent up to now is     2768.4 secs

     End of self-consistent calculation

          k = 0.0000 0.0000 0.0000 (148721 PWs)   bands (ev):

   -23.6035 -23.6026 -23.6023 -23.6014 -23.4631 -23.4631 -23.4613 -23.4613
   -21.0110 -21.0102 -20.9969 -20.9961 -19.1483 -19.1475 -19.1442 -19.1434
   -19.0309 -19.0309 -19.0288 -19.0288 -18.8279 -18.8246 -18.8179 -18.8146
   -16.6290 -16.6282 -16.5144 -16.5134 -16.0819 -16.0746 -15.9666 -15.9604
   -14.7722 -14.7624 -14.7529 -14.7468 -14.4372 -14.4222 -14.3978 -14.3839
   -13.2432 -13.2319 -13.2311 -13.2265 -12.7580 -12.7283 -12.6710 -12.6695
   -11.9199 -11.9165 -11.8349 -11.7965 -11.2347 -11.2333 -11.2144 -11.2123
   -10.9856 -10.9843 -10.9789 -10.9752 -10.5231 -10.5046 -10.4900 -10.4697
    -9.3773  -9.3633  -9.3566  -9.3439  -8.7414  -8.7265  -8.7256  -8.7186
    -8.1303  -8.1106  -8.0628  -8.0460  -7.9590  -7.9538  -7.9035  -7.8916
    -7.5487  -7.5209  -7.5051  -7.4925  -7.0779  -7.0363  -6.8942  -6.8763
    -6.5799  -6.5477  -6.5087  -6.4919  -6.4037  -6.3400  -6.2954  -6.2494
    -6.1567  -6.1526  -6.1426  -6.1213  -6.0524  -5.9634  -5.9170  -5.9124
    -5.8734  -5.8513  -5.8498  -5.8145  -5.6755  -5.6720  -5.5906  -5.5621
    -5.5565  -5.5253  -5.4636  -5.4583  -5.2994  -5.2747  -5.2375  -5.2035
    -5.1384  -5.1173  -5.0615  -5.0189  -4.9859  -4.9556  -4.7394  -4.7334
    -4.6740  -4.6527  -4.6260  -4.6182  -4.3458  -4.3214  -4.3034  -4.2757
    -3.8186  -3.8081  -3.7824  -3.7477  -3.7297  -3.6926  -3.6884  -3.6565
    -3.5518  -3.5181  -3.5052  -3.4971  -3.4713  -3.4627  -3.3860  -3.3582
    -3.3282  -3.3020  -3.1039  -3.0938  -2.9904  -2.9830  -2.9502  -2.9063
    -2.6778  -2.6653  -2.6614  -2.6212  -2.6182  -2.5965  -2.4850  -2.4831
    -2.1889  -2.1740  -2.1238  -2.0983  -1.9551  -1.9484  -1.9081  -1.8630
    -1.8425  -1.7705  -1.7377  -1.7093  -1.6474  -1.5323  -1.4692  -1.4359
    -1.0994  -1.0956  -1.0019  -0.9868  -0.9227  -0.9033  -0.7512  -0.7205
    -0.4331  -0.4262  -0.4236  -0.4132  -0.4126  -0.4016  -0.3468  -0.3299
    -0.1684  -0.1652  -0.1137  -0.1055  -0.0712  -0.0611  -0.0484   0.0375
     0.0380   0.0493   0.1453   0.1987   0.3192   0.3269   0.3306   0.3774
     0.4050   0.4058   0.4560   0.4609   0.4718   0.4837   0.4931   0.5061
     0.5133   0.5435   0.5563   0.5711   0.5850   0.6254   0.6843   0.7155
     0.9265   0.9280   1.3942   1.4389   1.9168   1.9182   2.0383   2.0405
     3.5523   3.5583   3.5860   3.5948   3.7592   3.7750   3.8394   3.8582
     4.8278   4.8288   4.8542   4.9061   5.1022   5.1486   5.1827   5.2049
     5.9459   5.9839   6.1065   6.1270   6.3271   6.3361   6.3390   6.3621
     6.9656   7.0035   7.0537   7.1219   7.3431   7.5744   7.8436   7.8936
     7.9124   7.9626   7.9730   8.2880   8.3799   8.3878   8.6963   8.8665
     8.9569   8.9885   9.1095   9.2612   9.3284   9.4035   9.4059   9.4988

          k = 0.0000-0.4076 0.0000 (148648 PWs)   bands (ev):

   -23.6031 -23.6027 -23.6022 -23.6017 -23.4624 -23.4624 -23.4620 -23.4620
   -21.0110 -21.0103 -20.9970 -20.9962 -19.1479 -19.1475 -19.1440 -19.1436
   -19.0301 -19.0300 -19.0296 -19.0296 -18.8281 -18.8248 -18.8181 -18.8148
   -16.6313 -16.6306 -16.5108 -16.5102 -16.0840 -16.0832 -15.9596 -15.9590
   -14.7698 -14.7688 -14.7296 -14.7287 -14.4277 -14.4268 -14.4074 -14.4065
   -13.2560 -13.2551 -13.2321 -13.2314 -12.7203 -12.7195 -12.6906 -12.6898
   -11.9109 -11.9099 -11.8160 -11.8151 -11.2416 -11.2407 -11.2058 -11.2050
   -11.0066 -11.0059 -10.9391 -10.9383 -10.5035 -10.5026 -10.4862 -10.4852
    -9.3714  -9.3711  -9.3560  -9.3557  -8.7597  -8.7593  -8.7349  -8.7344
    -8.0773  -8.0773  -8.0693  -8.0689  -7.9628  -7.9618  -7.8887  -7.8876
    -7.5169  -7.5164  -7.5128  -7.5120  -7.1053  -7.1044  -6.9150  -6.9144
    -6.5322  -6.5318  -6.5036  -6.5034  -6.3348  -6.3345  -6.2896  -6.2894
    -6.1675  -6.1668  -6.1057  -6.1051  -6.0015  -6.0012  -5.9122  -5.9121
    -5.8598  -5.8598  -5.7580  -5.7576  -5.7115  -5.7114  -5.6785  -5.6784
    -5.5117  -5.5116  -5.4689  -5.4688  -5.2600  -5.2593  -5.1972  -5.1971
    -5.0902  -5.0894  -5.0541  -5.0539  -5.0260  -5.0257  -4.6867  -4.6861
    -4.6734  -4.6728  -4.5813  -4.5807  -4.3544  -4.3536  -4.2848  -4.2841
    -3.8178  -3.8173  -3.7615  -3.7608  -3.6758  -3.6753  -3.6367  -3.6361
    -3.5640  -3.5633  -3.4935  -3.4926  -3.4505  -3.4499  -3.4354  -3.4348
    -3.3330  -3.3317  -3.1458  -3.1456  -2.9711  -2.9702  -2.9493  -2.9487
    -2.6615  -2.6614  -2.6267  -2.6265  -2.6170  -2.6162  -2.5174  -2.5168
    -2.1590  -2.1587  -2.1379  -2.1375  -1.9803  -1.9800  -1.8720  -1.8710
    -1.7807  -1.7806  -1.7258  -1.7250  -1.6019  -1.6008  -1.4956  -1.4951
    -1.1177  -1.1167  -0.9925  -0.9914  -0.8103  -0.8100  -0.6630  -0.6627
    -0.5079  -0.5074  -0.4804  -0.4800  -0.3831  -0.3830  -0.3696  -0.3694
    -0.1520  -0.1517  -0.1199  -0.1198  -0.0597  -0.0594   0.0123   0.0125
     0.0391   0.0391   0.1729   0.1733   0.2914   0.2921   0.4015   0.4018
     0.4178   0.4187   0.4548   0.4548   0.5067   0.5068   0.5075   0.5076
     0.5424   0.5427   0.5937   0.5937   0.6153   0.6154   0.6718   0.6719
     0.9279   0.9291   1.4118   1.4126   1.9258   1.9266   2.0400   2.0411
     3.4316   3.4320   3.5237   3.5239   3.7565   3.7571   3.8322   3.8328
     4.8713   4.8721   4.9132   4.9138   5.2530   5.2540   5.2878   5.2887
     5.9072   5.9078   6.1070   6.1078   6.3169   6.3177   6.3302   6.3315
     7.0087   7.0096   7.1645   7.1657   7.5709   7.5714   7.8549   7.8557
     7.9005   7.9017   8.0275   8.0278   8.5236   8.5237   8.6420   8.6427
     8.8276   8.8279   9.0736   9.0741   9.1167   9.1169   9.4548   9.4550

          k = 0.3333 0.0000 0.0002 (148649 PWs)   bands (ev):

   -23.6028 -23.6023 -23.6016 -23.6010 -23.4637 -23.4637 -23.4617 -23.4617
   -21.0086 -21.0078 -20.9990 -20.9983 -19.1484 -19.1479 -19.1443 -19.1438
   -19.0313 -19.0313 -19.0282 -19.0282 -18.8257 -18.8224 -18.8200 -18.8167
   -16.6221 -16.6213 -16.5211 -16.5205 -16.0670 -16.0623 -15.9800 -15.9758
   -14.7571 -14.7504 -14.7443 -14.7397 -14.4444 -14.4325 -14.4197 -14.4084
   -13.2472 -13.2442 -13.2199 -13.2190 -12.7350 -12.7134 -12.6898 -12.6836
   -11.8992 -11.8899 -11.8557 -11.8288 -11.2375 -11.2362 -11.2097 -11.2088
   -10.9922 -10.9878 -10.9720 -10.9683 -10.5188 -10.5092 -10.4844 -10.4745
    -9.3778  -9.3726  -9.3494  -9.3448  -8.7371  -8.7294  -8.7257  -8.7220
    -8.1323  -8.1281  -8.0647  -8.0636  -7.9368  -7.9271  -7.8930  -7.8898
    -7.5572  -7.5435  -7.5038  -7.4824  -7.0822  -7.0646  -6.8787  -6.8734
    -6.5628  -6.5470  -6.5108  -6.5000  -6.3932  -6.3628  -6.2706  -6.2503
    -6.1190  -6.1172  -6.0842  -6.0624  -6.0262  -6.0070  -5.9283  -5.9250
    -5.8918  -5.8829  -5.8419  -5.8244  -5.6916  -5.6859  -5.6006  -5.5804
    -5.5362  -5.5228  -5.4542  -5.4532  -5.3517  -5.3069  -5.1838  -5.1657
    -5.0989  -5.0724  -4.9733  -4.9589  -4.9479  -4.9456  -4.7546  -4.7356
    -4.6924  -4.6756  -4.6001  -4.5922  -4.3394  -4.3252  -4.2914  -4.2768
    -3.8197  -3.8174  -3.7860  -3.7727  -3.6959  -3.6940  -3.6734  -3.6431
    -3.5425  -3.5206  -3.5028  -3.4994  -3.4692  -3.4613  -3.3689  -3.3558
    -3.2554  -3.2404  -3.1065  -3.1047  -3.0055  -2.9906  -2.9558  -2.9223
    -2.6601  -2.6350  -2.6282  -2.6177  -2.6116  -2.5919  -2.4934  -2.4856
    -2.2756  -2.2617  -2.1775  -2.1696  -2.1115  -2.0822  -1.9740  -1.9694
    -1.9097  -1.9005  -1.7646  -1.7241  -1.6263  -1.5708  -1.4619  -1.4490
    -1.1112  -1.1106  -1.0009  -1.0000  -0.8821  -0.8652  -0.7550  -0.7375
    -0.4353  -0.4343  -0.4210  -0.4207  -0.3628  -0.3553  -0.3013  -0.2980
    -0.1633  -0.1544  -0.0963  -0.0764  -0.0660  -0.0620  -0.0112   0.0003
     0.0313   0.0698   0.1661   0.1694   0.2585   0.2726   0.2928   0.3031
     0.3741   0.3810   0.4270   0.4300   0.4704   0.4719   0.4935   0.4956
     0.5250   0.5298   0.5530   0.5556   0.5997   0.6608   0.6759   0.7146
     0.9854   1.0133   1.3207   1.3560   1.9614   1.9631   2.0147   2.0162
     3.5535   3.5680   3.5848   3.5970   3.7784   3.7808   3.8703   3.8787
     4.7315   4.7546   4.9839   5.0153   5.1033   5.1393   5.1781   5.1987
     6.0133   6.0437   6.1240   6.1441   6.2995   6.3049   6.3657   6.3761
     6.8709   6.8733   7.1752   7.1899   7.6289   7.7763   7.8234   7.8481
     7.9801   7.9873   8.2221   8.2965   8.4209   8.7011   8.8308   8.8947
     9.0273   9.1227   9.1352   9.2764   9.4360   9.4648   9.5269   9.6437

          k = 0.3333-0.4076 0.0002 (148756 PWs)   bands (ev):

   -23.6026 -23.6021 -23.6017 -23.6012 -23.4629 -23.4629 -23.4625 -23.4625
   -21.0086 -21.0079 -20.9991 -20.9984 -19.1481 -19.1477 -19.1443 -19.1439
   -19.0299 -19.0299 -19.0295 -19.0295 -18.8259 -18.8226 -18.8202 -18.8169
   -16.6244 -16.6237 -16.5178 -16.5172 -16.0699 -16.0692 -15.9744 -15.9738
   -14.7601 -14.7592 -14.7257 -14.7248 -14.4366 -14.4356 -14.4199 -14.4190
   -13.2669 -13.2661 -13.2193 -13.2184 -12.7231 -12.7223 -12.6867 -12.6858
   -11.8877 -11.8868 -11.8403 -11.8393 -11.2529 -11.2520 -11.2299 -11.2292
   -10.9862 -10.9854 -10.9271 -10.9263 -10.5041 -10.5031 -10.4829 -10.4820
    -9.3692  -9.3686  -9.3589  -9.3583  -8.7730  -8.7720  -8.7191  -8.7183
    -8.0874  -8.0866  -8.0570  -8.0564  -7.9521  -7.9511  -7.9097  -7.9086
    -7.5344  -7.5337  -7.4911  -7.4904  -7.0853  -7.0845  -6.9322  -6.9316
    -6.5517  -6.5510  -6.5241  -6.5235  -6.3407  -6.3402  -6.2440  -6.2437
    -6.1122  -6.1115  -6.0839  -6.0834  -5.9833  -5.9832  -5.9311  -5.9310
    -5.8456  -5.8452  -5.7786  -5.7781  -5.7598  -5.7596  -5.7134  -5.7131
    -5.4837  -5.4833  -5.4630  -5.4626  -5.2436  -5.2429  -5.2123  -5.2118
    -5.0494  -5.0488  -5.0225  -5.0220  -4.9360  -4.9352  -4.7181  -4.7173
    -4.6491  -4.6482  -4.5920  -4.5912  -4.3314  -4.3306  -4.2945  -4.2938
    -3.8138  -3.8132  -3.7765  -3.7758  -3.6700  -3.6694  -3.6413  -3.6406
    -3.5594  -3.5586  -3.4811  -3.4803  -3.4527  -3.4521  -3.4361  -3.4355
    -3.2484  -3.2474  -3.1231  -3.1225  -2.9817  -2.9806  -2.9437  -2.9427
    -2.6675  -2.6672  -2.6417  -2.6411  -2.6020  -2.6016  -2.5022  -2.5016
    -2.2605  -2.2602  -2.1602  -2.1600  -2.1371  -2.1367  -1.9849  -1.9845
    -1.8510  -1.8500  -1.7453  -1.7446  -1.6129  -1.6116  -1.5013  -1.5005
    -1.1255  -1.1251  -1.0127  -1.0120  -0.7622  -0.7619  -0.6698  -0.6693
    -0.5257  -0.5252  -0.5063  -0.5058  -0.3477  -0.3473  -0.3340  -0.3336
    -0.1440  -0.1436  -0.1066  -0.1064  -0.0479  -0.0475   0.0077   0.0078
     0.0520   0.0523   0.1659   0.1665   0.2614   0.2620   0.3299   0.3306
     0.3976   0.3981   0.4225   0.4233   0.4926   0.4928   0.5126   0.5128
     0.5379   0.5383   0.5527   0.5531   0.6469   0.6471   0.6786   0.6788
     1.0085   1.0094   1.3354   1.3362   1.9807   1.9812   2.0374   2.0381
     3.4597   3.4601   3.5654   3.5657   3.7192   3.7196   3.8426   3.8433
     4.7700   4.7709   5.0171   5.0179   5.2274   5.2290   5.2691   5.2707
     5.9892   5.9899   6.1383   6.1395   6.2871   6.2876   6.3550   6.3563
     6.9662   6.9669   7.2196   7.2207   7.7189   7.7192   7.7969   7.7976
     7.9349   7.9362   8.3073   8.3075   8.5388   8.5397   8.8141   8.8144
     9.0661   9.0667   9.2113   9.2120   9.4324   9.4328   9.4545   9.4546

     highest occupied, lowest unoccupied level (ev):     2.0411    3.4316

!    total energy              =   -2520.43768408 Ry
     Harris-Foulkes estimate   =   -2520.43768408 Ry
     estimated scf accuracy    <          8.3E-09 Ry

     total all-electron energy =     -9668.333460 Ry

     The total energy is the sum of the following terms:

     one-electron contribution =   -1244.02799729 Ry
     hartree contribution      =     819.42649221 Ry
     xc contribution           =    -517.71748491 Ry
     ewald contribution        =    -843.85510021 Ry
     Dispersion Correction     =      -0.66224236 Ry
     one-center paw contrib.   =    -733.60135153 Ry

     convergence has been achieved in  18 iterations

     Forces acting on atoms (cartesian axes, Ry/au):

     atom    1 type  4   force =    -0.00016429    0.00028479    0.00077330
     atom    2 type  4   force =     0.00014455    0.00026900   -0.00081143
     atom    3 type  4   force =     0.00016429   -0.00028479   -0.00077330
     atom    4 type  4   force =    -0.00014455   -0.00026900    0.00081143
     atom    5 type  4   force =    -0.00246004   -0.00032310   -0.00043655
     atom    6 type  4   force =     0.00245094   -0.00032161    0.00041869
     atom    7 type  4   force =     0.00246004    0.00032310    0.00043655
     atom    8 type  4   force =    -0.00245094    0.00032161   -0.00041869
     atom    9 type  4   force =    -0.00099168   -0.00116391   -0.00219988
     atom   10 type  4   force =     0.00101538   -0.00113064    0.00215077
     atom   11 type  4   force =     0.00099168    0.00116391    0.00219988
     atom   12 type  4   force =    -0.00101538    0.00113064   -0.00215077
     atom   13 type  4   force =     0.00161928    0.00124780   -0.00116626
     atom   14 type  4   force =    -0.00145516    0.00173953    0.00179777
     atom   15 type  4   force =    -0.00161928   -0.00124780    0.00116626
     atom   16 type  4   force =     0.00145516   -0.00173953   -0.00179777
     atom   17 type  4   force =     0.00028417   -0.00091722    0.00111531
     atom   18 type  4   force =    -0.00028075   -0.00088257   -0.00104487
     atom   19 type  4   force =    -0.00028417    0.00091722   -0.00111531
     atom   20 type  4   force =     0.00028075    0.00088257    0.00104487
     atom   21 type  4   force =    -0.00083692   -0.00066115   -0.00075119
     atom   22 type  4   force =     0.00082028   -0.00066537    0.00079639
     atom   23 type  4   force =     0.00083692    0.00066115    0.00075119
     atom   24 type  4   force =    -0.00082028    0.00066537   -0.00079639
     atom   25 type  2   force =     0.00244574   -0.00269923   -0.00311158
     atom   26 type  2   force =    -0.00242619   -0.00270419    0.00316313
     atom   27 type  2   force =    -0.00244574    0.00269923    0.00311158
     atom   28 type  2   force =     0.00242619    0.00270419   -0.00316313
     atom   29 type  2   force =     0.00156193    0.00187771   -0.00110204
     atom   30 type  2   force =    -0.00156380    0.00185273    0.00109222
     atom   31 type  2   force =    -0.00156193   -0.00187771    0.00110204
     atom   32 type  2   force =     0.00156380   -0.00185273   -0.00109222
     atom   33 type  3   force =    -0.00041538    0.00000473    0.00068372
     atom   34 type  3   force =     0.00040698   -0.00000121   -0.00067719
     atom   35 type  3   force =     0.00041538   -0.00000473   -0.00068372
     atom   36 type  3   force =    -0.00040698    0.00000121    0.00067719
     atom   37 type  3   force =    -0.00031926    0.00043359   -0.00089119
     atom   38 type  3   force =     0.00030997    0.00044638    0.00089786
     atom   39 type  3   force =     0.00031926   -0.00043359    0.00089119
     atom   40 type  3   force =    -0.00030997   -0.00044638   -0.00089786
     atom   41 type  2   force =    -0.00020343    0.00112538   -0.00199907
     atom   42 type  2   force =     0.00019726    0.00112700    0.00197493
     atom   43 type  2   force =     0.00020343   -0.00112538    0.00199907
     atom   44 type  2   force =    -0.00019726   -0.00112700   -0.00197493
     atom   45 type  2   force =    -0.00121368    0.00183686   -0.00081472
     atom   46 type  2   force =     0.00121341    0.00182734    0.00070571
     atom   47 type  2   force =     0.00121368   -0.00183686    0.00081472
     atom   48 type  2   force =    -0.00121341   -0.00182734   -0.00070571
     atom   49 type  1   force =     0.00094329    0.00002803   -0.00022094
     atom   50 type  1   force =    -0.00094668    0.00007012    0.00022168
     atom   51 type  1   force =    -0.00094329   -0.00002803    0.00022094
     atom   52 type  1   force =     0.00094668   -0.00007012   -0.00022168
     atom   53 type  1   force =    -0.00117567    0.00300033   -0.00262580
     atom   54 type  1   force =     0.00116869    0.00313867    0.00267196
     atom   55 type  1   force =     0.00117567   -0.00300033    0.00262580
     atom   56 type  1   force =    -0.00116869   -0.00313867   -0.00267196
     atom   57 type  3   force =     0.00064641    0.00032055    0.00032205
     atom   58 type  3   force =    -0.00066290    0.00031308   -0.00034151
     atom   59 type  3   force =    -0.00064641   -0.00032055   -0.00032205
     atom   60 type  3   force =     0.00066290   -0.00031308    0.00034151
     atom   61 type  1   force =     0.00265082    0.00016725   -0.00194841
     atom   62 type  1   force =    -0.00263724    0.00015397    0.00193907
     atom   63 type  1   force =    -0.00265082   -0.00016725    0.00194841
     atom   64 type  1   force =     0.00263724   -0.00015397   -0.00193907
     atom   65 type  1   force =    -0.00211941   -0.00006110   -0.00056448
     atom   66 type  1   force =     0.00210941    0.00005213    0.00053507
     atom   67 type  1   force =     0.00211941    0.00006110    0.00056448
     atom   68 type  1   force =    -0.00210941   -0.00005213   -0.00053507
     atom   69 type  1   force =    -0.00111755   -0.00017552    0.00097411
     atom   70 type  1   force =     0.00113478   -0.00021739   -0.00095318
     atom   71 type  1   force =     0.00111755    0.00017552   -0.00097411
     atom   72 type  1   force =    -0.00113478    0.00021739    0.00095318
     atom   73 type  3   force =     0.00043576    0.00034961   -0.00009456
     atom   74 type  3   force =    -0.00043345    0.00034650    0.00007681
     atom   75 type  3   force =    -0.00043576   -0.00034961    0.00009456
     atom   76 type  3   force =     0.00043345   -0.00034650   -0.00007681
     atom   77 type  1   force =     0.00067804   -0.00087347   -0.00185766
     atom   78 type  1   force =    -0.00067192   -0.00082005    0.00183777
     atom   79 type  1   force =    -0.00067804    0.00087347    0.00185766
     atom   80 type  1   force =     0.00067192    0.00082005   -0.00183777
     atom   81 type  3   force =     0.00067308    0.00036664    0.00023036
     atom   82 type  3   force =    -0.00067913    0.00037546   -0.00023904
     atom   83 type  3   force =    -0.00067308   -0.00036664   -0.00023036
     atom   84 type  3   force =     0.00067913   -0.00037546    0.00023904
     atom   85 type  1   force =     0.00162009   -0.00118363    0.00305874
     atom   86 type  1   force =    -0.00161730   -0.00119734   -0.00297904
     atom   87 type  1   force =    -0.00162009    0.00118363   -0.00305874
     atom   88 type  1   force =     0.00161730    0.00119734    0.00297904
     atom   89 type  1   force =     0.00132619   -0.00162205    0.00151668
     atom   90 type  1   force =    -0.00152461   -0.00232531   -0.00216894
     atom   91 type  1   force =    -0.00132619    0.00162205   -0.00151668
     atom   92 type  1   force =     0.00152461    0.00232531    0.00216894
     atom   93 type  1   force =     0.00000263    0.00114659   -0.00039368
     atom   94 type  1   force =     0.00001462    0.00108489    0.00042617
     atom   95 type  1   force =    -0.00000263   -0.00114659    0.00039368
     atom   96 type  1   force =    -0.00001462   -0.00108489   -0.00042617
     atom   97 type  1   force =     0.00315388   -0.00197718   -0.00011383
     atom   98 type  1   force =    -0.00315051   -0.00183650    0.00013370
     atom   99 type  1   force =    -0.00315388    0.00197718    0.00011383
     atom  100 type  1   force =     0.00315051    0.00183650   -0.00013370
     atom  101 type  1   force =     0.00003992    0.00641880   -0.00043574
     atom  102 type  1   force =    -0.00004745    0.00639026    0.00042592
     atom  103 type  1   force =    -0.00003992   -0.00641880    0.00043574
     atom  104 type  1   force =     0.00004745   -0.00639026   -0.00042592
     atom  105 type  3   force =     0.00056715   -0.00004727    0.00080240
     atom  106 type  3   force =    -0.00058485   -0.00004715   -0.00079734
     atom  107 type  3   force =    -0.00056715    0.00004727   -0.00080240
     atom  108 type  3   force =     0.00058485    0.00004715    0.00079734
     atom  109 type  1   force =     0.00017230    0.00153907   -0.00340687
     atom  110 type  1   force =    -0.00018945    0.00169556    0.00345035
     atom  111 type  1   force =    -0.00017230   -0.00153907    0.00340687
     atom  112 type  1   force =     0.00018945   -0.00169556   -0.00345035
     atom  113 type  1   force =    -0.00095939   -0.00131836   -0.00077186
     atom  114 type  1   force =     0.00095555   -0.00143808    0.00075084
     atom  115 type  1   force =     0.00095939    0.00131836    0.00077186
     atom  116 type  1   force =    -0.00095555    0.00143808   -0.00075084
     atom  117 type  3   force =     0.00035260    0.00048415    0.00004394
     atom  118 type  3   force =    -0.00035734    0.00049361   -0.00004263
     atom  119 type  3   force =    -0.00035260   -0.00048415   -0.00004394
     atom  120 type  3   force =     0.00035734   -0.00049361    0.00004263
     atom  121 type  1   force =    -0.00060635   -0.00042231   -0.00039052
     atom  122 type  1   force =     0.00059622   -0.00033322    0.00036813
     atom  123 type  1   force =     0.00060635    0.00042231    0.00039052
     atom  124 type  1   force =    -0.00059622    0.00033322   -0.00036813
     atom  125 type  3   force =     0.00019951    0.00039786    0.00054123
     atom  126 type  3   force =    -0.00020363    0.00040878   -0.00053260
     atom  127 type  3   force =    -0.00019951   -0.00039786   -0.00054123
     atom  128 type  3   force =     0.00020363   -0.00040878    0.00053260

     Total force =     0.028943     Total SCF correction =     0.000152


     Computing stress (Cartesian axis) and pressure

          total   stress  (Ry/bohr**3)                   (kbar)     P=    1.47
  -0.00001419  -0.00000009  -0.00000482         -2.09     -0.01     -0.71
  -0.00000009   0.00002826  -0.00000004         -0.01      4.16     -0.01
  -0.00000482  -0.00000004   0.00001595         -0.71     -0.01      2.35


     Writing output data file scf.save
 
     init_run     :     72.91s CPU     75.02s WALL (       1 calls)
     electrons    :   2617.46s CPU   2692.88s WALL (       1 calls)
     forces       :     39.00s CPU     39.39s WALL (       1 calls)
     stress       :    186.45s CPU    186.94s WALL (       1 calls)

     Called by init_run:
     wfcinit      :     57.85s CPU     59.76s WALL (       1 calls)
     potinit      :      5.36s CPU      5.39s WALL (       1 calls)

     Called by electrons:
     c_bands      :   2361.00s CPU   2423.89s WALL (      18 calls)
     sum_band     :    233.44s CPU    243.56s WALL (      18 calls)
     v_of_rho     :      3.44s CPU      3.72s WALL (      19 calls)
     newd         :      9.38s CPU     11.52s WALL (      19 calls)
     PAW_pot      :      9.50s CPU      9.51s WALL (      19 calls)
     mix_rho      :      0.87s CPU      0.95s WALL (      18 calls)

     Called by c_bands:
     init_us_2    :      9.27s CPU      9.34s WALL (     156 calls)
     cegterg      :   2320.64s CPU   2383.40s WALL (      72 calls)

     Called by sum_band:
     sum_band:bec :      0.14s CPU      0.14s WALL (      72 calls)
     addusdens    :      9.68s CPU     11.65s WALL (      18 calls)

     Called by *egterg:
     h_psi        :   1155.94s CPU   1203.78s WALL (     371 calls)
     s_psi        :    314.91s CPU    315.01s WALL (     371 calls)
     g_psi        :      4.28s CPU      4.28s WALL (     295 calls)
     cdiaghg      :    155.46s CPU    155.49s WALL (     367 calls)

     Called by h_psi:
     h_psi:pot    :   1149.41s CPU   1197.16s WALL (     371 calls)
     h_psi:calbec :    306.18s CPU    306.64s WALL (     371 calls)
     vloc_psi     :    528.85s CPU    576.06s WALL (     371 calls)
     add_vuspsi   :    314.38s CPU    314.45s WALL (     371 calls)

     General routines
     calbec       :    458.42s CPU    459.10s WALL (     463 calls)
     fft          :      7.76s CPU      8.26s WALL (     271 calls)
     fftw         :    550.75s CPU    605.53s WALL (  134662 calls)
 
     Parallel routines
     fft_scatter  :    109.86s CPU    162.42s WALL (  134933 calls)
 
     PWSCF        : 48m47.74s CPU    50m38.51s WALL

 
   This run was terminated on:   0:18: 4  21Dec2017            

=------------------------------------------------------------------------------=
   JOB DONE.
=------------------------------------------------------------------------------=
