
     Program PWSCF v.6.1 (svn rev. 13369) starts on  7Dec2017 at  5:30:27 

     This program is part of the open-source Quantum ESPRESSO suite
     for quantum simulation of materials; please cite
         "P. Giannozzi et al., J. Phys.:Condens. Matter 21 395502 (2009);
          URL http://www.quantum-espresso.org", 
     in publications or presentations arising from this work. More details at
     http://www.quantum-espresso.org/quote

     Parallel version (MPI), running on     8 processors
     R & G space division:  proc/nbgrp/npool/nimage =       8
     Waiting for input...
     Reading input from standard input

     Current dimensions of program PWSCF are:
     Max number of different atomic species (ntypx) = 10
     Max number of k-points (npk) =  40000
     Max angular momentum in pseudopotentials (lmaxx) =  3
               file C.pbe-n-kjpaw_psl.0.1.UPF: wavefunction(s)  2P renormalized
               file N.pbe-n-kjpaw_psl.0.1.UPF: wavefunction(s)  2P renormalized
               file H.pbe-kjpaw_psl.0.1.UPF: wavefunction(s)  1S renormalized
               file O.pbe-n-kjpaw_psl.0.1.UPF: wavefunction(s)  2P renormalized

     -------------------------------------
     Parameters for Dispersion Correction:
     -------------------------------------
       atom      VdW radius       C_6     

        C          2.744         60.710
        N          2.640         42.670
        H          1.892          4.857
        O          2.536         24.284

     Subspace diagonalization in iterative solution of the eigenvalue problem:
     a serial algorithm will be used

 
     Parallelization info
     --------------------
     sticks:   dense  smooth     PW     G-vecs:    dense   smooth      PW
     Min         782     782    209                57288    57288    7965
     Max         783     783    210                57290    57290    7967
     Sum        6263    6263   1675               458313   458313   63729
 


     bravais-lattice index     =            0
     lattice parameter (alat)  =      12.6032  a.u.
     unit-cell volume          =    3393.5974 (a.u.)^3
     number of atoms/cell      =           56
     number of atomic types    =            4
     number of electrons       =       168.00
     number of Kohn-Sham states=          100
     kinetic-energy cutoff     =     100.0000  Ry
     charge density cutoff     =     400.0000  Ry
     convergence threshold     =      1.0E-08
     mixing beta               =       0.5000
     number of iterations used =            8  plain     mixing
     Exchange-correlation      =  SLA  PW   PBX  PBC ( 1  4  3  4 0 0)

     celldm(1)=  12.603150  celldm(2)=   0.000000  celldm(3)=   0.000000
     celldm(4)=   0.000000  celldm(5)=   0.000000  celldm(6)=   0.000000

     crystal axes: (cart. coord. in units of alat)
               a(1) = (   1.000000   0.000000   0.000000 )  
               a(2) = (   0.469843   1.239345   0.000000 )  
               a(3) = (   0.248504   0.152521   1.367825 )  

     reciprocal axes: (cart. coord. in units 2 pi/alat)
               b(1) = (  1.000000 -0.379106 -0.139405 )  
               b(2) = (  0.000000  0.806878 -0.089972 )  
               b(3) = (  0.000000  0.000000  0.731087 )  


     PseudoPot. # 1 for  C read from file:
     /scratch/ahofstet/pseudo/C.pbe-n-kjpaw_psl.0.1.UPF
     MD5 check sum: 430fe95172b1e11ef3f8ed03bac87931
     Pseudo is Projector augmented-wave + core cor, Zval =  4.0
     Generated using "atomic" code by A. Dal Corso  v.5.0.99 svn rev. 10869
     Shape of augmentation charge: BESSEL
     Using radial grid of 1073 points,  4 beta functions with: 
                l(1) =   0
                l(2) =   0
                l(3) =   1
                l(4) =   1
     Q(r) pseudized with 0 coefficients 


     PseudoPot. # 2 for  N read from file:
     /scratch/ahofstet/pseudo/N.pbe-n-kjpaw_psl.0.1.UPF
     MD5 check sum: f73187c8b701007e77325f868c9291d7
     Pseudo is Projector augmented-wave + core cor, Zval =  5.0
     Generated using "atomic" code by A. Dal Corso  v.5.0.99 svn rev. 10869
     Shape of augmentation charge: PSQ
     Using radial grid of 1085 points,  4 beta functions with: 
                l(1) =   0
                l(2) =   0
                l(3) =   1
                l(4) =   1
     Q(r) pseudized with 0 coefficients 


     PseudoPot. # 3 for  H read from file:
     /scratch/ahofstet/pseudo/H.pbe-kjpaw_psl.0.1.UPF
     MD5 check sum: 94e484f906d9e9773b2f6e52662335b2
     Pseudo is Projector augmented-wave, Zval =  1.0
     Generated using "atomic" code by A. Dal Corso  v.5.0.99 svn rev. 10869
     Shape of augmentation charge: PSQ
     Using radial grid of  929 points,  2 beta functions with: 
                l(1) =   0
                l(2) =   0
     Q(r) pseudized with 0 coefficients 


     PseudoPot. # 4 for  O read from file:
     /scratch/ahofstet/pseudo/O.pbe-n-kjpaw_psl.0.1.UPF
     MD5 check sum: 3f94a2996a3169367d6eb21d9b593f20
     Pseudo is Projector augmented-wave + core cor, Zval =  6.0
     Generated using "atomic" code by A. Dal Corso  v.5.0.99 svn rev. 10869
     Shape of augmentation charge: BESSEL
     Using radial grid of 1095 points,  4 beta functions with: 
                l(1) =   0
                l(2) =   0
                l(3) =   1
                l(4) =   1
     Q(r) pseudized with 0 coefficients 


     atomic species   valence    mass     pseudopotential
        C              4.00    12.01070      C( 1.00)
        N              5.00    14.00670      N( 1.00)
        H              1.00     1.00794      H( 1.00)
        O              6.00    15.99940      O( 1.00)

      2 Sym. Ops., with inversion, found



   Cartesian axes

     site n.     atom                  positions (alat units)
         1           N   tau(   1) = (   0.9176585   1.1502563   0.9950421  )
         2           N   tau(   2) = (   0.8006882   0.2416103   0.3727833  )
         3           H   tau(   3) = (   1.0431619   1.2021167   0.9169420  )
         4           H   tau(   4) = (   0.6751848   0.1897499   0.4508834  )
         5           H   tau(   5) = (   0.8923444   0.9989896   0.9587299  )
         6           H   tau(   6) = (   0.8260023   0.3928770   0.4090955  )
         7           H   tau(   7) = (   0.7901499   1.2336155   0.9555911  )
         8           H   tau(   8) = (   0.9281968   0.1582511   0.4122343  )
         9           N   tau(   9) = (   0.9482514   0.5572068   0.9282794  )
        10           N   tau(  10) = (   0.7700953   0.8346598   0.4395460  )
        11           H   tau(  11) = (   1.1022426   0.5738520   0.9352743  )
        12           H   tau(  12) = (   0.6161041   0.8180146   0.4325510  )
        13           N   tau(  13) = (   0.8340565   0.7208384   0.9248888  )
        14           N   tau(  14) = (   0.8842902   0.6710282   0.4429366  )
        15           O   tau(  15) = (   1.2992295   0.7442768   0.9155216  )
        16           O   tau(  16) = (   0.4191172   0.6475899   0.4523038  )
        17           O   tau(  17) = (   0.5335092   0.9768373   0.8404959  )
        18           O   tau(  18) = (   1.1848376   0.4150293   0.5273295  )
        19           H   tau(  19) = (   1.4223222   1.0887954   0.8464367  )
        20           H   tau(  20) = (   0.2960245   0.3030713   0.5213887  )
        21           O   tau(  21) = (   1.3002851   1.2747428   0.8575062  )
        22           O   tau(  22) = (   0.4180616   0.1171238   0.5103192  )
        23           O   tau(  23) = (   1.1245357   0.1802419   0.9486346  )
        24           O   tau(  24) = (   0.5938111   1.2116248   0.4191908  )
        25           C   tau(  25) = (   1.1239063   1.0265694   1.2756467  )
        26           C   tau(  26) = (   0.5944404   0.3652972   0.0921787  )
        27           H   tau(  27) = (   1.2543240   1.0428000   1.1777522  )
        28           H   tau(  28) = (   0.4640227   0.3490666   0.1900732  )
        29           H   tau(  29) = (   0.9211786   0.9005032   0.0637434  )
        30           H   tau(  30) = (   0.7971681   0.4913635   1.3040820  )
        31           H   tau(  31) = (   1.0709097   0.8711560   1.2628250  )
        32           H   tau(  32) = (   0.6474371   0.5207106   0.1050004  )
        33           C   tau(  33) = (   0.9567823   1.1709298   1.2164198  )
        34           C   tau(  34) = (   0.7615644   0.2209368   0.1514055  )
        35           H   tau(  35) = (   1.0063492   1.3270598   1.2375773  )
        36           H   tau(  36) = (   0.7119975   0.0648068   0.1302481  )
        37           C   tau(  37) = (   0.7637154   1.1355341   1.3324411  )
        38           C   tau(  38) = (   0.9546313   0.2563325   0.0353843  )
        39           H   tau(  39) = (   0.5414238   1.0093267   0.1249660  )
        40           H   tau(  40) = (   1.1769230   0.3825399   1.2428594  )
        41           H   tau(  41) = (   0.7126326   0.9796625   1.3128987  )
        42           H   tau(  42) = (   1.0057141   0.4122041   0.0549266  )
        43           H   tau(  43) = (   0.6455811   1.2376079   1.2812354  )
        44           H   tau(  44) = (   1.0727656   0.1542587   0.0865900  )
        45           C   tau(  45) = (   0.6442537   0.6523453   0.9015913  )
        46           C   tau(  46) = (   1.0740930   0.7395213   0.4662341  )
        47           C   tau(  47) = (   0.6409961   0.4416302   0.8867615  )
        48           C   tau(  48) = (   1.0773507   0.9502365   0.4810639  )
        49           H   tau(  49) = (   0.5109448   0.3469247   0.8632070  )
        50           H   tau(  50) = (   1.2074019   1.0449419   0.5046184  )
        51           C   tau(  51) = (   0.8413438   0.3850361   0.9029557  )
        52           C   tau(  52) = (   0.8770029   1.0068305   0.4648697  )
        53           C   tau(  53) = (   0.4752277   0.7938572   0.8870875  )
        54           C   tau(  54) = (   1.2431190   0.5980094   0.4807378  )
        55           C   tau(  55) = (   0.9423070   0.1865140   0.9027740  )
        56           C   tau(  56) = (   0.7760397   1.2053526   0.4650514  )

     number of k points=     8
                       cart. coord. in units 2pi/alat
        k(    1) = (   0.0000000   0.0000000   0.0000000), wk =   0.1666667
        k(    2) = (   0.0000000   0.0000000  -0.3655437), wk =   0.1666667
        k(    3) = (   0.0000000  -0.4034388   0.0449860), wk =   0.1666667
        k(    4) = (   0.0000000  -0.4034388  -0.3205577), wk =   0.1666667
        k(    5) = (   0.3333333  -0.1263685  -0.0464685), wk =   0.3333333
        k(    6) = (   0.3333333  -0.1263685  -0.4120122), wk =   0.3333333
        k(    7) = (   0.3333333  -0.5298074  -0.0014824), wk =   0.3333333
        k(    8) = (   0.3333333  -0.5298074  -0.3670262), wk =   0.3333333

     Dense  grid:   458313 G-vectors     FFT dimensions: (  81, 108, 120)

     Estimated max dynamical RAM per process >     257.63MB

     Estimated total allocated dynamical RAM >    2061.04MB

     Check: negative/imaginary core charge=   -0.000002    0.000000

     Initial potential from superposition of free atoms

     starting charge  167.99903, renormalised to  168.00000
     Starting wfc are  146 randomized atomic wfcs
     Checking if some PAW data can be deallocated... 

     total cpu time spent up to now is       16.1 secs

     per-process dynamical memory:   225.4 Mb

     Self-consistent Calculation

     iteration #  1     ecut=   100.00 Ry     beta=0.50
     Davidson diagonalization with overlap
     ethr =  1.00E-02,  avg # of iterations =  3.9

     total cpu time spent up to now is       50.1 secs

     total energy              =    -827.73565382 Ry
     Harris-Foulkes estimate   =    -830.81762585 Ry
     estimated scf accuracy    <       5.72680053 Ry

     iteration #  2     ecut=   100.00 Ry     beta=0.50
     Davidson diagonalization with overlap
     ethr =  3.41E-03,  avg # of iterations =  2.5

     total cpu time spent up to now is       69.5 secs

     total energy              =    -828.44464876 Ry
     Harris-Foulkes estimate   =    -828.72439324 Ry
     estimated scf accuracy    <       0.62403073 Ry

     iteration #  3     ecut=   100.00 Ry     beta=0.50
     Davidson diagonalization with overlap
     ethr =  3.71E-04,  avg # of iterations =  5.8

     total cpu time spent up to now is      105.9 secs

     total energy              =    -828.84097071 Ry
     Harris-Foulkes estimate   =    -829.01107133 Ry
     estimated scf accuracy    <       0.44259957 Ry

     iteration #  4     ecut=   100.00 Ry     beta=0.50
     Davidson diagonalization with overlap
     ethr =  2.63E-04,  avg # of iterations =  2.0

     total cpu time spent up to now is      122.7 secs

     total energy              =    -828.80240603 Ry
     Harris-Foulkes estimate   =    -828.87201801 Ry
     estimated scf accuracy    <       0.12152365 Ry

     iteration #  5     ecut=   100.00 Ry     beta=0.50
     Davidson diagonalization with overlap
     ethr =  7.23E-05,  avg # of iterations =  6.1

     total cpu time spent up to now is      157.8 secs

     total energy              =    -828.88908141 Ry
     Harris-Foulkes estimate   =    -828.93480232 Ry
     estimated scf accuracy    <       0.16205114 Ry

     iteration #  6     ecut=   100.00 Ry     beta=0.50
     Davidson diagonalization with overlap
     ethr =  7.23E-05,  avg # of iterations =  1.0

     total cpu time spent up to now is      174.4 secs

     total energy              =    -828.85894132 Ry
     Harris-Foulkes estimate   =    -828.89376336 Ry
     estimated scf accuracy    <       0.07800536 Ry

     iteration #  7     ecut=   100.00 Ry     beta=0.50
     Davidson diagonalization with overlap
     ethr =  4.64E-05,  avg # of iterations =  5.0

     total cpu time spent up to now is      198.3 secs

     total energy              =    -828.88432104 Ry
     Harris-Foulkes estimate   =    -828.88396086 Ry
     estimated scf accuracy    <       0.00153196 Ry

     iteration #  8     ecut=   100.00 Ry     beta=0.50
     Davidson diagonalization with overlap
     ethr =  9.12E-07,  avg # of iterations =  5.2

     total cpu time spent up to now is      235.3 secs

     total energy              =    -828.88333101 Ry
     Harris-Foulkes estimate   =    -828.88567953 Ry
     estimated scf accuracy    <       0.00477170 Ry

     iteration #  9     ecut=   100.00 Ry     beta=0.50
     Davidson diagonalization with overlap
     ethr =  9.12E-07,  avg # of iterations =  6.1

     total cpu time spent up to now is      261.8 secs

     total energy              =    -828.88416071 Ry
     Harris-Foulkes estimate   =    -828.88417401 Ry
     estimated scf accuracy    <       0.00004114 Ry

     iteration # 10     ecut=   100.00 Ry     beta=0.50
     Davidson diagonalization with overlap
     ethr =  2.45E-08,  avg # of iterations =  4.5

     total cpu time spent up to now is      296.5 secs

     total energy              =    -828.88417852 Ry
     Harris-Foulkes estimate   =    -828.88421450 Ry
     estimated scf accuracy    <       0.00007723 Ry

     iteration # 11     ecut=   100.00 Ry     beta=0.50
     Davidson diagonalization with overlap
     ethr =  2.45E-08,  avg # of iterations =  3.8

     total cpu time spent up to now is      316.4 secs

     total energy              =    -828.88418669 Ry
     Harris-Foulkes estimate   =    -828.88418908 Ry
     estimated scf accuracy    <       0.00000497 Ry

     iteration # 12     ecut=   100.00 Ry     beta=0.50
     Davidson diagonalization with overlap
     ethr =  2.96E-09,  avg # of iterations =  4.0

     total cpu time spent up to now is      349.6 secs

     total energy              =    -828.88419231 Ry
     Harris-Foulkes estimate   =    -828.88419450 Ry
     estimated scf accuracy    <       0.00000659 Ry

     iteration # 13     ecut=   100.00 Ry     beta=0.50
     Davidson diagonalization with overlap
     ethr =  2.96E-09,  avg # of iterations =  1.0

     total cpu time spent up to now is      366.3 secs

     total energy              =    -828.88419156 Ry
     Harris-Foulkes estimate   =    -828.88419252 Ry
     estimated scf accuracy    <       0.00000245 Ry

     iteration # 14     ecut=   100.00 Ry     beta=0.50
     Davidson diagonalization with overlap
     ethr =  1.46E-09,  avg # of iterations =  4.0

     total cpu time spent up to now is      393.3 secs

     total energy              =    -828.88419255 Ry
     Harris-Foulkes estimate   =    -828.88419256 Ry
     estimated scf accuracy    <       0.00000008 Ry

     iteration # 15     ecut=   100.00 Ry     beta=0.50
     Davidson diagonalization with overlap
     ethr =  4.79E-11,  avg # of iterations =  2.2

     total cpu time spent up to now is      411.5 secs

     total energy              =    -828.88419253 Ry
     Harris-Foulkes estimate   =    -828.88419256 Ry
     estimated scf accuracy    <       0.00000005 Ry

     iteration # 16     ecut=   100.00 Ry     beta=0.50
     Davidson diagonalization with overlap
     ethr =  3.21E-11,  avg # of iterations =  4.0

     total cpu time spent up to now is      434.4 secs

     End of self-consistent calculation

          k = 0.0000 0.0000 0.0000 ( 57293 PWs)   bands (ev):

   -20.9181 -20.8390 -20.2399 -20.2153 -19.9442 -19.9021 -18.5635 -18.5559
   -17.7573 -17.7540 -17.3555 -17.3537 -14.2232 -14.1832 -13.3934 -13.3445
   -12.8825 -12.7818 -10.7181 -10.6054 -10.2929 -10.2684  -9.3966  -9.3686
    -8.4689  -8.3785  -8.3124  -8.2424  -7.7014  -7.6919  -7.0153  -6.8669
    -6.7815  -6.7763  -6.2708  -6.2515  -5.6298  -5.5787  -5.4814  -5.3483
    -5.2580  -4.9122  -4.7858  -4.7307  -4.6778  -4.4538  -4.4336  -4.1694
    -4.1652  -4.0916  -4.0763  -4.0536  -3.9315  -3.8799  -3.7045  -3.5104
    -3.2857  -3.1728  -2.8906  -2.8695  -2.6333  -2.5684  -2.4496  -2.3790
    -2.1804  -1.9113  -1.9108  -1.7612  -1.1775  -1.0749  -1.0230  -0.9663
    -0.5088  -0.4102  -0.4014  -0.2832  -0.1938  -0.1876  -0.1534   0.0306
     0.0831   0.0945   0.2877   0.3128   4.4674   4.4992   4.5997   4.7222
     6.1675   7.1727   7.3480   7.3845   7.6486   7.7482   8.0675   8.1119
     8.1192   8.3351   8.3721   8.4800

          k = 0.0000 0.0000-0.3655 ( 57278 PWs)   bands (ev):

   -20.9179 -20.8391 -20.2397 -20.2155 -19.9441 -19.9022 -18.5635 -18.5559
   -17.7575 -17.7542 -17.3591 -17.3497 -14.2249 -14.1816 -13.3956 -13.3441
   -12.8774 -12.7835 -10.7178 -10.6058 -10.2940 -10.2678  -9.3991  -9.3674
    -8.4560  -8.3978  -8.3064  -8.2479  -7.7049  -7.6829  -6.9670  -6.9221
    -6.7897  -6.7701  -6.2636  -6.2503  -5.7435  -5.5653  -5.5148  -5.3187
    -5.1675  -4.8399  -4.7762  -4.7635  -4.6321  -4.5093  -4.3528  -4.2384
    -4.1251  -4.1130  -4.0889  -4.0695  -3.9082  -3.8699  -3.7065  -3.5337
    -3.2696  -3.1810  -2.9098  -2.8471  -2.6428  -2.6249  -2.4639  -2.3808
    -2.1519  -1.9200  -1.9120  -1.7728  -1.1440  -1.0928  -1.0216  -0.9652
    -0.5084  -0.4041  -0.3870  -0.2672  -0.2411  -0.1903  -0.1189   0.0136
     0.0822   0.0870   0.2754   0.3313   4.4550   4.5154   4.5915   4.7164
     6.3426   7.1908   7.2509   7.3515   7.5474   7.8475   7.8895   8.0995
     8.1795   8.3205   8.3625   8.5524

          k = 0.0000-0.4034 0.0450 ( 57234 PWs)   bands (ev):

   -20.8905 -20.8242 -20.3188 -20.3082 -19.8554 -19.8500 -18.5701 -18.5435
   -17.7641 -17.7617 -17.3529 -17.3518 -14.2583 -14.2157 -13.3667 -13.3293
   -12.8512 -12.8201 -10.7210 -10.6034 -10.2339 -10.2196  -9.3332  -9.3074
    -8.6109  -8.4364  -8.2769  -8.2267  -7.6267  -7.5950  -7.2121  -7.0490
    -6.8014  -6.7923  -6.4296  -6.4027  -5.5140  -5.4206  -5.3774  -5.2126
    -5.1262  -4.9289  -4.7213  -4.6851  -4.6210  -4.5671  -4.5543  -4.4518
    -4.2529  -4.2163  -4.1397  -4.0530  -3.6942  -3.6694  -3.6540  -3.4767
    -3.2753  -3.1457  -2.8772  -2.8597  -2.6716  -2.5618  -2.3500  -2.2416
    -2.2295  -1.9430  -1.8662  -1.7878  -1.2275  -1.0786  -1.0297  -0.9738
    -0.6236  -0.4064  -0.3672  -0.3071  -0.2533  -0.0881  -0.0642  -0.0328
    -0.0199   0.0987   0.2450   0.2454   4.3738   4.4973   4.6234   4.8423
     6.4004   6.6222   7.3178   7.3231   7.8284   7.9071   7.9899   8.1129
     8.2991   8.3177   8.4910   8.6833

          k = 0.0000-0.4034-0.3206 ( 57248 PWs)   bands (ev):

   -20.8905 -20.8242 -20.3189 -20.3081 -19.8555 -19.8499 -18.5701 -18.5435
   -17.7643 -17.7621 -17.3551 -17.3491 -14.2589 -14.2154 -13.3673 -13.3298
   -12.8498 -12.8184 -10.7215 -10.6023 -10.2414 -10.2136  -9.3310  -9.3099
    -8.5811  -8.4969  -8.2513  -8.2257  -7.6270  -7.5948  -7.1653  -7.0999
    -6.8122  -6.7727  -6.4230  -6.4222  -5.5331  -5.5247  -5.3321  -5.2561
    -5.0623  -4.8298  -4.7283  -4.6925  -4.6126  -4.5391  -4.5371  -4.4369
    -4.2563  -4.1910  -4.1909  -4.0165  -3.6976  -3.6919  -3.5971  -3.5617
    -3.2895  -3.1173  -2.8675  -2.8650  -2.7081  -2.5944  -2.3189  -2.3095
    -2.2108  -1.9452  -1.8694  -1.7991  -1.1476  -1.1387  -0.9985  -0.9799
    -0.6435  -0.4178  -0.3576  -0.2917  -0.2504  -0.0841  -0.0544  -0.0399
    -0.0269   0.1027   0.2107   0.2767   4.3834   4.4737   4.6308   4.8325
     6.4899   6.7544   7.2976   7.3699   7.5374   7.6980   8.1478   8.1781
     8.2477   8.3773   8.5023   8.7315

          k = 0.3333-0.1264-0.0465 ( 57312 PWs)   bands (ev):

   -20.8765 -20.8153 -20.3152 -20.2840 -19.8975 -19.8800 -18.5557 -18.5460
   -17.8294 -17.8031 -17.3041 -17.2903 -14.2102 -14.1786 -13.3512 -13.3102
   -12.8535 -12.7998 -10.7566 -10.6396 -10.4358 -10.3651  -9.3684  -9.3502
    -8.4935  -8.4048  -8.3010  -8.3002  -7.5767  -7.5581  -6.9675  -6.9170
    -6.8682  -6.8206  -6.1005  -5.9864  -5.5503  -5.4272  -5.3668  -5.2825
    -5.2192  -5.0179  -5.0126  -4.8756  -4.6728  -4.5873  -4.4954  -4.4018
    -4.2910  -4.1906  -4.1198  -3.9430  -3.8792  -3.8010  -3.6547  -3.6243
    -3.2476  -3.1643  -2.8845  -2.7897  -2.6137  -2.5588  -2.3601  -2.3423
    -2.1633  -2.0182  -1.9701  -1.8069  -1.1191  -1.0618  -0.9992  -0.9914
    -0.4855  -0.4731  -0.3505  -0.2689  -0.2106  -0.1184  -0.0547  -0.0175
    -0.0013   0.1474   0.2815   0.3102   4.2113   4.4650   4.7511   4.8320
     6.4296   6.8109   7.3743   7.4572   7.7953   7.8511   7.9074   8.1341
     8.1990   8.3065   8.4574   8.5958

          k = 0.3333-0.1264-0.4120 ( 57347 PWs)   bands (ev):

   -20.8765 -20.8153 -20.3151 -20.2841 -19.8975 -19.8801 -18.5557 -18.5460
   -17.8324 -17.8003 -17.3060 -17.2882 -14.2111 -14.1781 -13.3517 -13.3104
   -12.8506 -12.8002 -10.7583 -10.6410 -10.4233 -10.3753  -9.3679  -9.3510
    -8.4832  -8.3964  -8.3633  -8.2634  -7.5754  -7.5593  -6.9526  -6.8898
    -6.8695  -6.8607  -6.0905  -6.0035  -5.5499  -5.5059  -5.4362  -5.2343
    -5.1082  -5.0442  -5.0160  -4.7984  -4.6733  -4.5547  -4.4259  -4.3915
    -4.2822  -4.2498  -4.1975  -3.9216  -3.9018  -3.7999  -3.7226  -3.5876
    -3.2511  -3.1443  -2.8799  -2.7905  -2.6142  -2.5853  -2.3592  -2.3316
    -2.1731  -2.0300  -1.9624  -1.8136  -1.0900  -1.0674  -1.0272  -0.9825
    -0.5175  -0.4664  -0.3127  -0.2635  -0.2250  -0.0955  -0.0648  -0.0131
    -0.0072   0.1418   0.2713   0.3178   4.2038   4.4744   4.7507   4.8323
     6.4885   6.8830   7.3551   7.4331   7.6076   7.8601   7.9820   8.0139
     8.2505   8.2900   8.5733   8.5997

          k = 0.3333-0.5298-0.0015 ( 57325 PWs)   bands (ev):

   -20.8720 -20.8284 -20.2977 -20.2776 -19.9086 -19.8821 -18.5700 -18.5409
   -17.8250 -17.7993 -17.3074 -17.2933 -14.1954 -14.1648 -13.3467 -13.3218
   -12.8643 -12.7873 -10.7552 -10.6434 -10.4367 -10.3758  -9.4326  -9.4227
    -8.5092  -8.3981  -8.3000  -8.2467  -7.4930  -7.4792  -7.1177  -7.0009
    -6.7783  -6.7273  -6.0723  -6.0193  -5.4378  -5.3910  -5.3441  -5.2134
    -5.1495  -5.0585  -5.0229  -4.9489  -4.7135  -4.5893  -4.4979  -4.4841
    -4.3617  -4.2628  -4.1411  -3.9444  -3.8099  -3.7038  -3.6172  -3.5061
    -3.2781  -3.1931  -2.9037  -2.8170  -2.6157  -2.5473  -2.4735  -2.4373
    -2.2006  -2.0185  -1.9680  -1.8318  -1.1877  -1.0970  -1.0396  -0.9628
    -0.5679  -0.3677  -0.3463  -0.2638  -0.1772  -0.0970  -0.0164   0.0235
     0.0827   0.1413   0.2746   0.3135   4.2515   4.4913   4.7158   4.7789
     6.4510   6.9991   7.3895   7.4535   7.6414   7.6502   7.9188   7.9714
     8.1565   8.2418   8.4376   8.6228

          k = 0.3333-0.5298-0.3670 ( 57329 PWs)   bands (ev):

   -20.8720 -20.8285 -20.2976 -20.2777 -19.9086 -19.8821 -18.5700 -18.5409
   -17.8280 -17.7965 -17.3082 -17.2923 -14.1968 -14.1637 -13.3480 -13.3216
   -12.8608 -12.7878 -10.7568 -10.6439 -10.4275 -10.3837  -9.4348  -9.4209
    -8.4797  -8.4536  -8.2771  -8.2488  -7.5009  -7.4682  -7.0744  -7.0456
    -6.7714  -6.7409  -6.0933  -6.0074  -5.5144  -5.4094  -5.2762  -5.2104
    -5.1309  -5.0599  -5.0043  -4.8762  -4.7167  -4.6273  -4.4971  -4.4695
    -4.3641  -4.2722  -4.1333  -3.9223  -3.8635  -3.6883  -3.5960  -3.5057
    -3.2819  -3.1930  -2.9023  -2.7998  -2.6627  -2.5760  -2.4876  -2.4261
    -2.2007  -2.0047  -1.9835  -1.8354  -1.1503  -1.1185  -1.0254  -0.9703
    -0.6091  -0.3594  -0.2986  -0.2703  -0.1751  -0.0987  -0.0227   0.0374
     0.0721   0.1390   0.2836   0.3012   4.2439   4.5038   4.7185   4.7752
     6.4727   7.0669   7.3742   7.4720   7.6282   7.7047   7.8754   7.9760
     8.0621   8.3081   8.4379   8.7709

     highest occupied, lowest unoccupied level (ev):     0.3313    4.2038

!    total energy              =    -828.88419255 Ry
     Harris-Foulkes estimate   =    -828.88419255 Ry
     estimated scf accuracy    <          4.8E-09 Ry

     total all-electron energy =     -3111.677649 Ry

     The total energy is the sum of the following terms:

     one-electron contribution =    -500.25392828 Ry
     hartree contribution      =     315.75039040 Ry
     xc contribution           =    -176.99751441 Ry
     ewald contribution        =    -234.94213067 Ry
     Dispersion Correction     =      -0.24993073 Ry
     one-center paw contrib.   =    -232.19107886 Ry

     convergence has been achieved in  16 iterations

     Forces acting on atoms (cartesian axes, Ry/au):

     atom    1 type  2   force =    -0.00039570   -0.00000972   -0.00003952
     atom    2 type  2   force =     0.00039570    0.00000972    0.00003952
     atom    3 type  3   force =    -0.00081636   -0.00055639   -0.00013627
     atom    4 type  3   force =     0.00081636    0.00055639    0.00013627
     atom    5 type  3   force =     0.00008533    0.00040346   -0.00053401
     atom    6 type  3   force =    -0.00008533   -0.00040346    0.00053401
     atom    7 type  3   force =     0.00107652   -0.00025161   -0.00016983
     atom    8 type  3   force =    -0.00107652    0.00025161    0.00016983
     atom    9 type  2   force =    -0.00510655   -0.00136104   -0.00180598
     atom   10 type  2   force =     0.00510655    0.00136104    0.00180598
     atom   11 type  3   force =    -0.00184124    0.00199351   -0.00027441
     atom   12 type  3   force =     0.00184124   -0.00199351    0.00027441
     atom   13 type  2   force =    -0.00389089   -0.00498545    0.00015098
     atom   14 type  2   force =     0.00389089    0.00498545   -0.00015098
     atom   15 type  4   force =     0.00469999    0.00179453   -0.00006174
     atom   16 type  4   force =    -0.00469999   -0.00179453    0.00006174
     atom   17 type  4   force =     0.00328599    0.00034518    0.00210611
     atom   18 type  4   force =    -0.00328599   -0.00034518   -0.00210611
     atom   19 type  3   force =    -0.00097733    0.00068096    0.00069018
     atom   20 type  3   force =     0.00097733   -0.00068096   -0.00069018
     atom   21 type  4   force =     0.00434761    0.00046054   -0.00110967
     atom   22 type  4   force =    -0.00434761   -0.00046054    0.00110967
     atom   23 type  4   force =     0.00174067    0.00106990   -0.00336391
     atom   24 type  4   force =    -0.00174067   -0.00106990    0.00336391
     atom   25 type  1   force =    -0.00420516   -0.00014990    0.00380953
     atom   26 type  1   force =     0.00420516    0.00014990   -0.00380953
     atom   27 type  3   force =     0.00428956    0.00276667   -0.00172722
     atom   28 type  3   force =    -0.00428956   -0.00276667    0.00172722
     atom   29 type  3   force =    -0.00077511    0.00103823    0.00033521
     atom   30 type  3   force =     0.00077511   -0.00103823   -0.00033521
     atom   31 type  3   force =     0.00019669    0.00004849   -0.00047073
     atom   32 type  3   force =    -0.00019669   -0.00004849    0.00047073
     atom   33 type  1   force =     0.00277555    0.00005597   -0.00087329
     atom   34 type  1   force =    -0.00277555   -0.00005597    0.00087329
     atom   35 type  3   force =    -0.00046942   -0.00082137   -0.00025834
     atom   36 type  3   force =     0.00046942    0.00082137    0.00025834
     atom   37 type  1   force =     0.00023590   -0.00594972    0.00099007
     atom   38 type  1   force =    -0.00023590    0.00594972   -0.00099007
     atom   39 type  3   force =    -0.00061673    0.00063405   -0.00025457
     atom   40 type  3   force =     0.00061673   -0.00063405    0.00025457
     atom   41 type  3   force =     0.00032626    0.00166828   -0.00071142
     atom   42 type  3   force =    -0.00032626   -0.00166828    0.00071142
     atom   43 type  3   force =    -0.00197102    0.00031505   -0.00130632
     atom   44 type  3   force =     0.00197102   -0.00031505    0.00130632
     atom   45 type  1   force =     0.00605483   -0.00574372   -0.00159616
     atom   46 type  1   force =    -0.00605483    0.00574372    0.00159616
     atom   47 type  1   force =     0.00017951    0.00393642    0.00149339
     atom   48 type  1   force =    -0.00017951   -0.00393642   -0.00149339
     atom   49 type  3   force =     0.00049886   -0.00067337    0.00014888
     atom   50 type  3   force =    -0.00049886    0.00067337   -0.00014888
     atom   51 type  1   force =    -0.00266716    0.00266362    0.00278202
     atom   52 type  1   force =     0.00266716   -0.00266362   -0.00278202
     atom   53 type  1   force =    -0.00210574    0.00455006   -0.00040518
     atom   54 type  1   force =     0.00210574   -0.00455006    0.00040518
     atom   55 type  1   force =    -0.00441984   -0.00594761    0.00100549
     atom   56 type  1   force =     0.00441984    0.00594761   -0.00100549

     Total force =     0.030753     Total SCF correction =     0.000135


     Computing stress (Cartesian axis) and pressure

          total   stress  (Ry/bohr**3)                   (kbar)     P=   -4.38
  -0.00002696  -0.00000294  -0.00000724         -3.97     -0.43     -1.07
  -0.00000294  -0.00003850  -0.00000035         -0.43     -5.66     -0.05
  -0.00000724  -0.00000035  -0.00002391         -1.07     -0.05     -3.52


     Writing output data file scf.save
 
     init_run     :     15.11s CPU     15.44s WALL (       1 calls)
     electrons    :    406.64s CPU    418.43s WALL (       1 calls)
     forces       :      8.23s CPU      8.31s WALL (       1 calls)
     stress       :     22.91s CPU     22.93s WALL (       1 calls)

     Called by init_run:
     wfcinit      :      9.10s CPU      9.37s WALL (       1 calls)
     potinit      :      2.15s CPU      2.16s WALL (       1 calls)

     Called by electrons:
     c_bands      :    359.45s CPU    370.00s WALL (      16 calls)
     sum_band     :     40.25s CPU     41.26s WALL (      16 calls)
     v_of_rho     :      1.21s CPU      1.30s WALL (      17 calls)
     newd         :      2.35s CPU      2.39s WALL (      17 calls)
     PAW_pot      :      2.96s CPU      2.96s WALL (      17 calls)
     mix_rho      :      0.27s CPU      0.29s WALL (      16 calls)

     Called by c_bands:
     init_us_2    :      2.80s CPU      2.80s WALL (     280 calls)
     cegterg      :    350.24s CPU    360.66s WALL (     128 calls)

     Called by sum_band:
     sum_band:bec :      0.03s CPU      0.03s WALL (     128 calls)
     addusdens    :      2.29s CPU      2.33s WALL (      16 calls)

     Called by *egterg:
     h_psi        :    215.74s CPU    223.34s WALL (     625 calls)
     s_psi        :     32.17s CPU     32.17s WALL (     625 calls)
     g_psi        :      1.21s CPU      1.21s WALL (     489 calls)
     cdiaghg      :     18.47s CPU     18.48s WALL (     617 calls)

     Called by h_psi:
     h_psi:pot    :    214.14s CPU    221.70s WALL (     625 calls)
     h_psi:calbec :     31.94s CPU     32.09s WALL (     625 calls)
     vloc_psi     :    150.05s CPU    157.45s WALL (     625 calls)
     add_vuspsi   :     32.14s CPU     32.16s WALL (     625 calls)

     General routines
     calbec       :     45.03s CPU     45.22s WALL (     793 calls)
     fft          :      0.84s CPU      0.98s WALL (     245 calls)
     fftw         :    160.68s CPU    168.26s WALL (   91226 calls)
 
     Parallel routines
     fft_scatter  :     38.94s CPU     43.67s WALL (   91471 calls)
 
     PWSCF        :  7m36.84s CPU     7m49.99s WALL

 
   This run was terminated on:   5:38:17   7Dec2017            

=------------------------------------------------------------------------------=
   JOB DONE.
=------------------------------------------------------------------------------=
