
     Program PWSCF v.6.1 (svn rev. 13369) starts on  5Nov2017 at  5:33:40 

     This program is part of the open-source Quantum ESPRESSO suite
     for quantum simulation of materials; please cite
         "P. Giannozzi et al., J. Phys.:Condens. Matter 21 395502 (2009);
          URL http://www.quantum-espresso.org", 
     in publications or presentations arising from this work. More details at
     http://www.quantum-espresso.org/quote

     Parallel version (MPI), running on     8 processors
     R & G space division:  proc/nbgrp/npool/nimage =       8
     Waiting for input...
     Reading input from standard input

     Current dimensions of program PWSCF are:
     Max number of different atomic species (ntypx) = 10
     Max number of k-points (npk) =  40000
     Max angular momentum in pseudopotentials (lmaxx) =  3
               file C.pbe-n-kjpaw_psl.0.1.UPF: wavefunction(s)  2P renormalized
               file N.pbe-n-kjpaw_psl.0.1.UPF: wavefunction(s)  2P renormalized
               file H.pbe-kjpaw_psl.0.1.UPF: wavefunction(s)  1S renormalized
               file O.pbe-n-kjpaw_psl.0.1.UPF: wavefunction(s)  2P renormalized

     -------------------------------------
     Parameters for Dispersion Correction:
     -------------------------------------
       atom      VdW radius       C_6     

        C          2.744         60.710
        N          2.640         42.670
        H          1.892          4.857
        O          2.536         24.284

     Subspace diagonalization in iterative solution of the eigenvalue problem:
     a serial algorithm will be used

 
     Parallelization info
     --------------------
     sticks:   dense  smooth     PW     G-vecs:    dense   smooth      PW
     Min        2546    2546    669               174855   174855   23615
     Max        2548    2548    670               174856   174856   23616
     Sum       20375   20375   5357              1398845  1398845  188925
 


     bravais-lattice index     =            0
     lattice parameter (alat)  =      35.3039  a.u.
     unit-cell volume          =   10353.7796 (a.u.)^3
     number of atoms/cell      =          144
     number of atomic types    =            4
     number of electrons       =       544.00
     number of Kohn-Sham states=          326
     kinetic-energy cutoff     =     100.0000  Ry
     charge density cutoff     =     400.0000  Ry
     convergence threshold     =      1.0E-08
     mixing beta               =       0.5000
     number of iterations used =            8  plain     mixing
     Exchange-correlation      =  SLA  PW   PBX  PBC ( 1  4  3  4 0 0)

     celldm(1)=  35.303864  celldm(2)=   0.000000  celldm(3)=   0.000000
     celldm(4)=   0.000000  celldm(5)=   0.000000  celldm(6)=   0.000000

     crystal axes: (cart. coord. in units of alat)
               a(1) = (   1.000000   0.000000   0.000000 )  
               a(2) = (   0.000000   0.513489   0.000000 )  
               a(3) = (   0.000000   0.000000   0.458249 )  

     reciprocal axes: (cart. coord. in units 2 pi/alat)
               b(1) = (  1.000000  0.000000  0.000000 )  
               b(2) = (  0.000000  1.947462  0.000000 )  
               b(3) = (  0.000000  0.000000  2.182222 )  


     PseudoPot. # 1 for  C read from file:
     /scratch/ahofstet/pseudo/C.pbe-n-kjpaw_psl.0.1.UPF
     MD5 check sum: 430fe95172b1e11ef3f8ed03bac87931
     Pseudo is Projector augmented-wave + core cor, Zval =  4.0
     Generated using "atomic" code by A. Dal Corso  v.5.0.99 svn rev. 10869
     Shape of augmentation charge: BESSEL
     Using radial grid of 1073 points,  4 beta functions with: 
                l(1) =   0
                l(2) =   0
                l(3) =   1
                l(4) =   1
     Q(r) pseudized with 0 coefficients 


     PseudoPot. # 2 for  N read from file:
     /scratch/ahofstet/pseudo/N.pbe-n-kjpaw_psl.0.1.UPF
     MD5 check sum: f73187c8b701007e77325f868c9291d7
     Pseudo is Projector augmented-wave + core cor, Zval =  5.0
     Generated using "atomic" code by A. Dal Corso  v.5.0.99 svn rev. 10869
     Shape of augmentation charge: PSQ
     Using radial grid of 1085 points,  4 beta functions with: 
                l(1) =   0
                l(2) =   0
                l(3) =   1
                l(4) =   1
     Q(r) pseudized with 0 coefficients 


     PseudoPot. # 3 for  H read from file:
     /scratch/ahofstet/pseudo/H.pbe-kjpaw_psl.0.1.UPF
     MD5 check sum: 94e484f906d9e9773b2f6e52662335b2
     Pseudo is Projector augmented-wave, Zval =  1.0
     Generated using "atomic" code by A. Dal Corso  v.5.0.99 svn rev. 10869
     Shape of augmentation charge: PSQ
     Using radial grid of  929 points,  2 beta functions with: 
                l(1) =   0
                l(2) =   0
     Q(r) pseudized with 0 coefficients 


     PseudoPot. # 4 for  O read from file:
     /scratch/ahofstet/pseudo/O.pbe-n-kjpaw_psl.0.1.UPF
     MD5 check sum: 3f94a2996a3169367d6eb21d9b593f20
     Pseudo is Projector augmented-wave + core cor, Zval =  6.0
     Generated using "atomic" code by A. Dal Corso  v.5.0.99 svn rev. 10869
     Shape of augmentation charge: BESSEL
     Using radial grid of 1095 points,  4 beta functions with: 
                l(1) =   0
                l(2) =   0
                l(3) =   1
                l(4) =   1
     Q(r) pseudized with 0 coefficients 


     atomic species   valence    mass     pseudopotential
        C              4.00    12.01070      C( 1.00)
        N              5.00    14.00670      N( 1.00)
        H              1.00     1.00794      H( 1.00)
        O              6.00    15.99940      O( 1.00)

      4 Sym. Ops., with inversion, found ( 2 have fractional translation)
          (note:  4 additional sym.ops. were found but ignored
           their fractional translations are incommensurate with FFT grid)


   Cartesian axes

     site n.     atom                  positions (alat units)
         1           N   tau(   1) = (   0.7474460   0.4783628   0.1513915  )
         2           N   tau(   2) = (   0.7525540   0.2216183   0.1513915  )
         3           N   tau(   3) = (   0.7474460   0.2918706   0.3805158  )
         4           N   tau(   4) = (   0.7525540   0.0351262   0.3805158  )
         5           N   tau(   5) = (   0.2525540   0.0351262   0.3068570  )
         6           N   tau(   6) = (   0.2474460   0.2918706   0.3068570  )
         7           N   tau(   7) = (   0.2525540   0.2216183   0.0777327  )
         8           N   tau(   8) = (   0.2474460   0.4783628   0.0777327  )
         9           N   tau(   9) = (   0.7803123   0.0109484   0.1101340  )
        10           N   tau(  10) = (   0.7196877   0.2676929   0.1101340  )
        11           N   tau(  11) = (   0.7803123   0.2457961   0.3392583  )
        12           N   tau(  12) = (   0.7196877   0.5025405   0.3392583  )
        13           N   tau(  13) = (   0.2196877   0.5025405   0.3481145  )
        14           N   tau(  14) = (   0.2803123   0.2457961   0.3481145  )
        15           N   tau(  15) = (   0.2196877   0.2676929   0.1189903  )
        16           N   tau(  16) = (   0.2803123   0.0109484   0.1189903  )
        17           N   tau(  17) = (   0.7693304   0.3799795   0.2318208  )
        18           N   tau(  18) = (   0.7306696   0.1232351   0.2318208  )
        19           N   tau(  19) = (   0.7693304   0.3902538   0.0026965  )
        20           N   tau(  20) = (   0.7306696   0.1335094   0.0026965  )
        21           N   tau(  21) = (   0.2306696   0.1335094   0.2264278  )
        22           N   tau(  22) = (   0.2693304   0.3902538   0.2264278  )
        23           N   tau(  23) = (   0.2306696   0.1232351   0.4555521  )
        24           N   tau(  24) = (   0.2693304   0.3799795   0.4555521  )
        25           N   tau(  25) = (   0.7009477   0.3681323   0.2385394  )
        26           N   tau(  26) = (   0.7990523   0.1113879   0.2385394  )
        27           N   tau(  27) = (   0.7009477   0.4021010   0.0094151  )
        28           N   tau(  28) = (   0.7990523   0.1453566   0.0094151  )
        29           N   tau(  29) = (   0.2990523   0.1453566   0.2197091  )
        30           N   tau(  30) = (   0.2009477   0.4021010   0.2197091  )
        31           N   tau(  31) = (   0.2990523   0.1113879   0.4488334  )
        32           N   tau(  32) = (   0.2009477   0.3681323   0.4488334  )
        33           O   tau(  33) = (   0.8524525   0.5107837   0.1209754  )
        34           O   tau(  34) = (   0.6475475   0.2540393   0.1209754  )
        35           O   tau(  35) = (   0.8524525   0.2594497   0.3500997  )
        36           O   tau(  36) = (   0.6475475   0.0027052   0.3500997  )
        37           O   tau(  37) = (   0.1475475   0.0027052   0.3372732  )
        38           O   tau(  38) = (   0.3524525   0.2594497   0.3372732  )
        39           O   tau(  39) = (   0.1475475   0.2540393   0.1081489  )
        40           O   tau(  40) = (   0.3524525   0.5107837   0.1081489  )
        41           O   tau(  41) = (   0.9228851   0.4357759   0.1892906  )
        42           O   tau(  42) = (   0.5771149   0.1790315   0.1892906  )
        43           O   tau(  43) = (   0.9228851   0.3344574   0.4184149  )
        44           O   tau(  44) = (   0.5771149   0.0777130   0.4184149  )
        45           O   tau(  45) = (   0.0771149   0.0777130   0.2689580  )
        46           O   tau(  46) = (   0.4228851   0.3344574   0.2689580  )
        47           O   tau(  47) = (   0.0771149   0.1790315   0.0398337  )
        48           O   tau(  48) = (   0.4228851   0.4357759   0.0398337  )
        49           C   tau(  49) = (   0.8634098   0.4546042   0.1712847  )
        50           C   tau(  50) = (   0.6365902   0.1978598   0.1712847  )
        51           C   tau(  51) = (   0.8634098   0.3156291   0.4004090  )
        52           C   tau(  52) = (   0.6365902   0.0588847   0.4004090  )
        53           C   tau(  53) = (   0.1365902   0.0588847   0.2869639  )
        54           C   tau(  54) = (   0.3634098   0.3156291   0.2869639  )
        55           C   tau(  55) = (   0.1365902   0.1978598   0.0578396  )
        56           C   tau(  56) = (   0.3634098   0.4546042   0.0578396  )
        57           C   tau(  57) = (   0.7917694   0.4332899   0.1891963  )
        58           C   tau(  58) = (   0.7082306   0.1765454   0.1891963  )
        59           C   tau(  59) = (   0.7917694   0.3369435   0.4183206  )
        60           C   tau(  60) = (   0.7082306   0.0801990   0.4183206  )
        61           C   tau(  61) = (   0.2082306   0.0801990   0.2690523  )
        62           C   tau(  62) = (   0.2917694   0.3369435   0.2690523  )
        63           C   tau(  63) = (   0.2082306   0.1765454   0.0399280  )
        64           C   tau(  64) = (   0.2917694   0.4332899   0.0399280  )
        65           C   tau(  65) = (   0.6737681   0.4713212   0.1596781  )
        66           C   tau(  66) = (   0.8262319   0.2145768   0.1596781  )
        67           C   tau(  67) = (   0.6737681   0.2989122   0.3888024  )
        68           C   tau(  68) = (   0.8262319   0.0421677   0.3888024  )
        69           C   tau(  69) = (   0.3262319   0.0421677   0.2985705  )
        70           C   tau(  70) = (   0.1737681   0.2989122   0.2985705  )
        71           C   tau(  71) = (   0.3262319   0.2145768   0.0694462  )
        72           C   tau(  72) = (   0.1737681   0.4713212   0.0694462  )
        73           C   tau(  73) = (   0.6240853   0.0032503   0.1272878  )
        74           C   tau(  74) = (   0.8759147   0.2599948   0.1272878  )
        75           C   tau(  75) = (   0.6240853   0.2534942   0.3564121  )
        76           C   tau(  76) = (   0.8759147   0.5102386   0.3564121  )
        77           C   tau(  77) = (   0.3759147   0.5102386   0.3309608  )
        78           C   tau(  78) = (   0.1240853   0.2534942   0.3309608  )
        79           C   tau(  79) = (   0.3759147   0.2599948   0.1018365  )
        80           C   tau(  80) = (   0.1240853   0.0032503   0.1018365  )
        81           C   tau(  81) = (   0.5519559   0.5021080   0.1368899  )
        82           C   tau(  82) = (   0.9480441   0.2453635   0.1368899  )
        83           C   tau(  83) = (   0.5519559   0.2681254   0.3660142  )
        84           C   tau(  84) = (   0.9480441   0.0113809   0.3660142  )
        85           C   tau(  85) = (   0.4480441   0.0113809   0.3213587  )
        86           C   tau(  86) = (   0.0519559   0.2681254   0.3213587  )
        87           C   tau(  87) = (   0.4480441   0.2453635   0.0922344  )
        88           C   tau(  88) = (   0.0519559   0.5021080   0.0922344  )
        89           C   tau(  89) = (   0.5296676   0.4429681   0.1781757  )
        90           C   tau(  90) = (   0.9703324   0.1862237   0.1781757  )
        91           C   tau(  91) = (   0.5296676   0.3272652   0.4073000  )
        92           C   tau(  92) = (   0.9703324   0.0705208   0.4073000  )
        93           C   tau(  93) = (   0.4703324   0.0705208   0.2800729  )
        94           C   tau(  94) = (   0.0296676   0.3272652   0.2800729  )
        95           C   tau(  95) = (   0.4703324   0.1862237   0.0509486  )
        96           C   tau(  96) = (   0.0296676   0.4429681   0.0509486  )
        97           C   tau(  97) = (   0.5792238   0.3993386   0.2116509  )
        98           C   tau(  98) = (   0.9207762   0.1425941   0.2116509  )
        99           C   tau(  99) = (   0.5792238   0.3708948   0.4407752  )
       100           C   tau( 100) = (   0.9207762   0.1141504   0.4407752  )
       101           C   tau( 101) = (   0.4207762   0.1141504   0.2465977  )
       102           C   tau( 102) = (   0.0792238   0.3708948   0.2465977  )
       103           C   tau( 103) = (   0.4207762   0.1425941   0.0174734  )
       104           C   tau( 104) = (   0.0792238   0.3993386   0.0174734  )
       105           C   tau( 105) = (   0.6530767   0.4127533   0.2034343  )
       106           C   tau( 106) = (   0.8469233   0.1560088   0.2034343  )
       107           C   tau( 107) = (   0.6530767   0.3574801   0.4325586  )
       108           C   tau( 108) = (   0.8469233   0.1007357   0.4325586  )
       109           C   tau( 109) = (   0.3469233   0.1007357   0.2548142  )
       110           C   tau( 110) = (   0.1530767   0.3574801   0.2548142  )
       111           C   tau( 111) = (   0.3469233   0.1560088   0.0256899  )
       112           C   tau( 112) = (   0.1530767   0.4127533   0.0256899  )
       113           H   tau( 113) = (   0.6421866   0.0481481   0.0949000  )
       114           H   tau( 114) = (   0.8578134   0.3048926   0.0949000  )
       115           H   tau( 115) = (   0.6421866   0.2085963   0.3240243  )
       116           H   tau( 116) = (   0.8578134   0.4653408   0.3240243  )
       117           H   tau( 117) = (   0.3578134   0.4653408   0.3633486  )
       118           H   tau( 118) = (   0.1421866   0.2085963   0.3633486  )
       119           H   tau( 119) = (   0.3578134   0.3048926   0.1342243  )
       120           H   tau( 120) = (   0.1421866   0.0481481   0.1342243  )
       121           H   tau( 121) = (   0.5120323   0.0228024   0.1117330  )
       122           H   tau( 122) = (   0.9879677   0.2795469   0.1117330  )
       123           H   tau( 123) = (   0.5120323   0.2339420   0.3408573  )
       124           H   tau( 124) = (   0.9879677   0.4906865   0.3408573  )
       125           H   tau( 125) = (   0.4879677   0.4906865   0.3465156  )
       126           H   tau( 126) = (   0.0120323   0.2339420   0.3465156  )
       127           H   tau( 127) = (   0.4879677   0.2795469   0.1173913  )
       128           H   tau( 128) = (   0.0120323   0.0228024   0.1173913  )
       129           H   tau( 129) = (   0.4728486   0.4315097   0.1843867  )
       130           H   tau( 130) = (   0.0271514   0.1747653   0.1843867  )
       131           H   tau( 131) = (   0.4728486   0.3387236   0.4135110  )
       132           H   tau( 132) = (   0.0271514   0.0819792   0.4135110  )
       133           H   tau( 133) = (   0.5271514   0.0819792   0.2738619  )
       134           H   tau( 134) = (   0.9728486   0.3387236   0.2738619  )
       135           H   tau( 135) = (   0.5271514   0.1747653   0.0447376  )
       136           H   tau( 136) = (   0.9728486   0.4315097   0.0447376  )
       137           H   tau( 137) = (   0.5624645   0.3544746   0.2448953  )
       138           H   tau( 138) = (   0.9375355   0.0977301   0.2448953  )
       139           H   tau( 139) = (   0.5624645   0.4157588   0.0157710  )
       140           H   tau( 140) = (   0.9375355   0.1590143   0.0157710  )
       141           H   tau( 141) = (   0.4375355   0.1590143   0.2133533  )
       142           H   tau( 142) = (   0.0624645   0.4157588   0.2133533  )
       143           H   tau( 143) = (   0.4375355   0.0977301   0.4424776  )
       144           H   tau( 144) = (   0.0624645   0.3544746   0.4424776  )

     number of k points=     4
                       cart. coord. in units 2pi/alat
        k(    1) = (   0.0000000   0.0000000   0.0000000), wk =   0.5000000
        k(    2) = (   0.0000000   0.0000000  -1.0911109), wk =   0.5000000
        k(    3) = (   0.0000000  -0.9737308   0.0000000), wk =   0.5000000
        k(    4) = (   0.0000000  -0.9737308  -1.0911109), wk =   0.5000000

     Dense  grid:  1398845 G-vectors     FFT dimensions: ( 225, 120, 108)

     Estimated max dynamical RAM per process >    1894.10MB

     Estimated total allocated dynamical RAM >   15152.79MB

     Check: negative/imaginary core charge=   -0.000002    0.000000

     Initial potential from superposition of free atoms

     starting charge  543.99677, renormalised to  544.00000
     Starting wfc are  480 randomized atomic wfcs
     Checking if some PAW data can be deallocated... 

     total cpu time spent up to now is       94.3 secs

     per-process dynamical memory:  1040.3 Mb

     Self-consistent Calculation

     iteration #  1     ecut=   100.00 Ry     beta=0.50
     Davidson diagonalization with overlap
     ethr =  1.00E-02,  avg # of iterations =  4.0

     total cpu time spent up to now is      401.4 secs

     total energy              =   -2782.38022386 Ry
     Harris-Foulkes estimate   =   -2790.53599375 Ry
     estimated scf accuracy    <      15.09428918 Ry

     iteration #  2     ecut=   100.00 Ry     beta=0.50
     Davidson diagonalization with overlap
     ethr =  2.77E-03,  avg # of iterations =  4.0

     total cpu time spent up to now is      569.4 secs

     total energy              =   -2782.22945151 Ry
     Harris-Foulkes estimate   =   -2786.17037597 Ry
     estimated scf accuracy    <       8.74516055 Ry

     iteration #  3     ecut=   100.00 Ry     beta=0.50
     Davidson diagonalization with overlap
     ethr =  1.61E-03,  avg # of iterations =  8.5

     total cpu time spent up to now is      764.4 secs

     total energy              =   -2784.63105534 Ry
     Harris-Foulkes estimate   =   -2785.56947638 Ry
     estimated scf accuracy    <       2.58197750 Ry

     iteration #  4     ecut=   100.00 Ry     beta=0.50
     Davidson diagonalization with overlap
     ethr =  4.75E-04,  avg # of iterations =  9.8

     total cpu time spent up to now is     1001.2 secs

     total energy              =   -2785.35789846 Ry
     Harris-Foulkes estimate   =   -2785.53223064 Ry
     estimated scf accuracy    <       0.44171160 Ry

     iteration #  5     ecut=   100.00 Ry     beta=0.50
     Davidson diagonalization with overlap
     ethr =  8.12E-05,  avg # of iterations =  8.5

     total cpu time spent up to now is     1194.5 secs

     total energy              =   -2785.36226877 Ry
     Harris-Foulkes estimate   =   -2785.42914082 Ry
     estimated scf accuracy    <       0.11593744 Ry

     iteration #  6     ecut=   100.00 Ry     beta=0.50
     Davidson diagonalization with overlap
     ethr =  2.13E-05,  avg # of iterations =  6.5

     total cpu time spent up to now is     1544.3 secs

     total energy              =   -2785.42511834 Ry
     Harris-Foulkes estimate   =   -2785.46574606 Ry
     estimated scf accuracy    <       0.09277651 Ry

     iteration #  7     ecut=   100.00 Ry     beta=0.50
     Davidson diagonalization with overlap
     c_bands:  1 eigenvalues not converged
     ethr =  1.71E-05,  avg # of iterations =  6.0

     total cpu time spent up to now is     1700.5 secs

     total energy              =   -2785.42211177 Ry
     Harris-Foulkes estimate   =   -2785.43293799 Ry
     estimated scf accuracy    <       0.02777769 Ry

     iteration #  8     ecut=   100.00 Ry     beta=0.50
     Davidson diagonalization with overlap
     ethr =  5.11E-06,  avg # of iterations =  7.0

     total cpu time spent up to now is     1983.7 secs

     total energy              =   -2785.43664851 Ry
     Harris-Foulkes estimate   =   -2785.43834277 Ry
     estimated scf accuracy    <       0.01045894 Ry

     iteration #  9     ecut=   100.00 Ry     beta=0.50
     Davidson diagonalization with overlap
     c_bands:  2 eigenvalues not converged
     ethr =  1.92E-06,  avg # of iterations = 13.0

     total cpu time spent up to now is     2164.9 secs

     total energy              =   -2785.43633800 Ry
     Harris-Foulkes estimate   =   -2785.43806476 Ry
     estimated scf accuracy    <       0.00372298 Ry

     iteration # 10     ecut=   100.00 Ry     beta=0.50
     Davidson diagonalization with overlap
     ethr =  6.84E-07,  avg # of iterations =  2.2

     total cpu time spent up to now is     2317.2 secs

     total energy              =   -2785.43652564 Ry
     Harris-Foulkes estimate   =   -2785.43676909 Ry
     estimated scf accuracy    <       0.00059709 Ry

     iteration # 11     ecut=   100.00 Ry     beta=0.50
     Davidson diagonalization with overlap
     ethr =  1.10E-07,  avg # of iterations =  5.5

     total cpu time spent up to now is     2609.5 secs

     total energy              =   -2785.43688725 Ry
     Harris-Foulkes estimate   =   -2785.43691810 Ry
     estimated scf accuracy    <       0.00009449 Ry

     iteration # 12     ecut=   100.00 Ry     beta=0.50
     Davidson diagonalization with overlap
     ethr =  1.74E-08,  avg # of iterations =  1.2

     total cpu time spent up to now is     2752.9 secs

     total energy              =   -2785.43688575 Ry
     Harris-Foulkes estimate   =   -2785.43689463 Ry
     estimated scf accuracy    <       0.00002029 Ry

     iteration # 13     ecut=   100.00 Ry     beta=0.50
     Davidson diagonalization with overlap
     ethr =  3.73E-09,  avg # of iterations =  4.0

     total cpu time spent up to now is     3033.2 secs

     total energy              =   -2785.43689560 Ry
     Harris-Foulkes estimate   =   -2785.43690215 Ry
     estimated scf accuracy    <       0.00001521 Ry

     iteration # 14     ecut=   100.00 Ry     beta=0.50
     Davidson diagonalization with overlap
     ethr =  2.80E-09,  avg # of iterations =  1.0

     total cpu time spent up to now is     3175.9 secs

     total energy              =   -2785.43689546 Ry
     Harris-Foulkes estimate   =   -2785.43689684 Ry
     estimated scf accuracy    <       0.00000283 Ry

     iteration # 15     ecut=   100.00 Ry     beta=0.50
     Davidson diagonalization with overlap
     ethr =  5.21E-10,  avg # of iterations =  4.0

     total cpu time spent up to now is     3490.0 secs

     total energy              =   -2785.43689820 Ry
     Harris-Foulkes estimate   =   -2785.43689935 Ry
     estimated scf accuracy    <       0.00000403 Ry

     iteration # 16     ecut=   100.00 Ry     beta=0.50
     Davidson diagonalization with overlap
     ethr =  5.21E-10,  avg # of iterations =  1.0

     total cpu time spent up to now is     3632.5 secs

     total energy              =   -2785.43689777 Ry
     Harris-Foulkes estimate   =   -2785.43689834 Ry
     estimated scf accuracy    <       0.00000184 Ry

     iteration # 17     ecut=   100.00 Ry     beta=0.50
     Davidson diagonalization with overlap
     ethr =  3.38E-10,  avg # of iterations =  3.0

     total cpu time spent up to now is     3830.3 secs

     total energy              =   -2785.43689812 Ry
     Harris-Foulkes estimate   =   -2785.43689817 Ry
     estimated scf accuracy    <       0.00000010 Ry

     iteration # 18     ecut=   100.00 Ry     beta=0.50
     Davidson diagonalization with overlap
     ethr =  1.82E-11,  avg # of iterations =  4.0

     total cpu time spent up to now is     4133.1 secs

     total energy              =   -2785.43689816 Ry
     Harris-Foulkes estimate   =   -2785.43689819 Ry
     estimated scf accuracy    <       0.00000007 Ry

     iteration # 19     ecut=   100.00 Ry     beta=0.50
     Davidson diagonalization with overlap
     ethr =  1.21E-11,  avg # of iterations =  1.0

     total cpu time spent up to now is     4275.6 secs

     End of self-consistent calculation

          k = 0.0000 0.0000 0.0000 (174791 PWs)   bands (ev):

   -22.7012 -22.7011 -22.6875 -22.6875 -22.6854 -22.6854 -22.6802 -22.6802
   -19.5426 -19.5420 -19.5311 -19.5294 -19.5147 -19.5143 -19.4998 -19.4994
   -19.1184 -19.1177 -19.0955 -19.0946 -19.0917 -19.0916 -19.0812 -19.0794
   -17.9956 -17.9949 -17.9671 -17.9667 -17.9433 -17.9430 -17.9247 -17.9245
   -14.8701 -14.8642 -14.8533 -14.8461 -14.8311 -14.8164 -14.8136 -14.8096
   -13.9314 -13.9298 -13.9271 -13.9257 -13.9238 -13.9225 -13.9147 -13.9143
   -12.8639 -12.8533 -12.8442 -12.8235 -12.8117 -12.8072 -12.7922 -12.7854
   -12.2355 -12.2349 -12.2265 -12.2200 -12.2167 -12.2130 -12.1903 -12.1750
   -10.5914 -10.5912 -10.5767 -10.5734 -10.5716 -10.5576 -10.5453 -10.5448
   -10.2068 -10.1726 -10.1221 -10.1142 -10.1128 -10.1125 -10.1091 -10.0810
    -9.3422  -9.3178  -9.3087  -9.3027  -9.2921  -9.2801  -9.2652  -9.2553
    -7.7944  -7.7730  -7.7680  -7.7539  -7.7515  -7.7473  -7.7023  -7.6963
    -7.5089  -7.5032  -7.4888  -7.4847  -7.4842  -7.4821  -7.4812  -7.4702
    -7.1144  -7.0768  -7.0498  -7.0431  -7.0428  -7.0426  -7.0113  -7.0112
    -6.1988  -6.1815  -6.1072  -6.0984  -6.0491  -6.0186  -5.7725  -5.7327
    -5.7119  -5.6833  -5.6630  -5.6523  -5.6471  -5.6461  -5.6327  -5.6041
    -4.8827  -4.7651  -4.7634  -4.7557  -4.7556  -4.7195  -4.6846  -4.6484
    -4.4075  -4.3829  -4.3426  -4.3003  -4.2853  -4.2577  -4.1643  -4.1468
    -4.0818  -4.0448  -4.0445  -3.9748  -3.9537  -3.8993  -3.8963  -3.8702
    -3.8426  -3.8402  -3.8138  -3.7936  -3.7190  -3.7084  -3.6555  -3.6481
    -3.6006  -3.5937  -3.5370  -3.5094  -3.5014  -3.4890  -3.4704  -3.3701
    -3.3084  -3.3008  -3.1291  -3.1270  -3.0912  -3.0872  -3.0578  -3.0497
    -3.0401  -3.0076  -2.9978  -2.9433  -2.9348  -2.9260  -2.8587  -2.8334
    -2.3185  -2.3061  -2.2588  -2.2558  -2.2366  -2.2274  -2.2172  -2.1838
    -2.1771  -2.1363  -2.1214  -2.0478  -2.0417  -2.0308  -2.0274  -2.0067
    -1.9287  -1.9095  -1.8829  -1.8630  -1.8577  -1.8516  -1.8264  -1.7748
    -1.7669  -1.7491  -1.7340  -1.7075  -1.6893  -1.6538  -1.6273  -1.5928
    -1.5844  -1.5811  -1.5741  -1.5250  -1.5069  -1.4982  -1.3360  -1.3343
    -1.1303  -1.1140  -1.0964  -1.0190  -1.0175  -1.0140  -0.9670  -0.8969
    -0.2210  -0.0879  -0.0745  -0.0189   0.1214   0.1258   0.1304   0.2568
     0.3863   0.3903   0.4004   0.4289   0.4444   0.4667   0.4728   0.4885
     0.5205   0.5357   0.5641   0.5713   0.5893   0.6364   0.7057   0.8092
     1.2921   1.2931   1.2956   1.2977   1.3628   1.4156   1.4182   1.4299
     1.4847   1.5064   1.5151   1.5372   1.5406   1.5472   1.8146   1.8202
     3.9079   3.9099   3.9133   3.9443   3.9461   3.9517   3.9948   4.0030
     4.3805   4.4062   4.4197   4.4406   4.4494   4.5090   4.5166   4.5770
     5.9082   5.9330   6.0305   6.0395   6.1007   6.1634   6.1900   6.1946
     6.3309   6.4473   6.4519   6.4999   6.5178   6.5624   6.6269   6.6294
     7.2572   7.4456   7.7438   7.7486   7.9125   7.9569   7.9899   8.0170
     8.0723   8.1446   8.1991   8.2046   8.2057   8.2747   8.3061   8.3154
     8.3290   8.4469   8.6238   8.6317   8.6824   8.6990

          k = 0.0000 0.0000-1.0911 (174832 PWs)   bands (ev):

   -22.6933 -22.6933 -22.6933 -22.6933 -22.6839 -22.6839 -22.6838 -22.6838
   -19.5292 -19.5292 -19.5287 -19.5287 -19.5153 -19.5153 -19.5141 -19.5141
   -19.1059 -19.1059 -19.1053 -19.1053 -19.0879 -19.0879 -19.0864 -19.0864
   -17.9690 -17.9690 -17.9685 -17.9685 -17.9458 -17.9458 -17.9455 -17.9455
   -14.8483 -14.8483 -14.8448 -14.8448 -14.8334 -14.8334 -14.8269 -14.8269
   -13.9287 -13.9287 -13.9271 -13.9271 -13.9200 -13.9200 -13.9171 -13.9171
   -12.8496 -12.8496 -12.8465 -12.8465 -12.7981 -12.7981 -12.7955 -12.7955
   -12.2226 -12.2226 -12.2181 -12.2181 -12.2141 -12.2141 -12.2039 -12.2039
   -10.5818 -10.5818 -10.5736 -10.5736 -10.5595 -10.5595 -10.5592 -10.5592
   -10.1723 -10.1723 -10.1513 -10.1513 -10.1054 -10.1054 -10.0872 -10.0872
    -9.3310  -9.3310  -9.2964  -9.2964  -9.2884  -9.2884  -9.2672  -9.2672
    -7.7744  -7.7744  -7.7511  -7.7511  -7.7494  -7.7494  -7.7192  -7.7192
    -7.5015  -7.5015  -7.4870  -7.4870  -7.4849  -7.4849  -7.4788  -7.4788
    -7.0813  -7.0813  -7.0571  -7.0571  -7.0301  -7.0301  -7.0218  -7.0218
    -6.1569  -6.1569  -6.1454  -6.1454  -5.9200  -5.9200  -5.8879  -5.8879
    -5.7036  -5.7036  -5.6561  -5.6561  -5.6431  -5.6431  -5.6023  -5.6023
    -4.8357  -4.8357  -4.7765  -4.7765  -4.7074  -4.7074  -4.6612  -4.6612
    -4.3932  -4.3932  -4.3351  -4.3351  -4.2078  -4.2078  -4.1917  -4.1917
    -4.0363  -4.0363  -3.9612  -3.9612  -3.9391  -3.9391  -3.8898  -3.8898
    -3.8725  -3.8725  -3.8413  -3.8413  -3.7159  -3.7159  -3.6545  -3.6545
    -3.6094  -3.6094  -3.6017  -3.6017  -3.4849  -3.4849  -3.4419  -3.4419
    -3.1994  -3.1994  -3.1493  -3.1493  -3.1007  -3.1007  -3.0677  -3.0677
    -3.0009  -3.0009  -2.9511  -2.9511  -2.8702  -2.8702  -2.8375  -2.8375
    -2.3089  -2.3089  -2.2864  -2.2864  -2.2750  -2.2750  -2.2603  -2.2603
    -2.2330  -2.2330  -2.0930  -2.0930  -1.9844  -1.9844  -1.9706  -1.9706
    -1.9192  -1.9192  -1.8990  -1.8990  -1.8516  -1.8516  -1.8318  -1.8318
    -1.7220  -1.7220  -1.7020  -1.7020  -1.6421  -1.6421  -1.6186  -1.6186
    -1.5747  -1.5747  -1.5053  -1.5053  -1.4665  -1.4665  -1.4234  -1.4234
    -1.0698  -1.0698  -1.0453  -1.0453  -1.0010  -1.0010  -0.9758  -0.9758
    -0.1175  -0.1175  -0.0790  -0.0790   0.1319   0.1319   0.1786   0.1786
     0.3848   0.3848   0.4311   0.4311   0.4436   0.4436   0.4618   0.4618
     0.5549   0.5549   0.6153   0.6153   0.6214   0.6214   0.6652   0.6652
     1.3506   1.3506   1.3604   1.3604   1.3844   1.3844   1.3891   1.3891
     1.5044   1.5044   1.5301   1.5301   1.6253   1.6253   1.6514   1.6514
     3.9315   3.9315   3.9475   3.9475   3.9527   3.9527   3.9958   3.9958
     4.4026   4.4026   4.4102   4.4102   4.4748   4.4748   4.5366   4.5366
     5.9593   5.9593   6.0647   6.0647   6.0685   6.0685   6.1295   6.1295
     6.4118   6.4118   6.5051   6.5051   6.5709   6.5709   6.5778   6.5778
     7.5739   7.5739   7.8174   7.8174   7.8852   7.8852   7.9116   7.9116
     8.1552   8.1552   8.2124   8.2124   8.2717   8.2717   8.3234   8.3234
     8.3306   8.3306   8.7336   8.7336   8.7389   8.7389

          k = 0.0000-0.9737 0.0000 (174894 PWs)   bands (ev):

   -22.6946 -22.6946 -22.6946 -22.6946 -22.6825 -22.6825 -22.6825 -22.6825
   -19.5373 -19.5373 -19.5362 -19.5362 -19.5072 -19.5072 -19.5071 -19.5071
   -19.1057 -19.1057 -19.1055 -19.1055 -19.0866 -19.0866 -19.0860 -19.0860
   -17.9818 -17.9818 -17.9812 -17.9812 -17.9337 -17.9337 -17.9335 -17.9335
   -14.8638 -14.8638 -14.8559 -14.8559 -14.8184 -14.8184 -14.8143 -14.8143
   -13.9296 -13.9296 -13.9262 -13.9262 -13.9198 -13.9198 -13.9193 -13.9193
   -12.8543 -12.8543 -12.8409 -12.8409 -12.8088 -12.8088 -12.7861 -12.7861
   -12.2344 -12.2344 -12.2301 -12.2301 -12.1996 -12.1996 -12.1918 -12.1918
   -10.5900 -10.5900 -10.5778 -10.5778 -10.5560 -10.5560 -10.5525 -10.5525
   -10.1900 -10.1900 -10.1170 -10.1170 -10.1150 -10.1150 -10.0940 -10.0940
    -9.3154  -9.3154  -9.3152  -9.3152  -9.2769  -9.2769  -9.2747  -9.2747
    -7.7896  -7.7896  -7.7567  -7.7567  -7.7293  -7.7293  -7.7195  -7.7195
    -7.5061  -7.5061  -7.4997  -7.4997  -7.4831  -7.4831  -7.4724  -7.4724
    -7.1012  -7.1012  -7.0483  -7.0483  -7.0385  -7.0385  -7.0085  -7.0085
    -6.1008  -6.1008  -6.0989  -6.0989  -5.9382  -5.9382  -5.9289  -5.9289
    -5.7120  -5.7120  -5.6887  -5.6887  -5.6463  -5.6463  -5.6054  -5.6054
    -4.8258  -4.8258  -4.7631  -4.7631  -4.7082  -4.7082  -4.7000  -4.7000
    -4.4109  -4.4109  -4.2869  -4.2869  -4.2559  -4.2559  -4.2137  -4.2137
    -4.0277  -4.0277  -3.9537  -3.9537  -3.9091  -3.9091  -3.8711  -3.8711
    -3.8591  -3.8591  -3.7622  -3.7622  -3.6707  -3.6707  -3.6615  -3.6615
    -3.6185  -3.6185  -3.5990  -3.5990  -3.4778  -3.4778  -3.4309  -3.4309
    -3.1285  -3.1285  -3.1233  -3.1233  -3.0847  -3.0847  -3.0460  -3.0460
    -3.0337  -3.0337  -3.0161  -3.0161  -2.9953  -2.9953  -2.9356  -2.9356
    -2.3872  -2.3872  -2.3616  -2.3616  -2.2349  -2.2349  -2.1956  -2.1956
    -2.1488  -2.1488  -2.1303  -2.1303  -1.9716  -1.9716  -1.9592  -1.9592
    -1.9199  -1.9199  -1.9021  -1.9021  -1.8330  -1.8330  -1.8117  -1.8117
    -1.6947  -1.6947  -1.6925  -1.6925  -1.6602  -1.6602  -1.6187  -1.6187
    -1.5778  -1.5778  -1.5261  -1.5261  -1.4319  -1.4319  -1.4318  -1.4318
    -1.0589  -1.0589  -1.0544  -1.0544  -1.0330  -1.0330  -0.9573  -0.9573
    -0.1270  -0.1270  -0.0997  -0.0997   0.1228   0.1228   0.1861   0.1861
     0.3481   0.3481   0.4042   0.4042   0.4465   0.4465   0.4682   0.4682
     0.5452   0.5452   0.6093   0.6093   0.6757   0.6757   0.7191   0.7191
     1.3377   1.3377   1.3383   1.3383   1.3557   1.3557   1.4053   1.4053
     1.4755   1.4755   1.4847   1.4847   1.7018   1.7018   1.7032   1.7032
     3.9142   3.9142   3.9154   3.9154   3.9607   3.9607   3.9776   3.9776
     4.4147   4.4147   4.4452   4.4452   4.4733   4.4733   4.5296   4.5296
     5.9481   5.9481   5.9552   5.9552   6.1530   6.1530   6.1811   6.1811
     6.3633   6.3633   6.5027   6.5027   6.5032   6.5032   6.6358   6.6358
     7.5860   7.5860   7.7236   7.7236   7.8340   7.8340   7.8733   7.8733
     8.1039   8.1039   8.2001   8.2001   8.2040   8.2040   8.3408   8.3410
     8.3437   8.3437   8.4940   8.4941   8.6179   8.6191

          k = 0.0000-0.9737-1.0911 (174972 PWs)   bands (ev):

   -22.6886 -22.6886 -22.6886 -22.6886 -22.6886 -22.6886 -22.6885 -22.6885
   -19.5226 -19.5226 -19.5226 -19.5226 -19.5217 -19.5217 -19.5216 -19.5216
   -19.0966 -19.0966 -19.0966 -19.0966 -19.0955 -19.0955 -19.0955 -19.0955
   -17.9575 -17.9575 -17.9575 -17.9575 -17.9571 -17.9571 -17.9570 -17.9570
   -14.8465 -14.8465 -14.8464 -14.8464 -14.8304 -14.8304 -14.8303 -14.8303
   -13.9244 -13.9244 -13.9244 -13.9244 -13.9222 -13.9222 -13.9222 -13.9222
   -12.8475 -12.8475 -12.8475 -12.8475 -12.7972 -12.7972 -12.7971 -12.7971
   -12.2183 -12.2183 -12.2183 -12.2183 -12.2110 -12.2110 -12.2110 -12.2110
   -10.5769 -10.5769 -10.5769 -10.5769 -10.5601 -10.5601 -10.5601 -10.5601
   -10.1620 -10.1620 -10.1620 -10.1620 -10.0963 -10.0963 -10.0963 -10.0963
    -9.3095  -9.3095  -9.3095  -9.3095  -9.2818  -9.2818  -9.2818  -9.2818
    -7.7627  -7.7627  -7.7627  -7.7627  -7.7348  -7.7348  -7.7348  -7.7348
    -7.4967  -7.4967  -7.4967  -7.4967  -7.4839  -7.4839  -7.4839  -7.4839
    -7.0707  -7.0707  -7.0707  -7.0707  -7.0267  -7.0267  -7.0267  -7.0267
    -6.0332  -6.0332  -6.0332  -6.0332  -6.0157  -6.0157  -6.0157  -6.0157
    -5.6757  -5.6757  -5.6757  -5.6757  -5.6379  -5.6379  -5.6379  -5.6379
    -4.7958  -4.7958  -4.7958  -4.7958  -4.7055  -4.7055  -4.7055  -4.7055
    -4.3769  -4.3769  -4.3769  -4.3769  -4.2079  -4.2079  -4.2079  -4.2079
    -3.9163  -3.9163  -3.9163  -3.9163  -3.9009  -3.9009  -3.9009  -3.9009
    -3.8146  -3.8146  -3.8146  -3.8146  -3.7527  -3.7527  -3.7527  -3.7527
    -3.5953  -3.5953  -3.5953  -3.5953  -3.4657  -3.4657  -3.4657  -3.4657
    -3.0969  -3.0969  -3.0969  -3.0969  -3.0770  -3.0770  -3.0770  -3.0770
    -3.0411  -3.0411  -3.0411  -3.0411  -2.9600  -2.9600  -2.9600  -2.9600
    -2.2740  -2.2740  -2.2740  -2.2740  -2.2401  -2.2401  -2.2401  -2.2401
    -2.1670  -2.1670  -2.1670  -2.1670  -1.9981  -1.9981  -1.9981  -1.9981
    -1.9363  -1.9363  -1.9362  -1.9362  -1.8625  -1.8625  -1.8624  -1.8624
    -1.6556  -1.6556  -1.6555  -1.6555  -1.5846  -1.5846  -1.5846  -1.5846
    -1.5063  -1.5063  -1.5063  -1.5063  -1.4917  -1.4917  -1.4917  -1.4917
    -1.0570  -1.0570  -1.0570  -1.0570  -0.9923  -0.9923  -0.9923  -0.9923
    -0.1123  -0.1123  -0.1123  -0.1123   0.1410   0.1410   0.1410   0.1410
     0.4066   0.4066   0.4067   0.4067   0.4338   0.4338   0.4339   0.4339
     0.6060   0.6060   0.6060   0.6060   0.6585   0.6585   0.6585   0.6585
     1.3654   1.3654   1.3654   1.3654   1.3763   1.3763   1.3763   1.3763
     1.5629   1.5629   1.5629   1.5629   1.5955   1.5955   1.5955   1.5955
     3.9325   3.9325   3.9325   3.9325   3.9644   3.9644   3.9644   3.9644
     4.4265   4.4265   4.4265   4.4265   4.4992   4.4992   4.4992   4.4992
     5.9998   5.9998   5.9998   5.9998   6.0713   6.0713   6.0713   6.0713
     6.4400   6.4400   6.4400   6.4400   6.5928   6.5928   6.5929   6.5929
     7.7254   7.7254   7.7255   7.7255   7.9297   7.9297   7.9298   7.9298
     8.1819   8.1819   8.1819   8.1819   8.3173   8.3173   8.3173   8.3173
     8.4487   8.4487   8.4487   8.4487   8.7327   8.7327

     highest occupied, lowest unoccupied level (ev):     1.8202    3.9079

!    total energy              =   -2785.43689816 Ry
     Harris-Foulkes estimate   =   -2785.43689816 Ry
     estimated scf accuracy    <          7.9E-09 Ry

     total all-electron energy =    -10825.451164 Ry

     The total energy is the sum of the following terms:

     one-electron contribution =   -1567.49331536 Ry
     hartree contribution      =    1000.59451632 Ry
     xc contribution           =    -577.04344672 Ry
     ewald contribution        =    -797.52865408 Ry
     Dispersion Correction     =      -0.71559895 Ry
     one-center paw contrib.   =    -843.25039937 Ry

     convergence has been achieved in  19 iterations

     Forces acting on atoms (cartesian axes, Ry/au):

     atom    1 type  2   force =    -0.00012931   -0.00054946   -0.00037113
     atom    2 type  2   force =     0.00015023   -0.00055127   -0.00036889
     atom    3 type  2   force =    -0.00012931    0.00054946   -0.00037113
     atom    4 type  2   force =     0.00015023    0.00055127   -0.00036889
     atom    5 type  2   force =     0.00012931    0.00054946    0.00037113
     atom    6 type  2   force =    -0.00015023    0.00055127    0.00036889
     atom    7 type  2   force =     0.00012931   -0.00054946    0.00037113
     atom    8 type  2   force =    -0.00015023   -0.00055127    0.00036889
     atom    9 type  2   force =    -0.00086366   -0.00019222    0.00020811
     atom   10 type  2   force =     0.00086965   -0.00018963    0.00020622
     atom   11 type  2   force =    -0.00086366    0.00019222    0.00020811
     atom   12 type  2   force =     0.00086965    0.00018963    0.00020622
     atom   13 type  2   force =     0.00086366    0.00019222   -0.00020811
     atom   14 type  2   force =    -0.00086965    0.00018963   -0.00020622
     atom   15 type  2   force =     0.00086366   -0.00019222   -0.00020811
     atom   16 type  2   force =    -0.00086965   -0.00018963   -0.00020622
     atom   17 type  2   force =     0.00056196    0.00053539   -0.00047739
     atom   18 type  2   force =    -0.00055034    0.00053181   -0.00047469
     atom   19 type  2   force =     0.00056196   -0.00053539   -0.00047739
     atom   20 type  2   force =    -0.00055034   -0.00053181   -0.00047469
     atom   21 type  2   force =    -0.00056196   -0.00053539    0.00047739
     atom   22 type  2   force =     0.00055034   -0.00053181    0.00047469
     atom   23 type  2   force =    -0.00056196    0.00053539    0.00047739
     atom   24 type  2   force =     0.00055034    0.00053181    0.00047469
     atom   25 type  2   force =     0.00010483   -0.00016211   -0.00023657
     atom   26 type  2   force =    -0.00009301   -0.00016005   -0.00023907
     atom   27 type  2   force =     0.00010483    0.00016211   -0.00023657
     atom   28 type  2   force =    -0.00009301    0.00016005   -0.00023907
     atom   29 type  2   force =    -0.00010483    0.00016211    0.00023657
     atom   30 type  2   force =     0.00009301    0.00016005    0.00023907
     atom   31 type  2   force =    -0.00010483   -0.00016211    0.00023657
     atom   32 type  2   force =     0.00009301   -0.00016005    0.00023907
     atom   33 type  4   force =     0.00002719   -0.00072893    0.00116781
     atom   34 type  4   force =    -0.00002761   -0.00072618    0.00116649
     atom   35 type  4   force =     0.00002719    0.00072893    0.00116781
     atom   36 type  4   force =    -0.00002761    0.00072618    0.00116649
     atom   37 type  4   force =    -0.00002719    0.00072893   -0.00116781
     atom   38 type  4   force =     0.00002761    0.00072618   -0.00116649
     atom   39 type  4   force =    -0.00002719   -0.00072893   -0.00116781
     atom   40 type  4   force =     0.00002761   -0.00072618   -0.00116649
     atom   41 type  4   force =    -0.00066970   -0.00004152    0.00011742
     atom   42 type  4   force =     0.00065702   -0.00004543    0.00012190
     atom   43 type  4   force =    -0.00066970    0.00004152    0.00011742
     atom   44 type  4   force =     0.00065702    0.00004543    0.00012190
     atom   45 type  4   force =     0.00066970    0.00004152   -0.00011742
     atom   46 type  4   force =    -0.00065702    0.00004543   -0.00012190
     atom   47 type  4   force =     0.00066970   -0.00004152   -0.00011742
     atom   48 type  4   force =    -0.00065702   -0.00004543   -0.00012190
     atom   49 type  1   force =     0.00090277    0.00057885   -0.00000651
     atom   50 type  1   force =    -0.00089966    0.00057923   -0.00000682
     atom   51 type  1   force =     0.00090277   -0.00057885   -0.00000651
     atom   52 type  1   force =    -0.00089966   -0.00057923   -0.00000682
     atom   53 type  1   force =    -0.00090277   -0.00057885    0.00000651
     atom   54 type  1   force =     0.00089966   -0.00057923    0.00000682
     atom   55 type  1   force =    -0.00090277    0.00057885    0.00000651
     atom   56 type  1   force =     0.00089966    0.00057923    0.00000682
     atom   57 type  1   force =    -0.00056990    0.00036715    0.00038860
     atom   58 type  1   force =     0.00058345    0.00036440    0.00039148
     atom   59 type  1   force =    -0.00056990   -0.00036715    0.00038860
     atom   60 type  1   force =     0.00058345   -0.00036440    0.00039148
     atom   61 type  1   force =     0.00056990   -0.00036715   -0.00038860
     atom   62 type  1   force =    -0.00058345   -0.00036440   -0.00039148
     atom   63 type  1   force =     0.00056990    0.00036715   -0.00038860
     atom   64 type  1   force =    -0.00058345    0.00036440   -0.00039148
     atom   65 type  1   force =    -0.00026649   -0.00043388   -0.00009507
     atom   66 type  1   force =     0.00026546   -0.00043216   -0.00009598
     atom   67 type  1   force =    -0.00026649    0.00043388   -0.00009507
     atom   68 type  1   force =     0.00026546    0.00043216   -0.00009598
     atom   69 type  1   force =     0.00026649    0.00043388    0.00009507
     atom   70 type  1   force =    -0.00026546    0.00043216    0.00009598
     atom   71 type  1   force =     0.00026649   -0.00043388    0.00009507
     atom   72 type  1   force =    -0.00026546   -0.00043216    0.00009598
     atom   73 type  1   force =    -0.00018096   -0.00007991   -0.00017715
     atom   74 type  1   force =     0.00017207   -0.00008026   -0.00017706
     atom   75 type  1   force =    -0.00018096    0.00007991   -0.00017715
     atom   76 type  1   force =     0.00017207    0.00008026   -0.00017706
     atom   77 type  1   force =     0.00018096    0.00007991    0.00017715
     atom   78 type  1   force =    -0.00017207    0.00008026    0.00017706
     atom   79 type  1   force =     0.00018096   -0.00007991    0.00017715
     atom   80 type  1   force =    -0.00017207   -0.00008026    0.00017706
     atom   81 type  1   force =     0.00050880    0.00045209   -0.00025289
     atom   82 type  1   force =    -0.00050245    0.00045594   -0.00025618
     atom   83 type  1   force =     0.00050880   -0.00045209   -0.00025289
     atom   84 type  1   force =    -0.00050245   -0.00045594   -0.00025618
     atom   85 type  1   force =    -0.00050880   -0.00045209    0.00025289
     atom   86 type  1   force =     0.00050245   -0.00045594    0.00025618
     atom   87 type  1   force =    -0.00050880    0.00045209    0.00025289
     atom   88 type  1   force =     0.00050245    0.00045594    0.00025618
     atom   89 type  1   force =    -0.00044475    0.00019613    0.00057380
     atom   90 type  1   force =     0.00046638    0.00019317    0.00057545
     atom   91 type  1   force =    -0.00044475   -0.00019613    0.00057380
     atom   92 type  1   force =     0.00046638   -0.00019317    0.00057545
     atom   93 type  1   force =     0.00044475   -0.00019613   -0.00057380
     atom   94 type  1   force =    -0.00046638   -0.00019317   -0.00057545
     atom   95 type  1   force =     0.00044475    0.00019613   -0.00057380
     atom   96 type  1   force =    -0.00046638    0.00019317   -0.00057545
     atom   97 type  1   force =     0.00017219   -0.00056893    0.00044580
     atom   98 type  1   force =    -0.00015358   -0.00057238    0.00044794
     atom   99 type  1   force =     0.00017219    0.00056893    0.00044580
     atom  100 type  1   force =    -0.00015358    0.00057238    0.00044794
     atom  101 type  1   force =    -0.00017219    0.00056893   -0.00044580
     atom  102 type  1   force =     0.00015358    0.00057238   -0.00044794
     atom  103 type  1   force =    -0.00017219   -0.00056893   -0.00044580
     atom  104 type  1   force =     0.00015358   -0.00057238   -0.00044794
     atom  105 type  1   force =     0.00029332   -0.00003734    0.00008265
     atom  106 type  1   force =    -0.00028046   -0.00003831    0.00008349
     atom  107 type  1   force =     0.00029332    0.00003734    0.00008265
     atom  108 type  1   force =    -0.00028046    0.00003831    0.00008349
     atom  109 type  1   force =    -0.00029332    0.00003734   -0.00008265
     atom  110 type  1   force =     0.00028046    0.00003831   -0.00008349
     atom  111 type  1   force =    -0.00029332   -0.00003734   -0.00008265
     atom  112 type  1   force =     0.00028046   -0.00003831   -0.00008349
     atom  113 type  3   force =    -0.00015864    0.00009377   -0.00004905
     atom  114 type  3   force =     0.00016015    0.00009363   -0.00004891
     atom  115 type  3   force =    -0.00015864   -0.00009377   -0.00004905
     atom  116 type  3   force =     0.00016015   -0.00009363   -0.00004891
     atom  117 type  3   force =     0.00015864   -0.00009377    0.00004905
     atom  118 type  3   force =    -0.00016015   -0.00009363    0.00004891
     atom  119 type  3   force =     0.00015864    0.00009377    0.00004905
     atom  120 type  3   force =    -0.00016015    0.00009363    0.00004891
     atom  121 type  3   force =     0.00029983    0.00005985   -0.00048427
     atom  122 type  3   force =    -0.00029812    0.00006178   -0.00048563
     atom  123 type  3   force =     0.00029983   -0.00005985   -0.00048427
     atom  124 type  3   force =    -0.00029812   -0.00006178   -0.00048563
     atom  125 type  3   force =    -0.00029983   -0.00005985    0.00048427
     atom  126 type  3   force =     0.00029812   -0.00006178    0.00048563
     atom  127 type  3   force =    -0.00029983    0.00005985    0.00048427
     atom  128 type  3   force =     0.00029812    0.00006178    0.00048563
     atom  129 type  3   force =     0.00081105    0.00091514    0.00079626
     atom  130 type  3   force =    -0.00080987    0.00091432    0.00079657
     atom  131 type  3   force =     0.00081105   -0.00091514    0.00079626
     atom  132 type  3   force =    -0.00080987   -0.00091432    0.00079657
     atom  133 type  3   force =    -0.00081105   -0.00091514   -0.00079626
     atom  134 type  3   force =     0.00080987   -0.00091432   -0.00079657
     atom  135 type  3   force =    -0.00081105    0.00091514   -0.00079626
     atom  136 type  3   force =     0.00080987    0.00091432   -0.00079657
     atom  137 type  3   force =    -0.00017977   -0.00019231    0.00003345
     atom  138 type  3   force =     0.00018123   -0.00019353    0.00003415
     atom  139 type  3   force =    -0.00017977    0.00019231    0.00003345
     atom  140 type  3   force =     0.00018123    0.00019353    0.00003415
     atom  141 type  3   force =     0.00017977    0.00019231   -0.00003345
     atom  142 type  3   force =    -0.00018123    0.00019353   -0.00003415
     atom  143 type  3   force =     0.00017977   -0.00019231   -0.00003345
     atom  144 type  3   force =    -0.00018123   -0.00019353   -0.00003415

     Total force =     0.009365     Total SCF correction =     0.000224


     Computing stress (Cartesian axis) and pressure

          total   stress  (Ry/bohr**3)                   (kbar)     P=   -4.89
  -0.00003461   0.00000000  -0.00000000         -5.09      0.00     -0.00
   0.00000000  -0.00003004   0.00000000          0.00     -4.42      0.00
  -0.00000000   0.00000000  -0.00003507         -0.00      0.00     -5.16


     Writing output data file scf.save
 
     init_run     :     90.71s CPU     93.49s WALL (       1 calls)
     electrons    :   4063.98s CPU   4181.61s WALL (       1 calls)
     forces       :     46.75s CPU     47.19s WALL (       1 calls)
     stress       :    231.67s CPU    232.20s WALL (       1 calls)

     Called by init_run:
     wfcinit      :     81.21s CPU     83.73s WALL (       1 calls)
     potinit      :      3.25s CPU      3.31s WALL (       1 calls)

     Called by electrons:
     c_bands      :   3708.83s CPU   3808.80s WALL (      19 calls)
     sum_band     :    329.37s CPU    343.67s WALL (      19 calls)
     v_of_rho     :      3.90s CPU      4.32s WALL (      20 calls)
     newd         :     10.32s CPU     13.14s WALL (      20 calls)
     PAW_pot      :     10.85s CPU     10.86s WALL (      20 calls)
     mix_rho      :      0.90s CPU      1.02s WALL (      19 calls)

     Called by c_bands:
     init_us_2    :     11.34s CPU     11.43s WALL (     164 calls)
     cegterg      :   3654.96s CPU   3754.86s WALL (      76 calls)

     Called by sum_band:
     sum_band:bec :      0.17s CPU      0.17s WALL (      76 calls)
     addusdens    :     10.53s CPU     13.20s WALL (      19 calls)

     Called by *egterg:
     h_psi        :   1749.08s CPU   1828.48s WALL (     457 calls)
     s_psi        :    501.47s CPU    501.59s WALL (     457 calls)
     g_psi        :      6.16s CPU      6.16s WALL (     377 calls)
     cdiaghg      :    259.33s CPU    259.39s WALL (     453 calls)

     Called by h_psi:
     h_psi:pot    :   1740.34s CPU   1819.61s WALL (     457 calls)
     h_psi:calbec :    492.18s CPU    492.81s WALL (     457 calls)
     vloc_psi     :    746.73s CPU    825.21s WALL (     457 calls)
     add_vuspsi   :    501.44s CPU    501.59s WALL (     457 calls)

     General routines
     calbec       :    708.20s CPU    709.08s WALL (     553 calls)
     fft          :      2.95s CPU      3.69s WALL (     284 calls)
     fftw         :    797.32s CPU    886.86s WALL (  164938 calls)
 
     Parallel routines
     fft_scatter  :    140.82s CPU    230.55s WALL (  165222 calls)
 
     PWSCF        :     1h14m CPU        1h16m WALL

 
   This run was terminated on:   6:50:28   5Nov2017            

=------------------------------------------------------------------------------=
   JOB DONE.
=------------------------------------------------------------------------------=
