
     Program PWSCF v.6.1 (svn rev. 13369) starts on  4Nov2017 at  4:43: 5 

     This program is part of the open-source Quantum ESPRESSO suite
     for quantum simulation of materials; please cite
         "P. Giannozzi et al., J. Phys.:Condens. Matter 21 395502 (2009);
          URL http://www.quantum-espresso.org", 
     in publications or presentations arising from this work. More details at
     http://www.quantum-espresso.org/quote

     Parallel version (MPI), running on     8 processors
     R & G space division:  proc/nbgrp/npool/nimage =       8
     Waiting for input...
     Reading input from standard input

     Current dimensions of program PWSCF are:
     Max number of different atomic species (ntypx) = 10
     Max number of k-points (npk) =  40000
     Max angular momentum in pseudopotentials (lmaxx) =  3
               file C.pbe-n-kjpaw_psl.0.1.UPF: wavefunction(s)  2P renormalized
               file N.pbe-n-kjpaw_psl.0.1.UPF: wavefunction(s)  2P renormalized
               file H.pbe-kjpaw_psl.0.1.UPF: wavefunction(s)  1S renormalized
               file O.pbe-n-kjpaw_psl.0.1.UPF: wavefunction(s)  2P renormalized

     -------------------------------------
     Parameters for Dispersion Correction:
     -------------------------------------
       atom      VdW radius       C_6     

        C          2.744         60.710
        N          2.640         42.670
        H          1.892          4.857
        O          2.536         24.284

     Subspace diagonalization in iterative solution of the eigenvalue problem:
     a serial algorithm will be used

 
     Parallelization info
     --------------------
     sticks:   dense  smooth     PW     G-vecs:    dense   smooth      PW
     Min         695     695    182               168693   168693   22542
     Max         696     696    183               168704   168704   22555
     Sum        5567    5567   1457              1349609  1349609  180351
 


     bravais-lattice index     =            0
     lattice parameter (alat)  =      13.1234  a.u.
     unit-cell volume          =    9989.0049 (a.u.)^3
     number of atoms/cell      =          152
     number of atomic types    =            4
     number of electrons       =       432.00
     number of Kohn-Sham states=          259
     kinetic-energy cutoff     =     100.0000  Ry
     charge density cutoff     =     400.0000  Ry
     convergence threshold     =      1.0E-08
     mixing beta               =       0.5000
     number of iterations used =            8  plain     mixing
     Exchange-correlation      =  SLA  PW   PBX  PBC ( 1  4  3  4 0 0)

     celldm(1)=  13.123392  celldm(2)=   0.000000  celldm(3)=   0.000000
     celldm(4)=   0.000000  celldm(5)=   0.000000  celldm(6)=   0.000000

     crystal axes: (cart. coord. in units of alat)
               a(1) = (   1.000000   0.000000   0.000000 )  
               a(2) = (   0.000000   1.014760   0.000000 )  
               a(3) = (   0.000000   0.000000   4.355326 )  

     reciprocal axes: (cart. coord. in units 2 pi/alat)
               b(1) = (  1.000000  0.000000  0.000000 )  
               b(2) = (  0.000000  0.985455  0.000000 )  
               b(3) = (  0.000000  0.000000  0.229604 )  


     PseudoPot. # 1 for  C read from file:
     /scratch/ahofstet/pseudo/C.pbe-n-kjpaw_psl.0.1.UPF
     MD5 check sum: 430fe95172b1e11ef3f8ed03bac87931
     Pseudo is Projector augmented-wave + core cor, Zval =  4.0
     Generated using "atomic" code by A. Dal Corso  v.5.0.99 svn rev. 10869
     Shape of augmentation charge: BESSEL
     Using radial grid of 1073 points,  4 beta functions with: 
                l(1) =   0
                l(2) =   0
                l(3) =   1
                l(4) =   1
     Q(r) pseudized with 0 coefficients 


     PseudoPot. # 2 for  N read from file:
     /scratch/ahofstet/pseudo/N.pbe-n-kjpaw_psl.0.1.UPF
     MD5 check sum: f73187c8b701007e77325f868c9291d7
     Pseudo is Projector augmented-wave + core cor, Zval =  5.0
     Generated using "atomic" code by A. Dal Corso  v.5.0.99 svn rev. 10869
     Shape of augmentation charge: PSQ
     Using radial grid of 1085 points,  4 beta functions with: 
                l(1) =   0
                l(2) =   0
                l(3) =   1
                l(4) =   1
     Q(r) pseudized with 0 coefficients 


     PseudoPot. # 3 for  H read from file:
     /scratch/ahofstet/pseudo/H.pbe-kjpaw_psl.0.1.UPF
     MD5 check sum: 94e484f906d9e9773b2f6e52662335b2
     Pseudo is Projector augmented-wave, Zval =  1.0
     Generated using "atomic" code by A. Dal Corso  v.5.0.99 svn rev. 10869
     Shape of augmentation charge: PSQ
     Using radial grid of  929 points,  2 beta functions with: 
                l(1) =   0
                l(2) =   0
     Q(r) pseudized with 0 coefficients 


     PseudoPot. # 4 for  O read from file:
     /scratch/ahofstet/pseudo/O.pbe-n-kjpaw_psl.0.1.UPF
     MD5 check sum: 3f94a2996a3169367d6eb21d9b593f20
     Pseudo is Projector augmented-wave + core cor, Zval =  6.0
     Generated using "atomic" code by A. Dal Corso  v.5.0.99 svn rev. 10869
     Shape of augmentation charge: BESSEL
     Using radial grid of 1095 points,  4 beta functions with: 
                l(1) =   0
                l(2) =   0
                l(3) =   1
                l(4) =   1
     Q(r) pseudized with 0 coefficients 


     atomic species   valence    mass     pseudopotential
        C              4.00    12.01070      C( 1.00)
        N              5.00    14.00670      N( 1.00)
        H              1.00     1.00794      H( 1.00)
        O              6.00    15.99940      O( 1.00)

      4 Sym. Ops., with inversion, found ( 2 have fractional translation)
          (note:  4 additional sym.ops. were found but ignored
           their fractional translations are incommensurate with FFT grid)


   Cartesian axes

     site n.     atom                  positions (alat units)
         1           N   tau(   1) = (   0.0027484   0.2429932   2.3413481  )
         2           N   tau(   2) = (   0.4972516   0.7717665   0.1636849  )
         3           N   tau(   3) = (   0.5027484   0.2643866   2.0139783  )
         4           N   tau(   4) = (   0.9972516   0.7503730   4.1916415  )
         5           N   tau(   5) = (   0.9972516   0.7717665   2.0139783  )
         6           N   tau(   6) = (   0.5027484   0.2429932   4.1916415  )
         7           N   tau(   7) = (   0.4972516   0.7503730   2.3413481  )
         8           N   tau(   8) = (   0.0027484   0.2643866   0.1636849  )
         9           H   tau(   9) = (   0.9725673   0.2711176   2.1943065  )
        10           H   tau(  10) = (   0.5274327   0.7436421   0.0166433  )
        11           H   tau(  11) = (   0.4725673   0.2362622   2.1610199  )
        12           H   tau(  12) = (   0.0274327   0.7784974   4.3386831  )
        13           H   tau(  13) = (   0.0274327   0.7436421   2.1610199  )
        14           H   tau(  14) = (   0.4725673   0.2711176   4.3386831  )
        15           H   tau(  15) = (   0.5274327   0.7784974   2.1943065  )
        16           H   tau(  16) = (   0.9725673   0.2362622   0.0166433  )
        17           H   tau(  17) = (   0.1511858   0.2426693   2.3659538  )
        18           H   tau(  18) = (   0.3488142   0.7720904   0.1882906  )
        19           H   tau(  19) = (   0.6511858   0.2647106   1.9893726  )
        20           H   tau(  20) = (   0.8488142   0.7500491   4.1670358  )
        21           H   tau(  21) = (   0.8488142   0.7720904   1.9893726  )
        22           H   tau(  22) = (   0.6511858   0.2426693   4.1670358  )
        23           H   tau(  23) = (   0.3488142   0.7500491   2.3659538  )
        24           H   tau(  24) = (   0.1511858   0.2647106   0.1882906  )
        25           H   tau(  25) = (   0.9476833   0.1064665   2.3788317  )
        26           H   tau(  26) = (   0.5523167   0.9082932   0.2011685  )
        27           H   tau(  27) = (   0.4476833   0.4009133   1.9764947  )
        28           H   tau(  28) = (   0.0523167   0.6138463   4.1541579  )
        29           H   tau(  29) = (   0.0523167   0.9082932   1.9764947  )
        30           H   tau(  30) = (   0.4476833   0.1064665   4.1541579  )
        31           H   tau(  31) = (   0.5523167   0.6138463   2.3788317  )
        32           H   tau(  32) = (   0.9476833   0.4009133   0.2011685  )
        33           H   tau(  33) = (   0.9329895   0.3452320   2.4227024  )
        34           H   tau(  34) = (   0.5670105   0.6695276   0.2450392  )
        35           H   tau(  35) = (   0.4329895   0.1621478   1.9326240  )
        36           H   tau(  36) = (   0.0670105   0.8526119   4.1102873  )
        37           H   tau(  37) = (   0.0670105   0.6695276   1.9326240  )
        38           H   tau(  38) = (   0.4329895   0.3452320   4.1102873  )
        39           H   tau(  39) = (   0.5670105   0.8526119   2.4227024  )
        40           H   tau(  40) = (   0.9329895   0.1621478   0.2450392  )
        41           O   tau(  41) = (   0.1378936   0.1095778   1.8901411  )
        42           O   tau(  42) = (   0.3621064   0.9051819   4.0678043  )
        43           O   tau(  43) = (   0.6378936   0.3978021   2.4651854  )
        44           O   tau(  44) = (   0.8621064   0.6169576   0.2875221  )
        45           O   tau(  45) = (   0.8621064   0.9051819   2.4651854  )
        46           O   tau(  46) = (   0.6378936   0.1095778   0.2875221  )
        47           O   tau(  47) = (   0.3621064   0.6169576   1.8901411  )
        48           O   tau(  48) = (   0.1378936   0.3978021   4.0678043  )
        49           O   tau(  49) = (   0.9049588   0.3236577   1.9604858  )
        50           O   tau(  50) = (   0.5950412   0.6911020   4.1381490  )
        51           O   tau(  51) = (   0.4049588   0.1837221   2.3948407  )
        52           O   tau(  52) = (   0.0950412   0.8310375   0.2171775  )
        53           O   tau(  53) = (   0.0950412   0.6911020   2.3948407  )
        54           O   tau(  54) = (   0.4049588   0.3236577   0.2171775  )
        55           O   tau(  55) = (   0.5950412   0.8310375   1.9604858  )
        56           O   tau(  56) = (   0.9049588   0.1837221   4.1381490  )
        57           C   tau(  57) = (   0.0190108   0.2396991   1.8426670  )
        58           C   tau(  58) = (   0.4809892   0.7750606   4.0203302  )
        59           C   tau(  59) = (   0.5190108   0.2676808   2.5126595  )
        60           C   tau(  60) = (   0.9809892   0.7470789   0.3349962  )
        61           C   tau(  61) = (   0.9809892   0.7750606   2.5126595  )
        62           C   tau(  62) = (   0.5190108   0.2396991   0.3349962  )
        63           C   tau(  63) = (   0.4809892   0.7470789   1.8426670  )
        64           C   tau(  64) = (   0.0190108   0.2676808   4.0203302  )
        65           C   tau(  65) = (   0.0112311   0.3022391   1.6343123  )
        66           C   tau(  66) = (   0.4887689   0.7125205   3.8119755  )
        67           C   tau(  67) = (   0.5112311   0.2051407   2.7210142  )
        68           C   tau(  68) = (   0.9887689   0.8096190   0.5433510  )
        69           C   tau(  69) = (   0.9887689   0.7125205   2.7210142  )
        70           C   tau(  70) = (   0.5112311   0.3022391   0.5433510  )
        71           C   tau(  71) = (   0.4887689   0.8096190   1.6343123  )
        72           C   tau(  72) = (   0.0112311   0.2051407   3.8119755  )
        73           C   tau(  73) = (   0.8777128   0.4415945   1.5747262  )
        74           C   tau(  74) = (   0.6222872   0.5731652   3.7523894  )
        75           C   tau(  75) = (   0.3777128   0.0657854   2.7806003  )
        76           C   tau(  76) = (   0.1222872   0.9489743   0.6029371  )
        77           C   tau(  77) = (   0.1222872   0.5731652   2.7806003  )
        78           C   tau(  78) = (   0.3777128   0.4415945   0.6029371  )
        79           C   tau(  79) = (   0.6222872   0.9489743   1.5747262  )
        80           C   tau(  80) = (   0.8777128   0.0657854   3.7523894  )
        81           H   tau(  81) = (   0.7797355   0.5031155   1.6806353  )
        82           H   tau(  82) = (   0.7202645   0.5116441   3.8582985  )
        83           H   tau(  83) = (   0.2797355   0.0042643   2.6746912  )
        84           H   tau(  84) = (   0.2202645   1.0104954   0.4970279  )
        85           H   tau(  85) = (   0.2202645   0.5116441   2.6746912  )
        86           H   tau(  86) = (   0.2797355   0.5031155   0.4970279  )
        87           H   tau(  87) = (   0.7202645   1.0104954   1.6806353  )
        88           H   tau(  88) = (   0.7797355   0.0042643   3.8582985  )
        89           C   tau(  89) = (   0.8697895   0.5008914   1.3829342  )
        90           C   tau(  90) = (   0.6302105   0.5138683   3.5605974  )
        91           C   tau(  91) = (   0.3697895   0.0064884   2.9723922  )
        92           C   tau(  92) = (   0.1302105   1.0082712   0.7947290  )
        93           C   tau(  93) = (   0.1302105   0.5138683   2.9723922  )
        94           C   tau(  94) = (   0.3697895   0.5008914   0.7947290  )
        95           C   tau(  95) = (   0.6302105   1.0082712   1.3829342  )
        96           C   tau(  96) = (   0.8697895   0.0064884   3.5605974  )
        97           H   tau(  97) = (   0.7647782   0.6097075   1.3398681  )
        98           H   tau(  98) = (   0.7352218   0.4050522   3.5175313  )
        99           H   tau(  99) = (   0.2647782   0.9124320   3.0154584  )
       100           H   tau( 100) = (   0.2352218   0.1023277   0.8377951  )
       101           H   tau( 101) = (   0.2352218   0.4050522   3.0154584  )
       102           H   tau( 102) = (   0.2647782   0.6097075   0.8377951  )
       103           H   tau( 103) = (   0.7352218   0.1023277   1.3398681  )
       104           H   tau( 104) = (   0.7647782   0.9124320   3.5175313  )
       105           C   tau( 105) = (   0.9970743   0.4213464   1.2486723  )
       106           C   tau( 106) = (   0.5029257   0.5934132   3.4263355  )
       107           C   tau( 107) = (   0.4970743   0.0860334   3.1066542  )
       108           C   tau( 108) = (   0.0029257   0.9287263   0.9289910  )
       109           C   tau( 109) = (   0.0029257   0.5934132   3.1066542  )
       110           C   tau( 110) = (   0.4970743   0.4213464   0.9289910  )
       111           C   tau( 111) = (   0.5029257   0.9287263   1.2486723  )
       112           C   tau( 112) = (   0.9970743   0.0860334   3.4263355  )
       113           H   tau( 113) = (   0.9925206   0.4677770   1.0985837  )
       114           H   tau( 114) = (   0.5074794   0.5469827   3.2762469  )
       115           H   tau( 115) = (   0.4925206   0.0396028   3.2567428  )
       116           H   tau( 116) = (   0.0074794   0.9751569   1.0790795  )
       117           H   tau( 117) = (   0.0074794   0.5469827   3.2567428  )
       118           H   tau( 118) = (   0.4925206   0.4677770   1.0790795  )
       119           H   tau( 119) = (   0.5074794   0.9751569   1.0985837  )
       120           H   tau( 120) = (   0.9925206   0.0396028   3.2762469  )
       121           C   tau( 121) = (   0.1309282   0.2825137   1.3068855  )
       122           C   tau( 122) = (   0.3690718   0.7322460   3.4845487  )
       123           C   tau( 123) = (   0.6309282   0.2248662   3.0484409  )
       124           C   tau( 124) = (   0.8690718   0.7898935   0.8707777  )
       125           C   tau( 125) = (   0.8690718   0.7322460   3.0484409  )
       126           C   tau( 126) = (   0.6309282   0.2825137   0.8707777  )
       127           C   tau( 127) = (   0.3690718   0.7898935   1.3068855  )
       128           C   tau( 128) = (   0.1309282   0.2248662   3.4845487  )
       129           H   tau( 129) = (   0.2317199   0.2217470   1.2028654  )
       130           H   tau( 130) = (   0.2682801   0.7930127   3.3805286  )
       131           H   tau( 131) = (   0.7317199   0.2856329   3.1524610  )
       132           H   tau( 132) = (   0.7682801   0.7291268   0.9747978  )
       133           H   tau( 133) = (   0.7682801   0.7930127   3.1524610  )
       134           H   tau( 134) = (   0.7317199   0.2217470   0.9747978  )
       135           H   tau( 135) = (   0.2682801   0.7291268   1.2028654  )
       136           H   tau( 136) = (   0.2317199   0.2856329   3.3805286  )
       137           C   tau( 137) = (   0.1376653   0.2223970   1.4984666  )
       138           C   tau( 138) = (   0.3623347   0.7923627   3.6761298  )
       139           C   tau( 139) = (   0.6376653   0.2849828   2.8568599  )
       140           C   tau( 140) = (   0.8623347   0.7297768   0.6791967  )
       141           C   tau( 141) = (   0.8623347   0.7923627   2.8568599  )
       142           C   tau( 142) = (   0.6376653   0.2223970   0.6791967  )
       143           C   tau( 143) = (   0.3623347   0.7297768   1.4984666  )
       144           C   tau( 144) = (   0.1376653   0.2849828   3.6761298  )
       145           H   tau( 145) = (   0.2412544   0.1138480   1.5444599  )
       146           H   tau( 146) = (   0.2587456   0.9009117   3.7221231  )
       147           H   tau( 147) = (   0.7412544   0.3935318   2.8108666  )
       148           H   tau( 148) = (   0.7587456   0.6212278   0.6332033  )
       149           H   tau( 149) = (   0.7587456   0.9009117   2.8108666  )
       150           H   tau( 150) = (   0.7412544   0.1138480   0.6332033  )
       151           H   tau( 151) = (   0.2587456   0.6212278   1.5444599  )
       152           H   tau( 152) = (   0.2412544   0.3935318   3.7221231  )

     number of k points=     4
                       cart. coord. in units 2pi/alat
        k(    1) = (   0.0000000   0.0000000   0.0000000), wk =   0.2222222
        k(    2) = (   0.0000000   0.3284850   0.0000000), wk =   0.4444444
        k(    3) = (   0.3333333   0.0000000   0.0000000), wk =   0.4444444
        k(    4) = (   0.3333333   0.3284850   0.0000000), wk =   0.8888889

     Dense  grid:  1349609 G-vectors     FFT dimensions: (  90,  90, 375)

     Estimated max dynamical RAM per process >    1472.80MB

     Estimated total allocated dynamical RAM >   11782.36MB

     Check: negative/imaginary core charge=   -0.000002    0.000000

     Initial potential from superposition of free atoms

     starting charge  431.99690, renormalised to  432.00000
     Starting wfc are  392 randomized atomic wfcs
     Checking if some PAW data can be deallocated... 

     total cpu time spent up to now is       57.6 secs

     per-process dynamical memory:   840.9 Mb

     Self-consistent Calculation

     iteration #  1     ecut=   100.00 Ry     beta=0.50
     Davidson diagonalization with overlap
     ethr =  1.00E-02,  avg # of iterations =  4.8

     total cpu time spent up to now is      213.1 secs

     total energy              =   -2008.27164352 Ry
     Harris-Foulkes estimate   =   -2017.44726127 Ry
     estimated scf accuracy    <      16.89988884 Ry

     iteration #  2     ecut=   100.00 Ry     beta=0.50
     Davidson diagonalization with overlap
     ethr =  3.91E-03,  avg # of iterations =  3.0

     total cpu time spent up to now is      308.5 secs

     total energy              =   -2010.02112358 Ry
     Harris-Foulkes estimate   =   -2010.98671023 Ry
     estimated scf accuracy    <       2.01381377 Ry

     iteration #  3     ecut=   100.00 Ry     beta=0.50
     Davidson diagonalization with overlap
     ethr =  4.66E-04,  avg # of iterations =  6.0

     total cpu time spent up to now is      488.7 secs

     total energy              =   -2011.28988689 Ry
     Harris-Foulkes estimate   =   -2011.83105188 Ry
     estimated scf accuracy    <       1.36694524 Ry

     iteration #  4     ecut=   100.00 Ry     beta=0.50
     Davidson diagonalization with overlap
     ethr =  3.16E-04,  avg # of iterations =  3.2

     total cpu time spent up to now is      571.4 secs

     total energy              =   -2011.15789161 Ry
     Harris-Foulkes estimate   =   -2011.37787392 Ry
     estimated scf accuracy    <       0.36778997 Ry

     iteration #  5     ecut=   100.00 Ry     beta=0.50
     Davidson diagonalization with overlap
     ethr =  8.51E-05,  avg # of iterations =  7.2

     total cpu time spent up to now is      747.5 secs

     total energy              =   -2011.41847287 Ry
     Harris-Foulkes estimate   =   -2011.56648249 Ry
     estimated scf accuracy    <       0.43230888 Ry

     iteration #  6     ecut=   100.00 Ry     beta=0.50
     Davidson diagonalization with overlap
     ethr =  8.51E-05,  avg # of iterations =  1.5

     total cpu time spent up to now is      825.4 secs

     total energy              =   -2011.36776326 Ry
     Harris-Foulkes estimate   =   -2011.43602181 Ry
     estimated scf accuracy    <       0.17922529 Ry

     iteration #  7     ecut=   100.00 Ry     beta=0.50
     Davidson diagonalization with overlap
     ethr =  4.15E-05,  avg # of iterations =  5.0

     total cpu time spent up to now is      946.2 secs

     total energy              =   -2011.42277590 Ry
     Harris-Foulkes estimate   =   -2011.42348446 Ry
     estimated scf accuracy    <       0.00214012 Ry

     iteration #  8     ecut=   100.00 Ry     beta=0.50
     Davidson diagonalization with overlap
     ethr =  4.95E-07,  avg # of iterations =  5.2

     total cpu time spent up to now is     1120.5 secs

     total energy              =   -2011.42343152 Ry
     Harris-Foulkes estimate   =   -2011.42457745 Ry
     estimated scf accuracy    <       0.00230026 Ry

     iteration #  9     ecut=   100.00 Ry     beta=0.50
     Davidson diagonalization with overlap
     ethr =  4.95E-07,  avg # of iterations =  3.5

     total cpu time spent up to now is     1205.5 secs

     total energy              =   -2011.42353430 Ry
     Harris-Foulkes estimate   =   -2011.42368946 Ry
     estimated scf accuracy    <       0.00028732 Ry

     iteration # 10     ecut=   100.00 Ry     beta=0.50
     Davidson diagonalization with overlap
     ethr =  6.65E-08,  avg # of iterations =  7.5

     total cpu time spent up to now is     1373.2 secs

     total energy              =   -2011.42387188 Ry
     Harris-Foulkes estimate   =   -2011.42408212 Ry
     estimated scf accuracy    <       0.00048320 Ry

     iteration # 11     ecut=   100.00 Ry     beta=0.50
     Davidson diagonalization with overlap
     ethr =  6.65E-08,  avg # of iterations =  3.8

     total cpu time spent up to now is     1462.0 secs

     total energy              =   -2011.42386132 Ry
     Harris-Foulkes estimate   =   -2011.42390536 Ry
     estimated scf accuracy    <       0.00008991 Ry

     iteration # 12     ecut=   100.00 Ry     beta=0.50
     Davidson diagonalization with overlap
     ethr =  2.08E-08,  avg # of iterations =  4.0

     total cpu time spent up to now is     1598.6 secs

     total energy              =   -2011.42392382 Ry
     Harris-Foulkes estimate   =   -2011.42393045 Ry
     estimated scf accuracy    <       0.00001754 Ry

     iteration # 13     ecut=   100.00 Ry     beta=0.50
     Davidson diagonalization with overlap
     ethr =  4.06E-09,  avg # of iterations =  1.0

     total cpu time spent up to now is     1675.8 secs

     total energy              =   -2011.42392222 Ry
     Harris-Foulkes estimate   =   -2011.42392453 Ry
     estimated scf accuracy    <       0.00000641 Ry

     iteration # 14     ecut=   100.00 Ry     beta=0.50
     Davidson diagonalization with overlap
     ethr =  1.48E-09,  avg # of iterations =  4.0

     total cpu time spent up to now is     1800.2 secs

     total energy              =   -2011.42392492 Ry
     Harris-Foulkes estimate   =   -2011.42392496 Ry
     estimated scf accuracy    <       0.00000014 Ry

     iteration # 15     ecut=   100.00 Ry     beta=0.50
     Davidson diagonalization with overlap
     ethr =  3.25E-11,  avg # of iterations =  3.0

     total cpu time spent up to now is     1900.2 secs

     total energy              =   -2011.42392495 Ry
     Harris-Foulkes estimate   =   -2011.42392495 Ry
     estimated scf accuracy    <       0.00000002 Ry

     iteration # 16     ecut=   100.00 Ry     beta=0.50
     Davidson diagonalization with overlap
     ethr =  4.65E-12,  avg # of iterations =  4.0

     total cpu time spent up to now is     2053.4 secs

     total energy              =   -2011.42392496 Ry
     Harris-Foulkes estimate   =   -2011.42392497 Ry
     estimated scf accuracy    <       0.00000002 Ry

     iteration # 17     ecut=   100.00 Ry     beta=0.50
     Davidson diagonalization with overlap
     ethr =  4.07E-12,  avg # of iterations =  1.0

     total cpu time spent up to now is     2130.5 secs

     End of self-consistent calculation

          k = 0.0000 0.0000 0.0000 (168603 PWs)   bands (ev):

   -20.4110 -20.4110 -20.3771 -20.3771 -20.3556 -20.3555 -20.3530 -20.3530
   -18.0896 -18.0895 -18.0753 -18.0752 -18.0509 -18.0508 -18.0472 -18.0471
   -17.1632 -17.1632 -17.1544 -17.1543 -17.1125 -17.1125 -17.1081 -17.1080
   -15.5584 -15.5570 -15.5166 -15.5152 -15.4044 -15.4044 -15.4043 -15.4042
   -12.9428 -12.9401 -12.8283 -12.8277 -12.8277 -12.8248 -12.8214 -12.8208
   -12.6571 -12.6569 -12.6203 -12.6203 -12.6123 -12.6116 -12.5976 -12.5970
    -9.6361  -9.6316  -9.6243  -9.6204  -9.5868  -9.5728  -9.5584  -9.5449
    -9.0929  -9.0886  -9.0373  -9.0312  -8.9848  -8.9793  -8.9765  -8.9729
    -7.8259  -7.8163  -7.7909  -7.7806  -7.7202  -7.7169  -7.6614  -7.6115
    -7.3395  -7.3009  -7.1983  -7.1980  -7.1046  -7.0997  -7.0617  -7.0545
    -6.9770  -6.9743  -6.9336  -6.9327  -6.9123  -6.8947  -6.8923  -6.7953
    -6.7277  -6.7250  -6.7130  -6.6919  -6.6832  -6.6815  -6.6553  -6.6324
    -6.5288  -6.3942  -6.1790  -6.1787  -6.1541  -6.1516  -5.9717  -5.9604
    -5.3287  -5.3207  -5.3148  -5.2868  -5.2495  -5.2425  -5.2358  -5.2308
    -5.2227  -5.2007  -5.1908  -5.1899  -5.1301  -5.1263  -5.1233  -5.0967
    -4.9777  -4.9432  -4.8004  -4.7946  -4.7903  -4.7817  -4.7229  -4.7167
    -4.6340  -4.6314  -4.6263  -4.6074  -4.5815  -4.5781  -4.5779  -4.5558
    -4.2244  -4.2239  -4.2183  -4.1922  -4.1693  -4.1660  -4.1235  -4.1228
    -4.1227  -4.0809  -4.0526  -4.0495  -4.0047  -4.0008  -3.9505  -3.9377
    -3.0487  -3.0386  -3.0370  -3.0253  -2.9974  -2.9796  -2.9318  -2.9270
    -2.8498  -2.8485  -2.8413  -2.8400  -2.7358  -2.7235  -2.6144  -2.6053
    -2.3792  -2.3700  -2.3691  -2.3684  -2.2954  -2.2877  -2.2749  -2.2734
    -1.2904  -1.2843  -1.1864  -1.1834  -1.0334  -1.0331  -0.9353  -0.9349
    -0.9211  -0.9200  -0.8892  -0.8855  -0.6577  -0.6380  -0.6240  -0.6152
    -0.5793  -0.5727  -0.5620  -0.5225  -0.5040  -0.4769  -0.4692  -0.4604
    -0.4571  -0.4142  -0.4070  -0.4052  -0.2394  -0.2375  -0.2141  -0.2118
    -0.1031  -0.0984  -0.0755  -0.0751  -0.0743  -0.0686  -0.0678  -0.0674
     3.7038   3.7092   3.7928   3.8069   3.8303   3.8369   3.8963   3.9106
     4.2159   4.2225   4.2375   4.2405   4.7539   4.7550   4.8459   4.8463
     5.3311   5.4993   5.6458   6.1090   6.1247   6.1340   6.1448   6.2176
     6.2622   6.2675   6.2820   6.3373   6.3597   6.7976   6.8017   7.0890
     7.1368   7.1567   7.2093   7.2755   7.7630   7.7637   7.7642   7.7845
     7.8331   7.9208   7.9602

          k = 0.0000 0.3285 0.0000 (168628 PWs)   bands (ev):

   -20.3964 -20.3964 -20.3693 -20.3693 -20.3692 -20.3692 -20.3566 -20.3565
   -18.1058 -18.1058 -18.0996 -18.0995 -18.0495 -18.0495 -18.0465 -18.0465
   -17.1584 -17.1584 -17.1544 -17.1544 -17.0950 -17.0950 -17.0926 -17.0926
   -15.5213 -15.5196 -15.4892 -15.4875 -15.4446 -15.4431 -15.4332 -15.4318
   -12.9135 -12.9092 -12.8558 -12.8523 -12.8259 -12.8232 -12.8217 -12.8195
   -12.6421 -12.6419 -12.6187 -12.6186 -12.6152 -12.6148 -12.6122 -12.6119
    -9.6256  -9.6198  -9.6119  -9.6060  -9.6005  -9.5930  -9.5743  -9.5690
    -9.0664  -9.0642  -9.0241  -9.0207  -9.0130  -9.0100  -8.9936  -8.9919
    -7.8302  -7.8034  -7.7740  -7.7661  -7.7648  -7.7415  -7.6920  -7.6726
    -7.3064  -7.2668  -7.2163  -7.2017  -7.0679  -7.0664  -7.0543  -7.0420
    -7.0092  -6.9930  -6.9857  -6.9473  -6.9288  -6.9229  -6.9189  -6.8820
    -6.8216  -6.7755  -6.7659  -6.7420  -6.6579  -6.6440  -6.6404  -6.6089
    -6.2898  -6.2513  -6.1645  -6.1644  -6.0408  -6.0231  -5.9695  -5.9546
    -5.3415  -5.3396  -5.3182  -5.2903  -5.2677  -5.2538  -5.2377  -5.2237
    -5.1891  -5.1769  -5.1494  -5.1434  -5.1170  -5.1120  -5.0852  -5.0777
    -4.9339  -4.8870  -4.8105  -4.7840  -4.7826  -4.7389  -4.7080  -4.6537
    -4.5670  -4.5630  -4.5369  -4.5241  -4.4994  -4.4987  -4.4588  -4.4503
    -4.3043  -4.2942  -4.2870  -4.2689  -4.2327  -4.2207  -4.2176  -4.2096
    -4.1907  -4.1857  -4.1446  -4.1318  -4.0443  -4.0379  -4.0273  -4.0260
    -3.2772  -3.2649  -3.2556  -3.2425  -3.1477  -3.1270  -3.1206  -3.1013
    -2.7475  -2.7433  -2.7429  -2.7373  -2.7262  -2.7180  -2.6345  -2.6285
    -2.2813  -2.2769  -2.2760  -2.2760  -2.2498  -2.2455  -2.2373  -2.2354
    -1.1228  -1.1227  -1.0606  -1.0583  -0.9922  -0.9921  -0.9233  -0.9217
    -0.7608  -0.7559  -0.7438  -0.7413  -0.6585  -0.6445  -0.6356  -0.6270
    -0.5738  -0.5634  -0.5531  -0.5527  -0.5285  -0.5093  -0.5018  -0.4943
    -0.4548  -0.4405  -0.4223  -0.4201  -0.4127  -0.4104  -0.3950  -0.3888
    -0.0710  -0.0673  -0.0542  -0.0513  -0.0501  -0.0459  -0.0398  -0.0362
     3.7283   3.7601   3.7619   3.7879   3.8019   3.8149   3.8219   3.8570
     4.3522   4.3564   4.3570   4.3609   4.6064   4.6089   4.6700   4.6711
     5.7811   5.8919   6.0470   6.0902   6.1392   6.1629   6.1770   6.1889
     6.1899   6.2102   6.2350   6.5119   6.5326   6.8711   6.9987   7.0462
     7.0690   7.1347   7.3233   7.3560   7.3696   7.3928   7.5852   7.6254
     7.7894   7.8756   7.8868

          k = 0.3333 0.0000 0.0000 (168742 PWs)   bands (ev):

   -20.3947 -20.3946 -20.3718 -20.3718 -20.3624 -20.3624 -20.3578 -20.3578
   -18.1170 -18.1169 -18.1123 -18.1122 -18.0562 -18.0561 -18.0560 -18.0559
   -17.1549 -17.1549 -17.1518 -17.1518 -17.0755 -17.0755 -17.0742 -17.0741
   -15.5212 -15.5202 -15.4893 -15.4883 -15.4438 -15.4435 -15.4327 -15.4325
   -12.9123 -12.9101 -12.8518 -12.8507 -12.8267 -12.8261 -12.8255 -12.8237
   -12.6441 -12.6439 -12.6256 -12.6253 -12.6136 -12.6135 -12.6063 -12.6059
    -9.6299  -9.6231  -9.6224  -9.6141  -9.5994  -9.5945  -9.5786  -9.5739
    -9.0775  -9.0740  -9.0501  -9.0456  -8.9863  -8.9819  -8.9807  -8.9773
    -7.8311  -7.8216  -7.8021  -7.7910  -7.7864  -7.7771  -7.7344  -7.7015
    -7.2572  -7.2541  -7.2359  -7.1974  -7.1716  -7.1695  -7.1281  -7.0714
    -7.0384  -7.0318  -6.9748  -6.9735  -6.8320  -6.8149  -6.7678  -6.7467
    -6.7389  -6.7037  -6.7005  -6.6992  -6.6973  -6.6813  -6.6421  -6.6095
    -6.2533  -6.2246  -6.1307  -6.1297  -6.0555  -6.0500  -5.9789  -5.9588
    -5.3427  -5.3251  -5.3070  -5.3052  -5.2817  -5.2509  -5.2449  -5.2439
    -5.1751  -5.1497  -5.1133  -5.0960  -5.0798  -5.0671  -5.0310  -5.0215
    -4.9569  -4.9113  -4.8388  -4.8380  -4.7230  -4.7000  -4.6744  -4.6300
    -4.6179  -4.5991  -4.5810  -4.5678  -4.5307  -4.5104  -4.5045  -4.4940
    -4.3794  -4.3755  -4.3360  -4.3071  -4.2905  -4.2808  -4.2664  -4.2398
    -4.1634  -4.1613  -4.1117  -4.1075  -4.0378  -4.0338  -4.0139  -4.0029
    -3.2619  -3.2519  -3.2096  -3.2016  -3.1889  -3.1848  -3.1820  -3.1713
    -2.7831  -2.7826  -2.7262  -2.7208  -2.7192  -2.7184  -2.6279  -2.6231
    -2.2852  -2.2817  -2.2748  -2.2744  -2.2470  -2.2460  -2.2359  -2.2350
    -1.1213  -1.1175  -1.0201  -1.0174  -0.9611  -0.9592  -0.8660  -0.8634
    -0.7487  -0.7340  -0.7285  -0.7065  -0.6625  -0.6437  -0.6388  -0.6350
    -0.6202  -0.6144  -0.5615  -0.5288  -0.5009  -0.4871  -0.4791  -0.4645
    -0.4494  -0.4482  -0.4360  -0.4279  -0.3976  -0.3934  -0.3687  -0.3657
    -0.0881  -0.0822  -0.0730  -0.0728  -0.0639  -0.0629  -0.0566  -0.0504
     3.7016   3.7110   3.7475   3.7580   3.7938   3.8077   3.8275   3.8399
     4.3674   4.3693   4.4249   4.4250   4.6522   4.6551   4.7400   4.7425
     5.7836   5.9332   6.0536   6.0641   6.1092   6.1337   6.1552   6.1629
     6.1651   6.2123   6.2175   6.5273   6.5742   6.9040   6.9573   6.9607
     7.0810   7.1705   7.1785   7.2222   7.4336   7.4932   7.5727   7.6875
     7.7201   7.7550   7.8912

          k = 0.3333 0.3285 0.0000 (168739 PWs)   bands (ev):

   -20.3848 -20.3847 -20.3696 -20.3695 -20.3655 -20.3655 -20.3611 -20.3611
   -18.1259 -18.1259 -18.1230 -18.1230 -18.0676 -18.0676 -18.0660 -18.0659
   -17.1390 -17.1389 -17.1372 -17.1372 -17.0707 -17.0706 -17.0696 -17.0696
   -15.4990 -15.4975 -15.4774 -15.4759 -15.4548 -15.4547 -15.4535 -15.4534
   -12.8939 -12.8899 -12.8517 -12.8498 -12.8482 -12.8463 -12.8366 -12.8328
   -12.6335 -12.6333 -12.6224 -12.6222 -12.6168 -12.6166 -12.6149 -12.6146
    -9.6242  -9.6208  -9.6155  -9.6105  -9.6062  -9.6034  -9.5891  -9.5877
    -9.0535  -9.0515  -9.0322  -9.0302  -9.0087  -9.0052  -8.9990  -8.9961
    -7.8436  -7.8254  -7.8151  -7.8112  -7.7818  -7.7619  -7.7380  -7.7283
    -7.2353  -7.2194  -7.2157  -7.1685  -7.1542  -7.1542  -7.1418  -7.0927
    -6.9687  -6.9658  -6.9318  -6.9278  -6.8562  -6.8471  -6.8115  -6.8010
    -6.7604  -6.7471  -6.7334  -6.7225  -6.6590  -6.6527  -6.6417  -6.6211
    -6.1519  -6.1281  -6.0700  -6.0671  -6.0191  -6.0076  -5.9703  -5.9582
    -5.3430  -5.3358  -5.3269  -5.3167  -5.2839  -5.2672  -5.2652  -5.2568
    -5.1223  -5.1027  -5.0847  -5.0685  -5.0648  -5.0520  -5.0264  -5.0108
    -4.9092  -4.8763  -4.8710  -4.8351  -4.8173  -4.8009  -4.7773  -4.7344
    -4.6878  -4.6872  -4.6573  -4.6425  -4.6104  -4.5550  -4.5473  -4.5160
    -4.3752  -4.3711  -4.3296  -4.3012  -4.2978  -4.2941  -4.2686  -4.2494
    -4.2047  -4.1997  -4.1576  -4.1512  -4.0965  -4.0959  -4.0577  -4.0574
    -3.2661  -3.2527  -3.1654  -3.1534  -3.0385  -3.0242  -3.0171  -3.0052
    -2.8023  -2.8005  -2.7407  -2.7377  -2.7113  -2.7077  -2.6950  -2.6894
    -2.3299  -2.3275  -2.3256  -2.3227  -2.2572  -2.2568  -2.2562  -2.2561
    -0.9854  -0.9850  -0.9299  -0.9278  -0.8869  -0.8842  -0.8293  -0.8254
    -0.6894  -0.6790  -0.6635  -0.6524  -0.6490  -0.6348  -0.6116  -0.6047
    -0.5983  -0.5766  -0.5753  -0.5543  -0.5401  -0.5193  -0.4851  -0.4717
    -0.4574  -0.4557  -0.4535  -0.4405  -0.4385  -0.4355  -0.4327  -0.4186
    -0.0633  -0.0601  -0.0524  -0.0520  -0.0474  -0.0448  -0.0403  -0.0372
     3.6691   3.6836   3.7044   3.7156   3.7254   3.7321   3.7553   3.7713
     4.4558   4.4572   4.4763   4.4783   4.5899   4.5919   4.6398   4.6433
     5.9744   5.9905   6.0078   6.0491   6.0678   6.0885   6.1021   6.1357
     6.2090   6.3283   6.3845   6.7593   6.7977   6.9172   6.9499   6.9836
     6.9995   7.1454   7.1545   7.2384   7.2588   7.2944   7.4045   7.4185
     7.5366   7.5490   7.6902

     highest occupied, lowest unoccupied level (ev):    -0.0362    3.6691

!    total energy              =   -2011.42392495 Ry
     Harris-Foulkes estimate   =   -2011.42392496 Ry
     estimated scf accuracy    <          8.6E-09 Ry

     total all-electron energy =     -7638.153980 Ry

     The total energy is the sum of the following terms:

     one-electron contribution =   -1172.30173841 Ry
     hartree contribution      =     744.85280727 Ry
     xc contribution           =    -444.95997221 Ry
     ewald contribution        =    -547.36550519 Ry
     Dispersion Correction     =      -0.60212660 Ry
     one-center paw contrib.   =    -591.04738981 Ry

     convergence has been achieved in  17 iterations

     Forces acting on atoms (cartesian axes, Ry/au):

     atom    1 type  2   force =     0.00348543   -0.00479829   -0.00110252
     atom    2 type  2   force =    -0.00348651    0.00479783   -0.00110402
     atom    3 type  2   force =     0.00348543    0.00479829    0.00110252
     atom    4 type  2   force =    -0.00348651   -0.00479783    0.00110402
     atom    5 type  2   force =    -0.00348543    0.00479829    0.00110252
     atom    6 type  2   force =     0.00348651   -0.00479783    0.00110402
     atom    7 type  2   force =    -0.00348543   -0.00479829   -0.00110252
     atom    8 type  2   force =     0.00348651    0.00479783   -0.00110402
     atom    9 type  3   force =     0.00053729   -0.00041637    0.00012521
     atom   10 type  3   force =    -0.00053726    0.00041626    0.00012479
     atom   11 type  3   force =     0.00053729    0.00041637   -0.00012521
     atom   12 type  3   force =    -0.00053726   -0.00041626   -0.00012479
     atom   13 type  3   force =    -0.00053729    0.00041637   -0.00012521
     atom   14 type  3   force =     0.00053726   -0.00041626   -0.00012479
     atom   15 type  3   force =    -0.00053729   -0.00041637    0.00012521
     atom   16 type  3   force =     0.00053726    0.00041626    0.00012479
     atom   17 type  3   force =    -0.00374653   -0.00039242    0.00001224
     atom   18 type  3   force =     0.00374625    0.00039242    0.00001209
     atom   19 type  3   force =    -0.00374653    0.00039242   -0.00001224
     atom   20 type  3   force =     0.00374625   -0.00039242   -0.00001209
     atom   21 type  3   force =     0.00374653    0.00039242   -0.00001224
     atom   22 type  3   force =    -0.00374625   -0.00039242   -0.00001209
     atom   23 type  3   force =     0.00374653   -0.00039242    0.00001224
     atom   24 type  3   force =    -0.00374625    0.00039242    0.00001209
     atom   25 type  3   force =     0.00053501    0.00305624   -0.00043242
     atom   26 type  3   force =    -0.00053501   -0.00305597   -0.00043266
     atom   27 type  3   force =     0.00053501   -0.00305624    0.00043242
     atom   28 type  3   force =    -0.00053501    0.00305597    0.00043266
     atom   29 type  3   force =    -0.00053501   -0.00305624    0.00043242
     atom   30 type  3   force =     0.00053501    0.00305597    0.00043266
     atom   31 type  3   force =    -0.00053501    0.00305624   -0.00043242
     atom   32 type  3   force =     0.00053501   -0.00305597   -0.00043266
     atom   33 type  3   force =    -0.00076065    0.00028907    0.00033453
     atom   34 type  3   force =     0.00076065   -0.00028931    0.00033459
     atom   35 type  3   force =    -0.00076065   -0.00028907   -0.00033453
     atom   36 type  3   force =     0.00076065    0.00028931   -0.00033459
     atom   37 type  3   force =     0.00076065   -0.00028907   -0.00033453
     atom   38 type  3   force =    -0.00076065    0.00028931   -0.00033459
     atom   39 type  3   force =     0.00076065    0.00028907    0.00033453
     atom   40 type  3   force =    -0.00076065   -0.00028931    0.00033459
     atom   41 type  4   force =    -0.00127725   -0.00063898   -0.00103018
     atom   42 type  4   force =     0.00127363    0.00064264   -0.00102851
     atom   43 type  4   force =    -0.00127725    0.00063898    0.00103018
     atom   44 type  4   force =     0.00127363   -0.00064264    0.00102851
     atom   45 type  4   force =     0.00127725    0.00063898    0.00103018
     atom   46 type  4   force =    -0.00127363   -0.00064264    0.00102851
     atom   47 type  4   force =     0.00127725   -0.00063898   -0.00103018
     atom   48 type  4   force =    -0.00127363    0.00064264   -0.00102851
     atom   49 type  4   force =    -0.00050527   -0.00315998    0.00255758
     atom   50 type  4   force =     0.00050912    0.00315731    0.00256056
     atom   51 type  4   force =    -0.00050527    0.00315998   -0.00255758
     atom   52 type  4   force =     0.00050912   -0.00315731   -0.00256056
     atom   53 type  4   force =     0.00050527    0.00315998   -0.00255758
     atom   54 type  4   force =    -0.00050912   -0.00315731   -0.00256056
     atom   55 type  4   force =     0.00050527   -0.00315998    0.00255758
     atom   56 type  4   force =    -0.00050912    0.00315731    0.00256056
     atom   57 type  1   force =     0.00274789    0.00080473   -0.00246567
     atom   58 type  1   force =    -0.00274430   -0.00080794   -0.00245105
     atom   59 type  1   force =     0.00274789   -0.00080473    0.00246567
     atom   60 type  1   force =    -0.00274430    0.00080794    0.00245105
     atom   61 type  1   force =    -0.00274789   -0.00080473    0.00246567
     atom   62 type  1   force =     0.00274430    0.00080794    0.00245105
     atom   63 type  1   force =    -0.00274789    0.00080473   -0.00246567
     atom   64 type  1   force =     0.00274430   -0.00080794   -0.00245105
     atom   65 type  1   force =     0.00001508    0.00000156    0.00122677
     atom   66 type  1   force =    -0.00001318   -0.00000261    0.00124696
     atom   67 type  1   force =     0.00001508   -0.00000156   -0.00122677
     atom   68 type  1   force =    -0.00001318    0.00000261   -0.00124696
     atom   69 type  1   force =    -0.00001508   -0.00000156   -0.00122677
     atom   70 type  1   force =     0.00001318    0.00000261   -0.00124696
     atom   71 type  1   force =    -0.00001508    0.00000156    0.00122677
     atom   72 type  1   force =     0.00001318   -0.00000261    0.00124696
     atom   73 type  1   force =    -0.00030221    0.00028951   -0.00007913
     atom   74 type  1   force =     0.00030276   -0.00029027   -0.00006107
     atom   75 type  1   force =    -0.00030221   -0.00028951    0.00007913
     atom   76 type  1   force =     0.00030276    0.00029027    0.00006107
     atom   77 type  1   force =     0.00030221   -0.00028951    0.00007913
     atom   78 type  1   force =    -0.00030276    0.00029027    0.00006107
     atom   79 type  1   force =     0.00030221    0.00028951   -0.00007913
     atom   80 type  1   force =    -0.00030276   -0.00029027   -0.00006107
     atom   81 type  3   force =    -0.00041118    0.00028785    0.00014306
     atom   82 type  3   force =     0.00041094   -0.00028758    0.00014325
     atom   83 type  3   force =    -0.00041118   -0.00028785   -0.00014306
     atom   84 type  3   force =     0.00041094    0.00028758   -0.00014325
     atom   85 type  3   force =     0.00041118   -0.00028785   -0.00014306
     atom   86 type  3   force =    -0.00041094    0.00028758   -0.00014325
     atom   87 type  3   force =     0.00041118    0.00028785    0.00014306
     atom   88 type  3   force =    -0.00041094   -0.00028758    0.00014325
     atom   89 type  1   force =    -0.00033010    0.00028514    0.00010926
     atom   90 type  1   force =     0.00033078   -0.00028524    0.00011334
     atom   91 type  1   force =    -0.00033010   -0.00028514   -0.00010926
     atom   92 type  1   force =     0.00033078    0.00028524   -0.00011334
     atom   93 type  1   force =     0.00033010   -0.00028514   -0.00010926
     atom   94 type  1   force =    -0.00033078    0.00028524   -0.00011334
     atom   95 type  1   force =     0.00033010    0.00028514    0.00010926
     atom   96 type  1   force =    -0.00033078   -0.00028524    0.00011334
     atom   97 type  3   force =     0.00073485   -0.00019941   -0.00031809
     atom   98 type  3   force =    -0.00073462    0.00019922   -0.00031767
     atom   99 type  3   force =     0.00073485    0.00019941    0.00031809
     atom  100 type  3   force =    -0.00073462   -0.00019922    0.00031767
     atom  101 type  3   force =    -0.00073485    0.00019941    0.00031809
     atom  102 type  3   force =     0.00073462   -0.00019922    0.00031767
     atom  103 type  3   force =    -0.00073485   -0.00019941   -0.00031809
     atom  104 type  3   force =     0.00073462    0.00019922   -0.00031767
     atom  105 type  1   force =     0.00009155    0.00028772   -0.00176999
     atom  106 type  1   force =    -0.00009083   -0.00028892   -0.00176321
     atom  107 type  1   force =     0.00009155   -0.00028772    0.00176999
     atom  108 type  1   force =    -0.00009083    0.00028892    0.00176321
     atom  109 type  1   force =    -0.00009155   -0.00028772    0.00176999
     atom  110 type  1   force =     0.00009083    0.00028892    0.00176321
     atom  111 type  1   force =    -0.00009155    0.00028772   -0.00176999
     atom  112 type  1   force =     0.00009083   -0.00028892   -0.00176321
     atom  113 type  3   force =    -0.00025650    0.00027729    0.00002153
     atom  114 type  3   force =     0.00025660   -0.00027745    0.00002171
     atom  115 type  3   force =    -0.00025650   -0.00027729   -0.00002153
     atom  116 type  3   force =     0.00025660    0.00027745   -0.00002171
     atom  117 type  3   force =     0.00025650   -0.00027729   -0.00002153
     atom  118 type  3   force =    -0.00025660    0.00027745   -0.00002171
     atom  119 type  3   force =     0.00025650    0.00027729    0.00002153
     atom  120 type  3   force =    -0.00025660   -0.00027745    0.00002171
     atom  121 type  1   force =    -0.00010595    0.00008838    0.00019764
     atom  122 type  1   force =     0.00010559   -0.00008886    0.00019170
     atom  123 type  1   force =    -0.00010595   -0.00008838   -0.00019764
     atom  124 type  1   force =     0.00010559    0.00008886   -0.00019170
     atom  125 type  1   force =     0.00010595   -0.00008838   -0.00019764
     atom  126 type  1   force =    -0.00010559    0.00008886   -0.00019170
     atom  127 type  1   force =     0.00010595    0.00008838    0.00019764
     atom  128 type  1   force =    -0.00010559   -0.00008886    0.00019170
     atom  129 type  3   force =    -0.00044984   -0.00017864    0.00011496
     atom  130 type  3   force =     0.00044928    0.00017893    0.00011451
     atom  131 type  3   force =    -0.00044984    0.00017864   -0.00011496
     atom  132 type  3   force =     0.00044928   -0.00017893   -0.00011451
     atom  133 type  3   force =     0.00044984    0.00017864   -0.00011496
     atom  134 type  3   force =    -0.00044928   -0.00017893   -0.00011451
     atom  135 type  3   force =     0.00044984   -0.00017864    0.00011496
     atom  136 type  3   force =    -0.00044928    0.00017893    0.00011451
     atom  137 type  1   force =     0.00012932    0.00008624   -0.00021283
     atom  138 type  1   force =    -0.00012961   -0.00008569   -0.00022011
     atom  139 type  1   force =     0.00012932   -0.00008624    0.00021283
     atom  140 type  1   force =    -0.00012961    0.00008569    0.00022011
     atom  141 type  1   force =    -0.00012932   -0.00008624    0.00021283
     atom  142 type  1   force =     0.00012961    0.00008569    0.00022011
     atom  143 type  1   force =    -0.00012932    0.00008624   -0.00021283
     atom  144 type  1   force =     0.00012961   -0.00008569   -0.00022011
     atom  145 type  3   force =    -0.00013989   -0.00044885    0.00035751
     atom  146 type  3   force =     0.00013975    0.00044891    0.00035785
     atom  147 type  3   force =    -0.00013989    0.00044885   -0.00035751
     atom  148 type  3   force =     0.00013975   -0.00044891   -0.00035785
     atom  149 type  3   force =     0.00013989    0.00044885   -0.00035751
     atom  150 type  3   force =    -0.00013975   -0.00044891   -0.00035785
     atom  151 type  3   force =     0.00013989   -0.00044885    0.00035751
     atom  152 type  3   force =    -0.00013975    0.00044891    0.00035785

     Total force =     0.028664     Total SCF correction =     0.000240


     Computing stress (Cartesian axis) and pressure

          total   stress  (Ry/bohr**3)                   (kbar)     P=   -7.53
  -0.00006269   0.00000000   0.00000000         -9.22      0.00      0.00
   0.00000000  -0.00005162   0.00000000          0.00     -7.59      0.00
   0.00000000   0.00000000  -0.00003934          0.00      0.00     -5.79


     Writing output data file scf.save
 
     init_run     :     54.72s CPU     56.90s WALL (       1 calls)
     electrons    :   1992.35s CPU   2073.27s WALL (       1 calls)
     forces       :     27.47s CPU     27.88s WALL (       1 calls)
     stress       :    197.99s CPU    198.47s WALL (       1 calls)

     Called by init_run:
     wfcinit      :     43.78s CPU     45.68s WALL (       1 calls)
     potinit      :      3.90s CPU      3.96s WALL (       1 calls)

     Called by electrons:
     c_bands      :   1790.05s CPU   1856.76s WALL (      17 calls)
     sum_band     :    177.28s CPU    188.37s WALL (      17 calls)
     v_of_rho     :      3.78s CPU      4.16s WALL (      18 calls)
     newd         :      8.73s CPU     11.32s WALL (      18 calls)
     PAW_pot      :     11.45s CPU     11.47s WALL (      18 calls)
     mix_rho      :      0.93s CPU      1.00s WALL (      17 calls)

     Called by c_bands:
     init_us_2    :     11.02s CPU     11.11s WALL (     148 calls)
     cegterg      :   1749.37s CPU   1816.02s WALL (      68 calls)

     Called by sum_band:
     sum_band:bec :      0.09s CPU      0.09s WALL (      68 calls)
     addusdens    :      9.97s CPU     12.45s WALL (      17 calls)

     Called by *egterg:
     h_psi        :    958.23s CPU   1010.76s WALL (     343 calls)
     s_psi        :    207.88s CPU    207.97s WALL (     343 calls)
     g_psi        :      6.07s CPU      6.07s WALL (     271 calls)
     cdiaghg      :     99.88s CPU     99.97s WALL (     339 calls)

     Called by h_psi:
     h_psi:pot    :    951.39s CPU   1003.81s WALL (     343 calls)
     h_psi:calbec :    195.68s CPU    196.06s WALL (     343 calls)
     vloc_psi     :    547.48s CPU    599.41s WALL (     343 calls)
     add_vuspsi   :    208.24s CPU    208.34s WALL (     343 calls)

     General routines
     calbec       :    278.50s CPU    279.02s WALL (     431 calls)
     fft          :      3.31s CPU      3.93s WALL (     258 calls)
     fftw         :    581.22s CPU    641.29s WALL (  123774 calls)
 
     Parallel routines
     fft_scatter  :     88.92s CPU    147.92s WALL (  124032 calls)
 
     PWSCF        : 38m 4.62s CPU    39m55.52s WALL

 
   This run was terminated on:   5:23: 1   4Nov2017            

=------------------------------------------------------------------------------=
   JOB DONE.
=------------------------------------------------------------------------------=
