
     Program PWSCF v.6.1 (svn rev. 13369) starts on  5Jan2018 at 20:54:28 

     This program is part of the open-source Quantum ESPRESSO suite
     for quantum simulation of materials; please cite
         "P. Giannozzi et al., J. Phys.:Condens. Matter 21 395502 (2009);
          URL http://www.quantum-espresso.org", 
     in publications or presentations arising from this work. More details at
     http://www.quantum-espresso.org/quote

     Parallel version (MPI), running on     8 processors
     R & G space division:  proc/nbgrp/npool/nimage =       8
     Waiting for input...
     Reading input from standard input

     Current dimensions of program PWSCF are:
     Max number of different atomic species (ntypx) = 10
     Max number of k-points (npk) =  40000
     Max angular momentum in pseudopotentials (lmaxx) =  3
               file C.pbe-n-kjpaw_psl.0.1.UPF: wavefunction(s)  2P renormalized
               file N.pbe-n-kjpaw_psl.0.1.UPF: wavefunction(s)  2P renormalized
               file H.pbe-kjpaw_psl.0.1.UPF: wavefunction(s)  1S renormalized
               file O.pbe-n-kjpaw_psl.0.1.UPF: wavefunction(s)  2P renormalized

     -------------------------------------
     Parameters for Dispersion Correction:
     -------------------------------------
       atom      VdW radius       C_6     

        C          2.744         60.710
        N          2.640         42.670
        H          1.892          4.857
        O          2.536         24.284

     Subspace diagonalization in iterative solution of the eigenvalue problem:
     a serial algorithm will be used

 
     Parallelization info
     --------------------
     sticks:   dense  smooth     PW     G-vecs:    dense   smooth      PW
     Min        1617    1617    439               156722   156722   22143
     Max        1618    1618    440               156724   156724   22145
     Sum       12939   12939   3515              1253785  1253785  177151
 


     bravais-lattice index     =            0
     lattice parameter (alat)  =      51.0415  a.u.
     unit-cell volume          =    9280.5314 (a.u.)^3
     number of atoms/cell      =          152
     number of atomic types    =            4
     number of electrons       =       448.00
     number of Kohn-Sham states=          268
     kinetic-energy cutoff     =     100.0000  Ry
     charge density cutoff     =     400.0000  Ry
     convergence threshold     =      1.0E-08
     mixing beta               =       0.5000
     number of iterations used =            8  plain     mixing
     Exchange-correlation      =  SLA  PW   PBX  PBC ( 1  4  3  4 0 0)

     celldm(1)=  51.041503  celldm(2)=   0.000000  celldm(3)=   0.000000
     celldm(4)=   0.000000  celldm(5)=   0.000000  celldm(6)=   0.000000

     crystal axes: (cart. coord. in units of alat)
               a(1) = (   1.000000   0.000000   0.000000 )  
               a(2) = (   0.000000   0.155746   0.000000 )  
               a(3) = (  -0.013417   0.000000   0.448111 )  

     reciprocal axes: (cart. coord. in units 2 pi/alat)
               b(1) = (  1.000000  0.000000  0.029941 )  
               b(2) = (  0.000000  6.420710  0.000000 )  
               b(3) = (  0.000000  0.000000  2.231590 )  


     PseudoPot. # 1 for  C read from file:
     /scratch/ahofstet/pseudo/C.pbe-n-kjpaw_psl.0.1.UPF
     MD5 check sum: 430fe95172b1e11ef3f8ed03bac87931
     Pseudo is Projector augmented-wave + core cor, Zval =  4.0
     Generated using "atomic" code by A. Dal Corso  v.5.0.99 svn rev. 10869
     Shape of augmentation charge: BESSEL
     Using radial grid of 1073 points,  4 beta functions with: 
                l(1) =   0
                l(2) =   0
                l(3) =   1
                l(4) =   1
     Q(r) pseudized with 0 coefficients 


     PseudoPot. # 2 for  N read from file:
     /scratch/ahofstet/pseudo/N.pbe-n-kjpaw_psl.0.1.UPF
     MD5 check sum: f73187c8b701007e77325f868c9291d7
     Pseudo is Projector augmented-wave + core cor, Zval =  5.0
     Generated using "atomic" code by A. Dal Corso  v.5.0.99 svn rev. 10869
     Shape of augmentation charge: PSQ
     Using radial grid of 1085 points,  4 beta functions with: 
                l(1) =   0
                l(2) =   0
                l(3) =   1
                l(4) =   1
     Q(r) pseudized with 0 coefficients 


     PseudoPot. # 3 for  H read from file:
     /scratch/ahofstet/pseudo/H.pbe-kjpaw_psl.0.1.UPF
     MD5 check sum: 94e484f906d9e9773b2f6e52662335b2
     Pseudo is Projector augmented-wave, Zval =  1.0
     Generated using "atomic" code by A. Dal Corso  v.5.0.99 svn rev. 10869
     Shape of augmentation charge: PSQ
     Using radial grid of  929 points,  2 beta functions with: 
                l(1) =   0
                l(2) =   0
     Q(r) pseudized with 0 coefficients 


     PseudoPot. # 4 for  O read from file:
     /scratch/ahofstet/pseudo/O.pbe-n-kjpaw_psl.0.1.UPF
     MD5 check sum: 3f94a2996a3169367d6eb21d9b593f20
     Pseudo is Projector augmented-wave + core cor, Zval =  6.0
     Generated using "atomic" code by A. Dal Corso  v.5.0.99 svn rev. 10869
     Shape of augmentation charge: BESSEL
     Using radial grid of 1095 points,  4 beta functions with: 
                l(1) =   0
                l(2) =   0
                l(3) =   1
                l(4) =   1
     Q(r) pseudized with 0 coefficients 


     atomic species   valence    mass     pseudopotential
        C              4.00    12.01070      C( 1.00)
        N              5.00    14.00670      N( 1.00)
        H              1.00     1.00794      H( 1.00)
        O              6.00    15.99940      O( 1.00)

      2 Sym. Ops., with inversion, found



   Cartesian axes

     site n.     atom                  positions (alat units)
         1           H   tau(   1) = (   0.9518729   0.1417607   0.3536163  )
         2           H   tau(   2) = (   0.4519158   0.0640530   0.3535511  )
         3           H   tau(   3) = (   0.0281075   0.1419813   0.3184064  )
         4           H   tau(   4) = (   0.5280899   0.0642035   0.3183532  )
         5           H   tau(   5) = (   0.0347100   0.0139854   0.0944946  )
         6           H   tau(   6) = (   0.5346672   0.0916930   0.0945598  )
         7           H   tau(   7) = (   0.9584755   0.0137648   0.1297045  )
         8           H   tau(   8) = (   0.4584931   0.0915425   0.1297577  )
         9           C   tau(   9) = (   0.7916613  -0.0794135   0.3306136  )
        10           C   tau(  10) = (   0.2916923  -0.0015704   0.3306577  )
        11           C   tau(  11) = (   0.1881143  -0.0795297   0.3415786  )
        12           C   tau(  12) = (   0.6881581  -0.0015574   0.3414991  )
        13           C   tau(  13) = (   0.1949216   0.2351596   0.1174973  )
        14           C   tau(  14) = (   0.6948907   0.1573164   0.1174532  )
        15           C   tau(  15) = (   0.7984687   0.2352757   0.1065323  )
        16           C   tau(  16) = (   0.2984248   0.1573034   0.1066118  )
        17           H   tau(  17) = (   0.7780815  -0.0806426   0.3689100  )
        18           H   tau(  18) = (   0.2780275  -0.0027885   0.3689340  )
        19           H   tau(  19) = (   0.2016137  -0.0808106   0.3032461  )
        20           H   tau(  20) = (   0.7015152  -0.0027762   0.3031146  )
        21           H   tau(  21) = (   0.2085014   0.2363886   0.0792009  )
        22           H   tau(  22) = (   0.7085555   0.1585345   0.0791770  )
        23           H   tau(  23) = (   0.7849692   0.2365567   0.1448648  )
        24           H   tau(  24) = (   0.2850677   0.1585223   0.1449964  )
        25           H   tau(  25) = (   0.8121249   0.0401573   0.3247925  )
        26           H   tau(  26) = (   0.3121950  -0.0377346   0.3249211  )
        27           H   tau(  27) = (   0.1676318   0.0400714   0.3474360  )
        28           H   tau(  28) = (   0.6677023  -0.0377290   0.3473616  )
        29           H   tau(  29) = (   0.1744581   0.1155887   0.1233184  )
        30           H   tau(  30) = (   0.6743879   0.1934807   0.1231899  )
        31           H   tau(  31) = (   0.8189512   0.1156747   0.1006749  )
        32           H   tau(  32) = (   0.3188806   0.1934750   0.1007493  )
        33           H   tau(  33) = (   0.7598014  -0.0797060   0.3052741  )
        34           H   tau(  34) = (   0.2598858  -0.0019038   0.3052572  )
        35           H   tau(  35) = (   0.2200187  -0.0798805   0.3668512  )
        36           H   tau(  36) = (   0.7201367  -0.0018614   0.3666730  )
        37           H   tau(  37) = (   0.2267815   0.2354520   0.1428368  )
        38           H   tau(  38) = (   0.7266972   0.1576498   0.1428537  )
        39           H   tau(  39) = (   0.7665642   0.2356265   0.0812597  )
        40           H   tau(  40) = (   0.2664463   0.1576075   0.0814379  )
        41           C   tau(  41) = (   0.8257592  -0.0385334   0.3223715  )
        42           C   tau(  42) = (   0.3257837   0.0393168   0.3224095  )
        43           C   tau(  43) = (   0.1540641  -0.0386091   0.3498656  )
        44           C   tau(  44) = (   0.6540799   0.0392914   0.3498895  )
        45           C   tau(  45) = (   0.1608238   0.1942794   0.1257394  )
        46           C   tau(  46) = (   0.6607992   0.1164292   0.1257014  )
        47           C   tau(  47) = (   0.8325189   0.1943551   0.0982453  )
        48           C   tau(  48) = (   0.3325031   0.1164546   0.0982214  )
        49           H   tau(  49) = (   0.8564664  -0.0391206   0.3490117  )
        50           H   tau(  50) = (   0.3565161   0.0387147   0.3490110  )
        51           H   tau(  51) = (   0.1233012  -0.0391771   0.3233043  )
        52           H   tau(  52) = (   0.6233518   0.0387235   0.3232878  )
        53           H   tau(  53) = (   0.1301165   0.1948666   0.0990992  )
        54           H   tau(  54) = (   0.6300669   0.1170313   0.0991000  )
        55           H   tau(  55) = (   0.8632817   0.1949231   0.1248066  )
        56           H   tau(  56) = (   0.3632312   0.1170225   0.1248231  )
        57           H   tau(  57) = (   0.8040923  -0.0037101   0.3311387  )
        58           H   tau(  58) = (   0.3041378   0.0741408   0.3312172  )
        59           H   tau(  59) = (   0.1757465  -0.0038168   0.3410725  )
        60           H   tau(  60) = (   0.6757097   0.0741511   0.3411563  )
        61           H   tau(  61) = (   0.1824906   0.1594561   0.1169722  )
        62           H   tau(  62) = (   0.6824451   0.0816052   0.1168937  )
        63           H   tau(  63) = (   0.8108365   0.1595628   0.1070384  )
        64           H   tau(  64) = (   0.3108733   0.0815949   0.1069547  )
        65           C   tau(  65) = (   0.8853122   0.0011780   0.2629972  )
        66           C   tau(  66) = (   0.3852779   0.0790331   0.2629489  )
        67           C   tau(  67) = (   0.0946158   0.0012716   0.4091811  )
        68           C   tau(  68) = (   0.5945645   0.0789793   0.4092091  )
        69           C   tau(  69) = (   0.1012707   0.1545680   0.1851137  )
        70           C   tau(  70) = (   0.6013050   0.0767129   0.1851621  )
        71           C   tau(  71) = (   0.8919671   0.1544744   0.0389298  )
        72           C   tau(  72) = (   0.3920185   0.0767667   0.0389018  )
        73           C   tau(  73) = (   0.8445307  -0.0324119   0.2691046  )
        74           C   tau(  74) = (   0.3445002   0.0454440   0.2691083  )
        75           C   tau(  75) = (   0.1353691  -0.0323741   0.4031378  )
        76           C   tau(  76) = (   0.6353146   0.0453312   0.4031720  )
        77           C   tau(  77) = (   0.1420522   0.1881580   0.1790064  )
        78           C   tau(  78) = (   0.6420828   0.1103020   0.1790026  )
        79           C   tau(  79) = (   0.8512139   0.1881201   0.0449731  )
        80           C   tau(  80) = (   0.3512684   0.1104149   0.0449389  )
        81           H   tau(  81) = (   0.8578226   0.0861707   0.2540804  )
        82           H   tau(  82) = (   0.3577677   0.0082652   0.2541060  )
        83           H   tau(  83) = (   0.1220632   0.0862265   0.4182179  )
        84           H   tau(  84) = (   0.6220439   0.0081519   0.4181859  )
        85           H   tau(  85) = (   0.1287603   0.0695754   0.1940305  )
        86           H   tau(  86) = (   0.6288153   0.1474808   0.1940049  )
        87           H   tau(  87) = (   0.8645197   0.0695195   0.0298930  )
        88           H   tau(  88) = (   0.3645390   0.1475941   0.0299251  )
        89           H   tau(  89) = (   0.8144654  -0.0202822   0.2443213  )
        90           H   tau(  90) = (   0.3144181   0.0575286   0.2443245  )
        91           H   tau(  91) = (   0.1655149  -0.0202433   0.4278225  )
        92           H   tau(  92) = (   0.6653401   0.0574039   0.4280221  )
        93           H   tau(  93) = (   0.1721175   0.1760283   0.2037896  )
        94           H   tau(  94) = (   0.6721649   0.0982174   0.2037864  )
        95           H   tau(  95) = (   0.8210680   0.1759893   0.0202885  )
        96           H   tau(  96) = (   0.3212429   0.0983421   0.0200888  )
        97           C   tau(  97) = (   0.9626861   0.0321977   0.2699588  )
        98           C   tau(  98) = (   0.4626400   0.1100927   0.2699202  )
        99           C   tau(  99) = (   0.0172344   0.0323177   0.4021355  )
       100           C   tau( 100) = (   0.5172786   0.1102098   0.4020059  )
       101           C   tau( 101) = (   0.0238969   0.1235484   0.1781522  )
       102           C   tau( 102) = (   0.5239430   0.0456534   0.1781907  )
       103           C   tau( 103) = (   0.9693485   0.1234284   0.0459754  )
       104           C   tau( 104) = (   0.4693043   0.0455362   0.0461050  )
       105           N   tau( 105) = (   0.9351430   0.0576997   0.2361452  )
       106           N   tau( 106) = (   0.4350725   0.1356165   0.2361442  )
       107           N   tau( 107) = (   0.0447574   0.0577982   0.4359736  )
       108           N   tau( 108) = (   0.5447728   0.1356021   0.4359551  )
       109           N   tau( 109) = (   0.0514400   0.0980463   0.2119657  )
       110           N   tau( 110) = (   0.5515105   0.0201295   0.2119667  )
       111           N   tau( 111) = (   0.9418256   0.0979478   0.0121373  )
       112           N   tau( 112) = (   0.4418102   0.0201439   0.0121558  )
       113           H   tau( 113) = (   0.9488456   0.0815682   0.2090541  )
       114           H   tau( 114) = (   0.4488333   0.0036106   0.2089773  )
       115           H   tau( 115) = (   0.0444390   0.0816163   0.0149537  )
       116           H   tau( 116) = (   0.5444133   0.0035507   0.0150270  )
       117           H   tau( 117) = (   0.0377374   0.0741778   0.2390569  )
       118           H   tau( 118) = (   0.5377497   0.1521354   0.2391337  )
       119           H   tau( 119) = (   0.9421439   0.0741297   0.4331573  )
       120           H   tau( 120) = (   0.4421697   0.1521953   0.4330839  )
       121           N   tau( 121) = (   0.8881110   0.0374136   0.2305403  )
       122           N   tau( 122) = (   0.3880500   0.1152967   0.2305186  )
       123           N   tau( 123) = (   0.0917868   0.0375055   0.4416446  )
       124           N   tau( 124) = (   0.5917317   0.1151762   0.4417145  )
       125           N   tau( 125) = (   0.0984720   0.1183324   0.2175706  )
       126           N   tau( 126) = (   0.5985330   0.0404494   0.2175923  )
       127           N   tau( 127) = (   0.8947961   0.1182405   0.0064663  )
       128           N   tau( 128) = (   0.3948513   0.0405698   0.0063964  )
       129           N   tau( 129) = (   0.9295258  -0.0009842   0.2892926  )
       130           N   tau( 130) = (   0.4295087   0.0768836   0.2892256  )
       131           N   tau( 131) = (   0.0504033  -0.0008641   0.3828446  )
       132           N   tau( 132) = (   0.5504410   0.0769936   0.3827387  )
       133           N   tau( 133) = (   0.0570571   0.1567302   0.1588183  )
       134           N   tau( 134) = (   0.5570743   0.0788625   0.1588853  )
       135           N   tau( 135) = (   0.9361796   0.1566102   0.0652663  )
       136           N   tau( 136) = (   0.4361420   0.0787524   0.0653723  )
       137           O   tau( 137) = (   0.9409070   0.1206243   0.3246630  )
       138           O   tau( 138) = (   0.4408814   0.0428309   0.3246753  )
       139           O   tau( 139) = (   0.0390260   0.1208338   0.3474028  )
       140           O   tau( 140) = (   0.5391121   0.0429743   0.3472474  )
       141           O   tau( 141) = (   0.0456760   0.0351217   0.1234479  )
       142           O   tau( 142) = (   0.5457015   0.1129151   0.1234356  )
       143           O   tau( 143) = (   0.9475569   0.0349123   0.1007082  )
       144           O   tau( 144) = (   0.4474708   0.1127718   0.1008635  )
       145           O   tau( 145) = (   0.0084502   0.0333434   0.2789263  )
       146           O   tau( 146) = (   0.5084101   0.1112543   0.2788800  )
       147           O   tau( 147) = (   0.9714693   0.0334083   0.3931400  )
       148           O   tau( 148) = (   0.4715518   0.1114497   0.3929031  )
       149           O   tau( 149) = (   0.9781327   0.1224026   0.1691846  )
       150           O   tau( 150) = (   0.4781729   0.0444918   0.1692309  )
       151           O   tau( 151) = (   0.0151136   0.1223377   0.0549710  )
       152           O   tau( 152) = (   0.5150311   0.0442964   0.0552078  )

     number of k points=     6
                       cart. coord. in units 2pi/alat
        k(    1) = (   0.0000000   0.0000000   0.0000000), wk =   0.2500000
        k(    2) = (   0.0000000   0.0000000  -1.1157952), wk =   0.2500000
        k(    3) = (   0.0000000   1.6051775   0.0000000), wk =   0.5000000
        k(    4) = (   0.0000000   1.6051775  -1.1157952), wk =   0.5000000
        k(    5) = (   0.0000000  -3.2103549   0.0000000), wk =   0.2500000
        k(    6) = (   0.0000000  -3.2103549  -1.1157952), wk =   0.2500000

     Dense  grid:  1253785 G-vectors     FFT dimensions: ( 360,  54, 150)

     Estimated max dynamical RAM per process >    1569.52MB

     Estimated total allocated dynamical RAM >   12556.19MB

     Check: negative/imaginary core charge=   -0.000002    0.000000

     Initial potential from superposition of free atoms

     starting charge  447.99745, renormalised to  448.00000
     Starting wfc are  392 randomized atomic wfcs
     Checking if some PAW data can be deallocated... 

     total cpu time spent up to now is      106.7 secs

     per-process dynamical memory:   970.8 Mb

     Self-consistent Calculation

     iteration #  1     ecut=   100.00 Ry     beta=0.50
     Davidson diagonalization with overlap
     ethr =  1.00E-02,  avg # of iterations =  3.7

     total cpu time spent up to now is      429.5 secs

     total energy              =   -2163.10138215 Ry
     Harris-Foulkes estimate   =   -2171.05350172 Ry
     estimated scf accuracy    <      14.99809624 Ry

     iteration #  2     ecut=   100.00 Ry     beta=0.50
     Davidson diagonalization with overlap
     ethr =  3.35E-03,  avg # of iterations =  3.5

     total cpu time spent up to now is      598.8 secs

     total energy              =   -2164.65685790 Ry
     Harris-Foulkes estimate   =   -2165.36750728 Ry
     estimated scf accuracy    <       1.59187881 Ry

     iteration #  3     ecut=   100.00 Ry     beta=0.50
     Davidson diagonalization with overlap
     ethr =  3.55E-04,  avg # of iterations =  6.5

     total cpu time spent up to now is      955.9 secs

     total energy              =   -2165.73689473 Ry
     Harris-Foulkes estimate   =   -2166.20245947 Ry
     estimated scf accuracy    <       1.20523001 Ry

     iteration #  4     ecut=   100.00 Ry     beta=0.50
     Davidson diagonalization with overlap
     ethr =  2.69E-04,  avg # of iterations =  1.3

     total cpu time spent up to now is     1102.0 secs

     total energy              =   -2165.58268311 Ry
     Harris-Foulkes estimate   =   -2165.81237125 Ry
     estimated scf accuracy    <       0.36154019 Ry

     iteration #  5     ecut=   100.00 Ry     beta=0.50
     Davidson diagonalization with overlap
     ethr =  8.07E-05,  avg # of iterations =  5.2

     total cpu time spent up to now is     1433.1 secs

     total energy              =   -2165.81459792 Ry
     Harris-Foulkes estimate   =   -2166.10692519 Ry
     estimated scf accuracy    <       0.79157887 Ry

     iteration #  6     ecut=   100.00 Ry     beta=0.50
     Davidson diagonalization with overlap
     ethr =  8.07E-05,  avg # of iterations =  2.0

     total cpu time spent up to now is     1580.5 secs

     total energy              =   -2165.68521390 Ry
     Harris-Foulkes estimate   =   -2165.83918123 Ry
     estimated scf accuracy    <       0.28881439 Ry

     iteration #  7     ecut=   100.00 Ry     beta=0.50
     Davidson diagonalization with overlap
     ethr =  6.45E-05,  avg # of iterations =  4.8

     total cpu time spent up to now is     1842.7 secs

     total energy              =   -2165.84703644 Ry
     Harris-Foulkes estimate   =   -2165.87176056 Ry
     estimated scf accuracy    <       0.06794798 Ry

     iteration #  8     ecut=   100.00 Ry     beta=0.50
     Davidson diagonalization with overlap
     ethr =  1.52E-05,  avg # of iterations =  1.8

     total cpu time spent up to now is     1991.4 secs

     total energy              =   -2165.83507206 Ry
     Harris-Foulkes estimate   =   -2165.84910551 Ry
     estimated scf accuracy    <       0.02645873 Ry

     iteration #  9     ecut=   100.00 Ry     beta=0.50
     Davidson diagonalization with overlap
     ethr =  5.91E-06,  avg # of iterations =  5.8

     total cpu time spent up to now is     2260.1 secs

     total energy              =   -2165.85059684 Ry
     Harris-Foulkes estimate   =   -2165.85282728 Ry
     estimated scf accuracy    <       0.00679752 Ry

     iteration # 10     ecut=   100.00 Ry     beta=0.50
     Davidson diagonalization with overlap
     ethr =  1.52E-06,  avg # of iterations =  1.3

     total cpu time spent up to now is     2406.7 secs

     total energy              =   -2165.84976233 Ry
     Harris-Foulkes estimate   =   -2165.85075752 Ry
     estimated scf accuracy    <       0.00301136 Ry

     iteration # 11     ecut=   100.00 Ry     beta=0.50
     Davidson diagonalization with overlap
     ethr =  6.72E-07,  avg # of iterations =  3.0

     total cpu time spent up to now is     2618.0 secs

     total energy              =   -2165.85066752 Ry
     Harris-Foulkes estimate   =   -2165.85067859 Ry
     estimated scf accuracy    <       0.00002031 Ry

     iteration # 12     ecut=   100.00 Ry     beta=0.50
     Davidson diagonalization with overlap
     ethr =  4.53E-09,  avg # of iterations =  4.0

     total cpu time spent up to now is     2926.7 secs

     total energy              =   -2165.85068166 Ry
     Harris-Foulkes estimate   =   -2165.85068722 Ry
     estimated scf accuracy    <       0.00001033 Ry

     iteration # 13     ecut=   100.00 Ry     beta=0.50
     Davidson diagonalization with overlap
     ethr =  2.31E-09,  avg # of iterations =  3.5

     total cpu time spent up to now is     3086.4 secs

     total energy              =   -2165.85068258 Ry
     Harris-Foulkes estimate   =   -2165.85068288 Ry
     estimated scf accuracy    <       0.00000051 Ry

     iteration # 14     ecut=   100.00 Ry     beta=0.50
     Davidson diagonalization with overlap
     ethr =  1.14E-10,  avg # of iterations =  4.0

     total cpu time spent up to now is     3422.2 secs

     total energy              =   -2165.85068456 Ry
     Harris-Foulkes estimate   =   -2165.85068620 Ry
     estimated scf accuracy    <       0.00000517 Ry

     iteration # 15     ecut=   100.00 Ry     beta=0.50
     Davidson diagonalization with overlap
     ethr =  1.14E-10,  avg # of iterations =  4.0

     total cpu time spent up to now is     3666.5 secs

     total energy              =   -2165.85068439 Ry
     Harris-Foulkes estimate   =   -2165.85068487 Ry
     estimated scf accuracy    <       0.00000101 Ry

     iteration # 16     ecut=   100.00 Ry     beta=0.50
     Davidson diagonalization with overlap
     ethr =  1.14E-10,  avg # of iterations =  6.2

     total cpu time spent up to now is     3856.9 secs

     total energy              =   -2165.85068450 Ry
     Harris-Foulkes estimate   =   -2165.85068452 Ry
     estimated scf accuracy    <       0.00000005 Ry

     iteration # 17     ecut=   100.00 Ry     beta=0.50
     Davidson diagonalization with overlap
     ethr =  1.11E-11,  avg # of iterations =  4.5

     total cpu time spent up to now is     4130.6 secs

     total energy              =   -2165.85068457 Ry
     Harris-Foulkes estimate   =   -2165.85068458 Ry
     estimated scf accuracy    <       0.00000001 Ry

     iteration # 18     ecut=   100.00 Ry     beta=0.50
     Davidson diagonalization with overlap
     ethr =  2.65E-12,  avg # of iterations =  1.5

     total cpu time spent up to now is     4281.0 secs

     End of self-consistent calculation

          k = 0.0000 0.0000 0.0000 (156853 PWs)   bands (ev):

   -22.4661 -22.4636 -22.4272 -22.4245 -22.2851 -22.2828 -22.2590 -22.2564
   -20.4678 -20.4652 -20.3627 -20.3611 -20.3025 -20.2994 -20.2461 -20.2440
   -19.5614 -19.5576 -19.4920 -19.4889 -19.4819 -19.4781 -19.3821 -19.3790
   -15.6234 -15.6217 -15.5525 -15.5502 -15.5336 -15.5318 -15.4921 -15.4892
   -14.7696 -14.7669 -14.7157 -14.7121 -14.7118 -14.7089 -14.6501 -14.6467
   -13.3316 -13.3311 -13.3284 -13.3253 -13.2511 -13.2506 -13.2492 -13.2428
   -11.4618 -11.4357 -11.3689 -11.3603 -11.3422 -11.3306 -11.2581 -11.2314
   -10.1640 -10.1508 -10.0726 -10.0536  -9.9169  -9.9118  -9.8992  -9.8901
    -9.2053  -9.2036  -9.1924  -9.1919  -9.1792  -9.1724  -9.1159  -9.0920
    -8.1405  -8.1338  -8.0512  -8.0311  -8.0294  -7.9996  -7.8692  -7.8544
    -7.5722  -7.5661  -7.5003  -7.4665  -7.2266  -7.2229  -7.1252  -7.0792
    -6.9875  -6.9395  -6.9354  -6.9070  -6.7263  -6.7080  -6.6347  -6.6264
    -5.9679  -5.9650  -5.9321  -5.9306  -5.8034  -5.8009  -5.7483  -5.7444
    -5.4173  -5.3891  -5.3340  -5.3043  -5.2484  -5.2447  -5.0751  -5.0707
    -4.9883  -4.9699  -4.9543  -4.9438  -4.9400  -4.8823  -4.8821  -4.8734
    -4.8518  -4.8289  -4.8104  -4.7773  -4.6598  -4.6396  -4.6286  -4.5599
    -4.4187  -4.3865  -4.3306  -4.3185  -4.3098  -4.2682  -4.2547  -4.2477
    -3.6722  -3.6529  -3.6106  -3.5811  -3.5686  -3.5538  -3.5137  -3.5136
    -3.4773  -3.4484  -3.4147  -3.3974  -3.3907  -3.3137  -3.2733  -3.2569
    -2.9738  -2.9520  -2.9374  -2.9148  -2.8567  -2.8486  -2.8304  -2.8113
    -2.7303  -2.7149  -2.7141  -2.7008  -2.6898  -2.6688  -2.6576  -2.5995
    -2.4593  -2.4404  -2.4201  -2.4007  -2.3881  -2.3046  -2.2566  -2.1517
    -2.1471  -2.0783  -2.0683  -2.0199  -2.0194  -2.0177  -1.9893  -1.9627
    -1.8105  -1.7554  -1.6478  -1.6328  -1.6183  -1.5350  -1.4767  -1.4672
    -1.4406  -1.3834  -1.3452  -1.3224  -1.2642  -1.2561  -1.2387  -1.1840
    -0.8960  -0.8886  -0.5454  -0.5337  -0.4665  -0.4620  -0.4589  -0.4322
    -0.3270  -0.3232  -0.3176  -0.3162  -0.2593  -0.2556  -0.1164  -0.1112
     0.4193   0.4205   0.4444   0.4465   0.5359   0.5365   0.5954   0.5966
     5.5497   5.5505   5.8857   5.9122   5.9659   5.9698   5.9759   6.0218
     6.0487   6.0598   6.1132   6.1562   6.1825   6.1931   6.2060   6.2282
     6.2350   6.2407   6.3438   6.4033   6.4058   6.4264   6.5560   6.5600
     6.7850   7.0007   7.2505   7.3572   7.4111   7.5079   7.6001   7.6692
     7.7769   7.7944   7.8182   7.9256   8.0520   8.0601   8.2592   8.3107
     8.3302   8.3968   8.4873   8.6102

          k = 0.0000 0.0000-1.1158 (156726 PWs)   bands (ev):

   -22.4487 -22.4480 -22.4462 -22.4453 -22.2703 -22.2703 -22.2683 -22.2676
   -20.4285 -20.4283 -20.4270 -20.4225 -20.2619 -20.2614 -20.2610 -20.2568
   -19.5451 -19.5445 -19.5442 -19.5378 -19.4143 -19.4142 -19.4140 -19.4084
   -15.5978 -15.5974 -15.5968 -15.5927 -15.5042 -15.5040 -15.5033 -15.4986
   -14.7539 -14.7529 -14.7514 -14.7508 -14.6695 -14.6692 -14.6671 -14.6669
   -13.3313 -13.3311 -13.3271 -13.3269 -13.2507 -13.2506 -13.2462 -13.2460
   -11.4309 -11.4304 -11.4127 -11.4115 -11.2864 -11.2859 -11.2660 -11.2653
   -10.1153 -10.1148 -10.1146 -10.1116  -9.9046  -9.9037  -9.8981  -9.8976
    -9.2031  -9.2028  -9.1885  -9.1880  -9.1486  -9.1484  -9.1380  -9.1377
    -8.1377  -8.1371  -8.0434  -8.0426  -8.0095  -8.0093  -7.8599  -7.8593
    -7.5785  -7.5779  -7.4995  -7.4991  -7.1556  -7.1555  -7.1428  -7.1422
    -6.9544  -6.9500  -6.9395  -6.9359  -6.6799  -6.6789  -6.6746  -6.6716
    -5.9428  -5.9420  -5.9411  -5.9383  -5.7845  -5.7818  -5.7801  -5.7795
    -5.3656  -5.3634  -5.3614  -5.3596  -5.1923  -5.1904  -5.1878  -5.1852
    -4.9564  -4.9558  -4.9350  -4.9349  -4.8703  -4.8702  -4.8694  -4.8684
    -4.8637  -4.8628  -4.8141  -4.8135  -4.6271  -4.6267  -4.5908  -4.5906
    -4.3742  -4.3741  -4.3496  -4.3482  -4.2915  -4.2910  -4.2655  -4.2645
    -3.6293  -3.6287  -3.6187  -3.6182  -3.5266  -3.5263  -3.5187  -3.5182
    -3.4631  -3.4626  -3.4278  -3.4276  -3.3410  -3.3401  -3.2959  -3.2956
    -2.9635  -2.9624  -2.9083  -2.9068  -2.8766  -2.8750  -2.8079  -2.8078
    -2.7322  -2.7312  -2.6993  -2.6977  -2.6662  -2.6650  -2.6371  -2.6350
    -2.4630  -2.4625  -2.4083  -2.4076  -2.3613  -2.3607  -2.2208  -2.2200
    -2.0935  -2.0931  -2.0489  -2.0467  -2.0445  -2.0441  -1.9956  -1.9949
    -1.6965  -1.6963  -1.6958  -1.6909  -1.5198  -1.5176  -1.4574  -1.4550
    -1.3987  -1.3970  -1.3801  -1.3778  -1.2926  -1.2877  -1.2206  -1.2198
    -0.7657  -0.7657  -0.7490  -0.7489  -0.3991  -0.3985  -0.3949  -0.3943
    -0.2930  -0.2920  -0.2887  -0.2878  -0.2240  -0.2240  -0.2188  -0.2175
     0.4265   0.4282   0.4297   0.4306   0.5681   0.5694   0.5696   0.5702
     5.7383   5.7384   5.7529   5.7534   5.9523   5.9536   5.9587   5.9612
     6.0149   6.0161   6.0725   6.0734   6.2171   6.2178   6.2300   6.2305
     6.2764   6.2791   6.3056   6.3077   6.4921   6.4971   6.5003   6.5014
     7.1039   7.1048   7.1503   7.1526   7.4572   7.4583   7.5576   7.5595
     7.8520   7.8558   7.9455   7.9506   8.2289   8.2306   8.2441   8.2466
     8.3953   8.3983   8.4439   8.4442

          k = 0.0000 1.6052 0.0000 (156733 PWs)   bands (ev):

   -22.4119 -22.4093 -22.3845 -22.3817 -22.2379 -22.2354 -22.2191 -22.2165
   -20.4735 -20.4711 -20.3966 -20.3949 -20.3479 -20.3451 -20.2924 -20.2903
   -19.5447 -19.5410 -19.4717 -19.4688 -19.4666 -19.4628 -19.3735 -19.3704
   -15.6930 -15.6914 -15.6549 -15.6524 -15.6248 -15.6228 -15.5558 -15.5530
   -14.6866 -14.6848 -14.6376 -14.6358 -14.6326 -14.6304 -14.5794 -14.5773
   -13.2456 -13.2406 -13.2297 -13.2290 -13.1921 -13.1857 -13.1738 -13.1725
   -11.4936 -11.4613 -11.4009 -11.3892 -11.3871 -11.3680 -11.2916 -11.2896
   -10.1327 -10.1264 -10.1232 -10.1125  -9.9210  -9.9177  -9.8842  -9.8801
    -9.1893  -9.1721  -9.1683  -9.1483  -9.1455  -9.1302  -9.1000  -9.0736
    -8.3813  -8.3436  -8.3347  -8.3077  -8.2974  -8.2857  -8.2788  -8.2537
    -7.7246  -7.7181  -7.6641  -7.6580  -7.2698  -7.2597  -7.2213  -7.2063
    -7.1329  -7.1264  -7.0949  -7.0838  -6.8993  -6.8980  -6.8768  -6.8747
    -6.4850  -6.4816  -6.4236  -6.4072  -6.3121  -6.3030  -6.2871  -6.2724
    -5.5066  -5.4972  -5.4506  -5.3986  -5.3295  -5.3231  -5.2355  -5.2259
    -5.2118  -5.0871  -5.0364  -4.9915  -4.9866  -4.9296  -4.9064  -4.9053
    -4.8361  -4.8180  -4.7962  -4.7956  -4.7378  -4.7143  -4.6910  -4.6491
    -4.2850  -4.2723  -4.2627  -4.2404  -4.1769  -4.1704  -4.1306  -4.1198
    -3.9152  -3.8940  -3.8467  -3.8233  -3.7573  -3.6799  -3.6094  -3.5382
    -3.3954  -3.3533  -3.3317  -3.3215  -3.3032  -3.2994  -3.2295  -3.2107
    -2.8701  -2.8079  -2.7807  -2.7724  -2.7289  -2.7213  -2.6532  -2.5814
    -2.5515  -2.4880  -2.4505  -2.4255  -2.3728  -2.3545  -2.1455  -2.1278
    -2.0942  -2.0821  -2.0615  -2.0564  -2.0328  -2.0151  -2.0128  -1.9963
    -1.7233  -1.6935  -1.6916  -1.6720  -1.6540  -1.6404  -1.6266  -1.5295
    -1.5047  -1.4803  -1.4788  -1.4469  -1.4316  -1.4057  -1.4014  -1.3670
    -1.1351  -1.1148  -0.9078  -0.8972  -0.7903  -0.7741  -0.6224  -0.6032
    -0.5865  -0.5835  -0.5650  -0.5543  -0.4242  -0.4084  -0.3535  -0.3530
    -0.1656  -0.1576  -0.0516  -0.0453  -0.0448  -0.0372   0.0487   0.0564
     0.7565   0.7584   0.8021   0.8039   0.8603   0.8635   0.9247   0.9282
     5.4537   5.4702   5.5146   5.5304   5.5765   5.5798   5.5929   5.5994
     5.8576   5.8669   6.0096   6.0416   6.0846   6.1559   6.1801   6.1973
     6.3097   6.3190   6.3827   6.4171   6.4322   6.4511   6.8916   6.9565
     7.0755   7.1164   7.4193   7.4441   7.6919   7.6966   7.7771   7.7883
     7.8289   7.8758   7.9401   7.9713   8.0073   8.0127   8.1125   8.2626
     8.3301   8.3504   8.3826   8.4749

          k = 0.0000 1.6052-1.1158 (156718 PWs)   bands (ev):

   -22.3993 -22.3988 -22.3967 -22.3960 -22.2277 -22.2276 -22.2254 -22.2249
   -20.4449 -20.4449 -20.4436 -20.4390 -20.3112 -20.3109 -20.3106 -20.3060
   -19.5259 -19.5250 -19.5249 -19.5188 -19.4030 -19.4028 -19.4026 -19.3970
   -15.6809 -15.6804 -15.6799 -15.6757 -15.5847 -15.5843 -15.5838 -15.5790
   -14.6723 -14.6713 -14.6706 -14.6701 -14.5959 -14.5956 -14.5943 -14.5941
   -13.2381 -13.2379 -13.2364 -13.2362 -13.1811 -13.1810 -13.1793 -13.1792
   -11.4570 -11.4564 -11.4462 -11.4452 -11.3254 -11.3251 -11.3132 -11.3126
   -10.1225 -10.1219 -10.1202 -10.1181  -9.9074  -9.9046  -9.9026  -9.9016
    -9.1837  -9.1833  -9.1629  -9.1623  -9.1190  -9.1188  -9.0995  -9.0991
    -8.3531  -8.3523  -8.3368  -8.3357  -8.2865  -8.2861  -8.2683  -8.2681
    -7.6968  -7.6959  -7.6910  -7.6901  -7.2433  -7.2428  -7.2323  -7.2319
    -7.1075  -7.1061  -7.1040  -7.1026  -6.8932  -6.8921  -6.8907  -6.8884
    -6.4387  -6.4371  -6.4324  -6.4300  -6.3134  -6.3126  -6.3019  -6.3015
    -5.4597  -5.4578  -5.4553  -5.4545  -5.3101  -5.3088  -5.2836  -5.2832
    -5.0976  -5.0971  -5.0521  -5.0498  -4.9471  -4.9456  -4.9420  -4.9387
    -4.8148  -4.8136  -4.7735  -4.7725  -4.7197  -4.7195  -4.7014  -4.7012
    -4.2708  -4.2701  -4.2587  -4.2577  -4.1422  -4.1417  -4.1361  -4.1356
    -3.8891  -3.8858  -3.8706  -3.8660  -3.6478  -3.6467  -3.6376  -3.6370
    -3.3549  -3.3536  -3.3434  -3.3418  -3.2608  -3.2599  -3.2551  -3.2534
    -2.8487  -2.8481  -2.7714  -2.7712  -2.7023  -2.7006  -2.6566  -2.6548
    -2.4920  -2.4915  -2.4629  -2.4625  -2.2880  -2.2875  -2.2591  -2.2586
    -2.0776  -2.0768  -2.0379  -2.0366  -2.0248  -2.0238  -2.0018  -2.0002
    -1.7003  -1.6983  -1.6832  -1.6795  -1.6141  -1.6128  -1.6046  -1.6040
    -1.4876  -1.4839  -1.4613  -1.4573  -1.4244  -1.4219  -1.3628  -1.3620
    -1.0774  -1.0762  -1.0583  -1.0573  -0.6579  -0.6558  -0.6549  -0.6535
    -0.5698  -0.5693  -0.5598  -0.5596  -0.3943  -0.3938  -0.3834  -0.3832
    -0.1187  -0.1173  -0.1132  -0.1111   0.0071   0.0083   0.0143   0.0157
     0.7704   0.7716   0.7733   0.7755   0.8997   0.9013   0.9026   0.9050
     5.4860   5.4866   5.4915   5.4921   5.5770   5.5781   5.5870   5.5886
     5.9615   5.9621   6.0370   6.0377   6.0697   6.0713   6.1889   6.1896
     6.2664   6.2673   6.3171   6.3181   6.7129   6.7141   6.7154   6.7174
     7.1986   7.2014   7.2292   7.2310   7.6311   7.6335   7.7007   7.7017
     7.9773   7.9786   8.0298   8.0325   8.1126   8.1155   8.1221   8.1228
     8.2660   8.2678   8.2991   8.3016

          k = 0.0000-3.2104 0.0000 (156698 PWs)   bands (ev):

   -22.3489 -22.3461 -22.3450 -22.3421 -22.1856 -22.1829 -22.1802 -22.1775
   -20.4705 -20.4683 -20.4315 -20.4296 -20.4069 -20.4045 -20.3482 -20.3463
   -19.5207 -19.5173 -19.4528 -19.4495 -19.4490 -19.4468 -19.3664 -19.3633
   -15.7585 -15.7573 -15.7437 -15.7406 -15.7144 -15.7122 -15.6232 -15.6203
   -14.6019 -14.6007 -14.5623 -14.5611 -14.5467 -14.5455 -14.5104 -14.5091
   -13.1485 -13.1481 -13.1384 -13.1382 -13.1235 -13.1230 -13.1137 -13.1133
   -11.4209 -11.4197 -11.4186 -11.4167 -11.3462 -11.3443 -11.3297 -11.3280
   -10.1634 -10.1616 -10.0763 -10.0734  -9.9356  -9.9321  -9.8658  -9.8631
    -9.3151  -9.3133  -9.2958  -9.2947  -9.2562  -9.2549  -9.2534  -9.2523
    -8.6841  -8.6818  -8.5917  -8.5902  -8.5673  -8.5656  -8.5380  -8.5362
    -7.7341  -7.7334  -7.7269  -7.7266  -7.4426  -7.4411  -7.3584  -7.3556
    -7.3287  -7.3278  -7.1970  -7.1950  -7.1898  -7.1884  -7.1113  -7.1095
    -6.7606  -6.7550  -6.4469  -6.4420  -6.3230  -6.3159  -6.2330  -6.2254
    -5.6082  -5.6063  -5.4002  -5.3996  -5.3801  -5.3790  -5.3563  -5.3555
    -5.2441  -5.2427  -5.1590  -5.1556  -5.1428  -5.1413  -4.9829  -4.9827
    -4.9309  -4.9300  -4.8506  -4.8495  -4.7699  -4.7685  -4.7075  -4.7063
    -4.4441  -4.4429  -4.4265  -4.4244  -4.3158  -4.3141  -4.2777  -4.2762
    -3.7872  -3.7868  -3.6602  -3.6592  -3.5597  -3.5549  -3.3885  -3.3866
    -3.3189  -3.3175  -3.3168  -3.3168  -3.1553  -3.1549  -3.1139  -3.1121
    -2.7436  -2.7406  -2.7170  -2.7128  -2.6624  -2.6598  -2.5733  -2.5707
    -2.3701  -2.3700  -2.3143  -2.3139  -2.2962  -2.2957  -2.1411  -2.1411
    -2.0686  -2.0665  -1.9831  -1.9765  -1.9530  -1.9468  -1.9020  -1.9005
    -1.7071  -1.7042  -1.5581  -1.5568  -1.5256  -1.5236  -1.4732  -1.4708
    -1.4080  -1.4062  -1.3665  -1.3651  -1.2902  -1.2882  -1.1268  -1.1251
    -1.0081  -1.0060  -0.7977  -0.7950  -0.7045  -0.7031  -0.3647  -0.3643
    -0.1436  -0.1428  -0.1337  -0.1329   0.0263   0.0267   0.0309   0.0329
     0.5440   0.5441   0.5911   0.5919   0.6618   0.6622   0.6894   0.6906
     1.4560   1.4567   1.4707   1.4711   1.5066   1.5083   1.5127   1.5154
     5.0117   5.0165   5.0271   5.0319   5.0528   5.0567   5.1037   5.1080
     6.0181   6.0184   6.0895   6.0895   6.1222   6.1235   6.1351   6.1356
     6.8694   6.8700   6.8844   6.8849   7.0953   7.0963   7.1013   7.1023
     7.2250   7.2254   7.2834   7.2834   7.3941   7.3964   7.6254   7.6270
     7.7712   7.7719   7.9402   7.9408   8.1409   8.1413   8.1862   8.1877
     8.2752   8.2757   8.2803   8.2813

          k = 0.0000-3.2104-1.1158 (156624 PWs)   bands (ev):

   -22.3470 -22.3468 -22.3442 -22.3440 -22.1830 -22.1829 -22.1803 -22.1802
   -20.4586 -20.4585 -20.4578 -20.4532 -20.3714 -20.3707 -20.3700 -20.3655
   -19.5024 -19.5013 -19.5013 -19.4957 -19.3930 -19.3928 -19.3925 -19.3870
   -15.7594 -15.7590 -15.7586 -15.7543 -15.6616 -15.6610 -15.6607 -15.6559
   -14.5892 -14.5886 -14.5880 -14.5874 -14.5217 -14.5215 -14.5206 -14.5201
   -13.1443 -13.1435 -13.1434 -13.1432 -13.1190 -13.1182 -13.1180 -13.1179
   -11.4194 -11.4191 -11.4187 -11.4166 -11.3384 -11.3376 -11.3371 -11.3354
   -10.1255 -10.1237 -10.1236 -10.1210  -9.8974  -9.8930  -9.8927  -9.8910
    -9.3073  -9.3068  -9.3055  -9.3055  -9.2554  -9.2552  -9.2534  -9.2534
    -8.6454  -8.6449  -8.6439  -8.6425  -8.5478  -8.5464  -8.5461  -8.5448
    -7.7329  -7.7320  -7.7313  -7.7312  -7.4111  -7.4093  -7.4070  -7.4057
    -7.2649  -7.2638  -7.2624  -7.2624  -7.1433  -7.1398  -7.1392  -7.1390
    -6.6294  -6.6248  -6.6240  -6.6198  -6.2552  -6.2522  -6.2473  -6.2456
    -5.5144  -5.5127  -5.5112  -5.5097  -5.3545  -5.3545  -5.3537  -5.3519
    -5.2190  -5.2179  -5.2171  -5.2154  -5.0337  -5.0321  -5.0313  -5.0289
    -4.8742  -4.8728  -4.8717  -4.8709  -4.8100  -4.8096  -4.8092  -4.8092
    -4.3684  -4.3666  -4.3657  -4.3639  -4.3275  -4.3272  -4.3260  -4.3236
    -3.7449  -3.7422  -3.7408  -3.7369  -3.4704  -3.4645  -3.4644  -3.4630
    -3.3153  -3.3135  -3.3133  -3.3127  -3.1216  -3.1202  -3.1187  -3.1177
    -2.7387  -2.7377  -2.7337  -2.7333  -2.6095  -2.6081  -2.6065  -2.6061
    -2.3239  -2.3233  -2.3232  -2.3226  -2.2871  -2.2863  -2.2862  -2.2858
    -2.0045  -2.0034  -2.0003  -1.9992  -1.9232  -1.9192  -1.9190  -1.9164
    -1.6145  -1.6131  -1.6119  -1.6101  -1.5119  -1.5109  -1.5101  -1.5084
    -1.4051  -1.4044  -1.4026  -1.4019  -1.1908  -1.1903  -1.1899  -1.1877
    -0.9484  -0.9455  -0.9454  -0.9443  -0.4853  -0.4847  -0.4846  -0.4817
    -0.1308  -0.1299  -0.1298  -0.1294   0.0143   0.0147   0.0170   0.0171
     0.5743   0.5752   0.5758   0.5774   0.6698   0.6703   0.6708   0.6713
     1.4622   1.4626   1.4664   1.4671   1.5090   1.5095   1.5097   1.5132
     5.0145   5.0162   5.0192   5.0209   5.0770   5.0809   5.0818   5.0845
     6.0458   6.0469   6.0472   6.0480   6.1322   6.1329   6.1336   6.1347
     6.9665   6.9671   6.9676   6.9681   7.0326   7.0331   7.0335   7.0338
     7.2697   7.2720   7.2726   7.2748   7.5273   7.5284   7.5298   7.5318
     7.7767   7.7770   7.7794   7.7794   8.0471   8.0481   8.0485   8.0497
     8.1827   8.1828   8.1837   8.1838

     highest occupied, lowest unoccupied level (ev):     1.5154    5.0117

!    total energy              =   -2165.85068457 Ry
     Harris-Foulkes estimate   =   -2165.85068457 Ry
     estimated scf accuracy    <          6.4E-09 Ry

     total all-electron energy =     -8169.135935 Ry

     The total energy is the sum of the following terms:

     one-electron contribution =   -2424.18885368 Ry
     hartree contribution      =    1381.53772378 Ry
     xc contribution           =    -468.21695335 Ry
     ewald contribution        =     -37.36265015 Ry
     Dispersion Correction     =      -0.70005934 Ry
     one-center paw contrib.   =    -616.91989184 Ry

     convergence has been achieved in  18 iterations

     Forces acting on atoms (cartesian axes, Ry/au):

     atom    1 type  3   force =    -0.00293239   -0.00336015   -0.00155551
     atom    2 type  3   force =    -0.00306992   -0.00350174   -0.00158146
     atom    3 type  3   force =     0.00309163   -0.00317546    0.00229521
     atom    4 type  3   force =     0.00303966   -0.00347123    0.00166886
     atom    5 type  3   force =     0.00293239    0.00336015    0.00155551
     atom    6 type  3   force =     0.00306992    0.00350174    0.00158146
     atom    7 type  3   force =    -0.00309163    0.00317546   -0.00229521
     atom    8 type  3   force =    -0.00303966    0.00347123   -0.00166886
     atom    9 type  1   force =    -0.00437548   -0.08508973   -0.00611782
     atom   10 type  1   force =    -0.00430469   -0.08505059   -0.00574885
     atom   11 type  1   force =     0.00398000   -0.08498108    0.00584893
     atom   12 type  1   force =     0.00437901   -0.08533037    0.00531571
     atom   13 type  1   force =     0.00437548    0.08508973    0.00611782
     atom   14 type  1   force =     0.00430469    0.08505059    0.00574885
     atom   15 type  1   force =    -0.00398000    0.08498108   -0.00584893
     atom   16 type  1   force =    -0.00437901    0.08533037   -0.00531571
     atom   17 type  3   force =    -0.00357830    0.00267859    0.00101109
     atom   18 type  3   force =    -0.00339817    0.00284484    0.00075539
     atom   19 type  3   force =     0.00350780    0.00284227   -0.00074557
     atom   20 type  3   force =     0.00371648    0.00275400   -0.00071791
     atom   21 type  3   force =     0.00357830   -0.00267859   -0.00101109
     atom   22 type  3   force =     0.00339817   -0.00284484   -0.00075539
     atom   23 type  3   force =    -0.00350780   -0.00284227    0.00074557
     atom   24 type  3   force =    -0.00371648   -0.00275400    0.00071791
     atom   25 type  3   force =    -0.02543498    0.06974886    0.00122754
     atom   26 type  3   force =    -0.02548125    0.06967568    0.00108931
     atom   27 type  3   force =     0.02524212    0.06944264   -0.00122160
     atom   28 type  3   force =     0.02550286    0.06962284   -0.00120147
     atom   29 type  3   force =     0.02543498   -0.06974886   -0.00122754
     atom   30 type  3   force =     0.02548125   -0.06967568   -0.00108931
     atom   31 type  3   force =    -0.02524212   -0.06944264    0.00122160
     atom   32 type  3   force =    -0.02550286   -0.06962284    0.00120147
     atom   33 type  3   force =    -0.00258104    0.00275638    0.00023581
     atom   34 type  3   force =    -0.00270293    0.00266300    0.00017671
     atom   35 type  3   force =     0.00272766    0.00291580   -0.00010151
     atom   36 type  3   force =     0.00274357    0.00266676   -0.00008674
     atom   37 type  3   force =     0.00258104   -0.00275638   -0.00023581
     atom   38 type  3   force =     0.00270293   -0.00266300   -0.00017671
     atom   39 type  3   force =    -0.00272766   -0.00291580    0.00010151
     atom   40 type  3   force =    -0.00274357   -0.00266676    0.00008674
     atom   41 type  1   force =     0.00114691    0.09024551    0.01062210
     atom   42 type  1   force =     0.00097679    0.09034659    0.01036514
     atom   43 type  1   force =    -0.00064112    0.09013018   -0.01070043
     atom   44 type  1   force =    -0.00107586    0.09060268   -0.01011630
     atom   45 type  1   force =    -0.00114691   -0.09024551   -0.01062210
     atom   46 type  1   force =    -0.00097679   -0.09034659   -0.01036514
     atom   47 type  1   force =     0.00064112   -0.09013018    0.01070043
     atom   48 type  1   force =     0.00107586   -0.09060268    0.01011630
     atom   49 type  3   force =     0.00028879   -0.00401351   -0.00238951
     atom   50 type  3   force =     0.00041709   -0.00400869   -0.00230945
     atom   51 type  3   force =    -0.00024334   -0.00405232    0.00201907
     atom   52 type  3   force =    -0.00042780   -0.00391713    0.00222213
     atom   53 type  3   force =    -0.00028879    0.00401351    0.00238951
     atom   54 type  3   force =    -0.00041709    0.00400869    0.00230945
     atom   55 type  3   force =     0.00024334    0.00405232   -0.00201907
     atom   56 type  3   force =     0.00042780    0.00391713   -0.00222213
     atom   57 type  3   force =     0.02625649   -0.06487167    0.00042183
     atom   58 type  3   force =     0.02615482   -0.06488018    0.00028115
     atom   59 type  3   force =    -0.02608315   -0.06459832   -0.00073184
     atom   60 type  3   force =    -0.02621422   -0.06507886   -0.00027603
     atom   61 type  3   force =    -0.02625649    0.06487167   -0.00042183
     atom   62 type  3   force =    -0.02615482    0.06488018   -0.00028115
     atom   63 type  3   force =     0.02608315    0.06459832    0.00073184
     atom   64 type  3   force =     0.02621422    0.06507886    0.00027603
     atom   65 type  1   force =     0.04210374    0.03159482    0.00756158
     atom   66 type  1   force =     0.04214408    0.03170427    0.00782687
     atom   67 type  1   force =    -0.04244069    0.03143606   -0.00752786
     atom   68 type  1   force =    -0.04231616    0.03181551   -0.00728528
     atom   69 type  1   force =    -0.04210374   -0.03159482   -0.00756158
     atom   70 type  1   force =    -0.04214408   -0.03170427   -0.00782687
     atom   71 type  1   force =     0.04244069   -0.03143606    0.00752786
     atom   72 type  1   force =     0.04231616   -0.03181551    0.00728528
     atom   73 type  1   force =    -0.03069582   -0.04214017    0.00432377
     atom   74 type  1   force =    -0.03064881   -0.04225117    0.00459314
     atom   75 type  1   force =     0.03072252   -0.04223762   -0.00437788
     atom   76 type  1   force =     0.03057368   -0.04213689   -0.00449311
     atom   77 type  1   force =     0.03069582    0.04214017   -0.00432377
     atom   78 type  1   force =     0.03064881    0.04225117   -0.00459314
     atom   79 type  1   force =    -0.03072252    0.04223762    0.00437788
     atom   80 type  1   force =    -0.03057368    0.04213689    0.00449311
     atom   81 type  3   force =    -0.02812907    0.03856473    0.01403107
     atom   82 type  3   force =    -0.02798178    0.03862588    0.01396955
     atom   83 type  3   force =     0.02814658    0.03886067   -0.01389379
     atom   84 type  3   force =     0.02788246    0.03886085   -0.01427261
     atom   85 type  3   force =     0.02812907   -0.03856473   -0.01403107
     atom   86 type  3   force =     0.02798178   -0.03862588   -0.01396955
     atom   87 type  3   force =    -0.02814658   -0.03886067    0.01389379
     atom   88 type  3   force =    -0.02788246   -0.03886085    0.01427261
     atom   89 type  3   force =     0.00064466   -0.00043884    0.00131550
     atom   90 type  3   force =     0.00057244   -0.00030186    0.00146005
     atom   91 type  3   force =    -0.00095356   -0.00031725   -0.00105876
     atom   92 type  3   force =    -0.00035345   -0.00016695   -0.00141895
     atom   93 type  3   force =    -0.00064466    0.00043884   -0.00131550
     atom   94 type  3   force =    -0.00057244    0.00030186   -0.00146005
     atom   95 type  3   force =     0.00095356    0.00031725    0.00105876
     atom   96 type  3   force =     0.00035345    0.00016695    0.00141895
     atom   97 type  1   force =     0.00414171   -0.00548684   -0.02533000
     atom   98 type  1   force =     0.00425704   -0.00542675   -0.02534596
     atom   99 type  1   force =    -0.00461346   -0.00590515    0.02537686
     atom  100 type  1   force =    -0.00422528   -0.00560497    0.02555197
     atom  101 type  1   force =    -0.00414171    0.00548684    0.02533000
     atom  102 type  1   force =    -0.00425704    0.00542675    0.02534596
     atom  103 type  1   force =     0.00461346    0.00590515   -0.02537686
     atom  104 type  1   force =     0.00422528    0.00560497   -0.02555197
     atom  105 type  2   force =     0.00908629   -0.02140932   -0.00200114
     atom  106 type  2   force =     0.00915717   -0.02167256   -0.00226983
     atom  107 type  2   force =    -0.00894952   -0.02114748    0.00210615
     atom  108 type  2   force =    -0.00922453   -0.02142670    0.00210843
     atom  109 type  2   force =    -0.00908629    0.02140932    0.00200114
     atom  110 type  2   force =    -0.00915717    0.02167256    0.00226983
     atom  111 type  2   force =     0.00894952    0.02114748   -0.00210615
     atom  112 type  2   force =     0.00922453    0.02142670   -0.00210843
     atom  113 type  3   force =    -0.00120998    0.00026810    0.00371047
     atom  114 type  3   force =    -0.00129125    0.00066520    0.00369772
     atom  115 type  3   force =     0.00109404    0.00069143   -0.00316708
     atom  116 type  3   force =     0.00121045    0.00060840   -0.00355151
     atom  117 type  3   force =     0.00120998   -0.00026810   -0.00371047
     atom  118 type  3   force =     0.00129125   -0.00066520   -0.00369772
     atom  119 type  3   force =    -0.00109404   -0.00069143    0.00316708
     atom  120 type  3   force =    -0.00121045   -0.00060840    0.00355151
     atom  121 type  2   force =     0.02716404   -0.02214274   -0.01500375
     atom  122 type  2   force =     0.02728070   -0.02233498   -0.01509638
     atom  123 type  2   force =    -0.02755964   -0.02253144    0.01469709
     atom  124 type  2   force =    -0.02714723   -0.02232627    0.01495605
     atom  125 type  2   force =    -0.02716404    0.02214274    0.01500375
     atom  126 type  2   force =    -0.02728070    0.02233498    0.01509638
     atom  127 type  2   force =     0.02755964    0.02253144   -0.01469709
     atom  128 type  2   force =     0.02714723    0.02232627   -0.01495605
     atom  129 type  2   force =    -0.03207695    0.00107222   -0.00962090
     atom  130 type  2   force =    -0.03233071    0.00093986   -0.00938944
     atom  131 type  2   force =     0.03271526    0.00094245    0.00908654
     atom  132 type  2   force =     0.03232525    0.00082515    0.00958165
     atom  133 type  2   force =     0.03207695   -0.00107222    0.00962090
     atom  134 type  2   force =     0.03233071   -0.00093986    0.00938944
     atom  135 type  2   force =    -0.03271526   -0.00094245   -0.00908654
     atom  136 type  2   force =    -0.03232525   -0.00082515   -0.00958165
     atom  137 type  4   force =     0.00376688    0.00647778    0.01063163
     atom  138 type  4   force =     0.00398120    0.00636678    0.01066743
     atom  139 type  4   force =    -0.00378089    0.00570112   -0.01091059
     atom  140 type  4   force =    -0.00413718    0.00620989   -0.01071918
     atom  141 type  4   force =    -0.00376688   -0.00647778   -0.01063163
     atom  142 type  4   force =    -0.00398120   -0.00636678   -0.01066743
     atom  143 type  4   force =     0.00378089   -0.00570112    0.01091059
     atom  144 type  4   force =     0.00413718   -0.00620989    0.01071918
     atom  145 type  4   force =    -0.00190517    0.00586316    0.00716224
     atom  146 type  4   force =    -0.00214105    0.00583426    0.00724548
     atom  147 type  4   force =     0.00239075    0.00604934   -0.00708844
     atom  148 type  4   force =     0.00182019    0.00587226   -0.00689476
     atom  149 type  4   force =     0.00190517   -0.00586316   -0.00716224
     atom  150 type  4   force =     0.00214105   -0.00583426   -0.00724548
     atom  151 type  4   force =    -0.00239075   -0.00604934    0.00708844
     atom  152 type  4   force =    -0.00182019   -0.00587226    0.00689476

     Total force =     0.552951     Total SCF correction =     0.000149


     Computing stress (Cartesian axis) and pressure

          total   stress  (Ry/bohr**3)                   (kbar)     P=   28.65
   0.00013764   0.00000036  -0.00008108         20.25      0.05    -11.93
   0.00000036   0.00046549   0.00000057          0.05     68.48      0.08
  -0.00008108   0.00000057  -0.00001876        -11.93      0.08     -2.76


     Writing output data file scf.save
 
     init_run     :    102.86s CPU    105.76s WALL (       1 calls)
     electrons    :   4063.84s CPU   4174.57s WALL (       1 calls)
     forces       :     51.80s CPU     52.17s WALL (       1 calls)
     stress       :    236.58s CPU    237.10s WALL (       1 calls)

     Called by init_run:
     wfcinit      :     87.15s CPU     89.82s WALL (       1 calls)
     potinit      :      5.33s CPU      5.38s WALL (       1 calls)

     Called by electrons:
     c_bands      :   3689.81s CPU   3784.31s WALL (      18 calls)
     sum_band     :    347.59s CPU    361.05s WALL (      18 calls)
     v_of_rho     :      3.79s CPU      4.09s WALL (      19 calls)
     newd         :     10.49s CPU     12.93s WALL (      19 calls)
     PAW_pot      :     11.22s CPU     11.25s WALL (      19 calls)
     mix_rho      :      0.91s CPU      0.98s WALL (      18 calls)

     Called by c_bands:
     init_us_2    :     12.91s CPU     12.97s WALL (     234 calls)
     cegterg      :   3632.18s CPU   3726.51s WALL (     108 calls)

     Called by sum_band:
     sum_band:bec :      0.14s CPU      0.14s WALL (     108 calls)
     addusdens    :     10.36s CPU     12.70s WALL (      18 calls)

     Called by *egterg:
     h_psi        :   1833.53s CPU   1906.39s WALL (     514 calls)
     s_psi        :    459.41s CPU    459.45s WALL (     514 calls)
     g_psi        :      7.02s CPU      7.02s WALL (     400 calls)
     cdiaghg      :    178.36s CPU    178.46s WALL (     508 calls)

     Called by h_psi:
     h_psi:pot    :   1823.72s CPU   1896.40s WALL (     514 calls)
     h_psi:calbec :    459.37s CPU    460.00s WALL (     514 calls)
     vloc_psi     :    905.57s CPU    977.54s WALL (     514 calls)
     add_vuspsi   :    458.77s CPU    458.86s WALL (     514 calls)

     General routines
     calbec       :    677.39s CPU    678.28s WALL (     652 calls)
     fft          :      6.45s CPU      6.96s WALL (     271 calls)
     fftw         :    962.57s CPU   1045.03s WALL (  201594 calls)
 
     Parallel routines
     fft_scatter  :    292.30s CPU    374.50s WALL (  201865 calls)
 
     PWSCF        :     1h14m CPU        1h17m WALL

 
   This run was terminated on:  22:11:54   5Jan2018            

=------------------------------------------------------------------------------=
   JOB DONE.
=------------------------------------------------------------------------------=
