
     Program PWSCF v.6.1 (svn rev. 13369) starts on  4Nov2017 at  5: 2:30 

     This program is part of the open-source Quantum ESPRESSO suite
     for quantum simulation of materials; please cite
         "P. Giannozzi et al., J. Phys.:Condens. Matter 21 395502 (2009);
          URL http://www.quantum-espresso.org", 
     in publications or presentations arising from this work. More details at
     http://www.quantum-espresso.org/quote

     Parallel version (MPI), running on     8 processors
     R & G space division:  proc/nbgrp/npool/nimage =       8
     Waiting for input...
     Reading input from standard input

     Current dimensions of program PWSCF are:
     Max number of different atomic species (ntypx) = 10
     Max number of k-points (npk) =  40000
     Max angular momentum in pseudopotentials (lmaxx) =  3
               file C.pbe-n-kjpaw_psl.0.1.UPF: wavefunction(s)  2P renormalized
               file N.pbe-n-kjpaw_psl.0.1.UPF: wavefunction(s)  2P renormalized
               file H.pbe-kjpaw_psl.0.1.UPF: wavefunction(s)  1S renormalized
               file O.pbe-n-kjpaw_psl.0.1.UPF: wavefunction(s)  2P renormalized

     -------------------------------------
     Parameters for Dispersion Correction:
     -------------------------------------
       atom      VdW radius       C_6     

        C          2.744         60.710
        N          2.640         42.670
        H          1.892          4.857
        O          2.536         24.284

     Subspace diagonalization in iterative solution of the eigenvalue problem:
     a serial algorithm will be used

 
     Parallelization info
     --------------------
     sticks:   dense  smooth     PW     G-vecs:    dense   smooth      PW
     Min         767     767    209                56088    56088    7932
     Max         768     768    210                56090    56090    7934
     Sum        6143    6143   1673               448713   448713   63469
 


     bravais-lattice index     =            0
     lattice parameter (alat)  =       6.7860  a.u.
     unit-cell volume          =    3320.5403 (a.u.)^3
     number of atoms/cell      =           56
     number of atomic types    =            4
     number of electrons       =       184.00
     number of Kohn-Sham states=          110
     kinetic-energy cutoff     =     100.0000  Ry
     charge density cutoff     =     400.0000  Ry
     convergence threshold     =      1.0E-08
     mixing beta               =       0.5000
     number of iterations used =            8  plain     mixing
     Exchange-correlation      =  SLA  PW   PBX  PBC ( 1  4  3  4 0 0)

     celldm(1)=   6.786007  celldm(2)=   0.000000  celldm(3)=   0.000000
     celldm(4)=   0.000000  celldm(5)=   0.000000  celldm(6)=   0.000000

     crystal axes: (cart. coord. in units of alat)
               a(1) = (   1.000000   0.000000   0.000000 )  
               a(2) = (   0.000000   4.186578   0.000000 )  
               a(3) = (  -0.089963   0.000000   2.538089 )  

     reciprocal axes: (cart. coord. in units 2 pi/alat)
               b(1) = (  1.000000  0.000000  0.035445 )  
               b(2) = (  0.000000  0.238859  0.000000 )  
               b(3) = (  0.000000  0.000000  0.393997 )  


     PseudoPot. # 1 for  C read from file:
     /scratch/ahofstet/pseudo/C.pbe-n-kjpaw_psl.0.1.UPF
     MD5 check sum: 430fe95172b1e11ef3f8ed03bac87931
     Pseudo is Projector augmented-wave + core cor, Zval =  4.0
     Generated using "atomic" code by A. Dal Corso  v.5.0.99 svn rev. 10869
     Shape of augmentation charge: BESSEL
     Using radial grid of 1073 points,  4 beta functions with: 
                l(1) =   0
                l(2) =   0
                l(3) =   1
                l(4) =   1
     Q(r) pseudized with 0 coefficients 


     PseudoPot. # 2 for  N read from file:
     /scratch/ahofstet/pseudo/N.pbe-n-kjpaw_psl.0.1.UPF
     MD5 check sum: f73187c8b701007e77325f868c9291d7
     Pseudo is Projector augmented-wave + core cor, Zval =  5.0
     Generated using "atomic" code by A. Dal Corso  v.5.0.99 svn rev. 10869
     Shape of augmentation charge: PSQ
     Using radial grid of 1085 points,  4 beta functions with: 
                l(1) =   0
                l(2) =   0
                l(3) =   1
                l(4) =   1
     Q(r) pseudized with 0 coefficients 


     PseudoPot. # 3 for  H read from file:
     /scratch/ahofstet/pseudo/H.pbe-kjpaw_psl.0.1.UPF
     MD5 check sum: 94e484f906d9e9773b2f6e52662335b2
     Pseudo is Projector augmented-wave, Zval =  1.0
     Generated using "atomic" code by A. Dal Corso  v.5.0.99 svn rev. 10869
     Shape of augmentation charge: PSQ
     Using radial grid of  929 points,  2 beta functions with: 
                l(1) =   0
                l(2) =   0
     Q(r) pseudized with 0 coefficients 


     PseudoPot. # 4 for  O read from file:
     /scratch/ahofstet/pseudo/O.pbe-n-kjpaw_psl.0.1.UPF
     MD5 check sum: 3f94a2996a3169367d6eb21d9b593f20
     Pseudo is Projector augmented-wave + core cor, Zval =  6.0
     Generated using "atomic" code by A. Dal Corso  v.5.0.99 svn rev. 10869
     Shape of augmentation charge: BESSEL
     Using radial grid of 1095 points,  4 beta functions with: 
                l(1) =   0
                l(2) =   0
                l(3) =   1
                l(4) =   1
     Q(r) pseudized with 0 coefficients 


     atomic species   valence    mass     pseudopotential
        C              4.00    12.01070      C( 1.00)
        N              5.00    14.00670      N( 1.00)
        H              1.00     1.00794      H( 1.00)
        O              6.00    15.99940      O( 1.00)

      2 Sym. Ops., with inversion, found
          (note:  2 additional sym.ops. were found but ignored
           their fractional translations are incommensurate with FFT grid)


   Cartesian axes

     site n.     atom                  positions (alat units)
         1           O   tau(   1) = (   0.0139000   1.4441545   1.3294864  )
         2           O   tau(   2) = (   0.3511561   3.5374433   2.4776466  )
         3           O   tau(   3) = (   0.8961374   2.7424231   1.2086023  )
         4           O   tau(   4) = (   0.5588813   0.6491343   0.0604421  )
         5           N   tau(   5) = (  -0.2011540   2.0330257   0.5633274  )
         6           N   tau(   6) = (   0.6561727   4.1263145   0.7057169  )
         7           N   tau(   7) = (   1.1111914   2.1535519   1.9747613  )
         8           N   tau(   8) = (   0.2538647   0.0602631   1.8323718  )
         9           N   tau(   9) = (  -0.1494686   0.8841851   1.0249263  )
        10           N   tau(  10) = (   0.6044874   2.9774739   0.2441180  )
        11           N   tau(  11) = (   1.0595061   3.3023924   1.5131623  )
        12           N   tau(  12) = (   0.3055501   1.2091037   2.2939707  )
        13           N   tau(  13) = (   0.1050503   2.0429235   0.7933056  )
        14           N   tau(  14) = (   0.3499684   4.1362123   0.4757387  )
        15           N   tau(  15) = (   0.8049871   2.1436541   1.7447831  )
        16           N   tau(  16) = (   0.5600690   0.0503653   2.0623500  )
        17           N   tau(  17) = (   0.3668754   0.7452674   1.3664438  )
        18           N   tau(  18) = (   0.9981808   2.8385562   2.4406892  )
        19           N   tau(  19) = (   0.5431620   3.4413101   1.1716448  )
        20           N   tau(  20) = (  -0.0881433   1.3480214   0.0973995  )
        21           N   tau(  21) = (   0.5116366   1.0752478   1.4898608  )
        22           N   tau(  22) = (   0.8534195   3.1685366   2.3172722  )
        23           N   tau(  23) = (   0.3984008   3.1113297   1.0482279  )
        24           N   tau(  24) = (   0.0566179   1.0180409   0.2208164  )
        25           N   tau(  25) = (  -0.4118408   0.6414155   1.0893139  )
        26           N   tau(  26) = (   0.8668595   2.7347043   0.1797304  )
        27           N   tau(  27) = (   1.3218782   3.5451620   1.4487748  )
        28           N   tau(  28) = (   0.0431779   1.4518733   2.3583583  )
        29           C   tau(  29) = (  -0.1950252   1.1698941   1.2815066  )
        30           C   tau(  30) = (   0.6500439   3.2631828  -0.0124623  )
        31           C   tau(  31) = (   1.1050626   3.0166835   1.2565821  )
        32           C   tau(  32) = (   0.2599935   0.9233947   2.5505510  )
        33           H   tau(  33) = (   0.4621470   2.0377017   0.6795220  )
        34           H   tau(  34) = (   0.9928717   4.1309905   0.5895223  )
        35           H   tau(  35) = (   0.4478904   2.1488758   1.8585667  )
        36           H   tau(  36) = (  -0.0828343   0.0555870   1.9485664  )
        37           H   tau(  37) = (  -0.1876414   1.7909154   0.3982192  )
        38           H   tau(  38) = (   0.6426601   3.8842042   0.8708251  )
        39           H   tau(  39) = (   1.0976788   2.3956621   2.1398695  )
        40           H   tau(  40) = (   0.2673773   0.3023734   1.6672636  )
        41           H   tau(  41) = (   0.4393747   1.1676347   1.7532247  )
        42           H   tau(  42) = (   0.9256814   3.2609235   2.0539083  )
        43           H   tau(  43) = (   0.4706627   3.0189428   0.7848639  )
        44           H   tau(  44) = (  -0.0156440   0.9256541   0.4841804  )
        45           H   tau(  45) = (   0.0917466   1.8173439   0.9788132  )
        46           H   tau(  46) = (   0.3632721   3.9106326   0.2902312  )
        47           H   tau(  47) = (   0.8182908   2.3692337   1.5592755  )
        48           H   tau(  48) = (   0.5467653   0.2759449   2.2478575  )
        49           H   tau(  49) = (   0.0871948   2.2911869   0.9443348  )
        50           H   tau(  50) = (   0.3678239   0.1978981   0.3247096  )
        51           H   tau(  51) = (   0.8228426   1.8953907   1.5937539  )
        52           H   tau(  52) = (   0.5422135   3.9886795   2.2133791  )
        53           H   tau(  53) = (  -0.1846236   2.2743993   0.3907072  )
        54           H   tau(  54) = (   0.6396423   0.1811105   0.8783372  )
        55           H   tau(  55) = (   1.0946610   1.9121782   2.1473815  )
        56           H   tau(  56) = (   0.2703951   4.0054670   1.6597515  )

     number of k points=    12
                       cart. coord. in units 2pi/alat
        k(    1) = (   0.0000000   0.0000000   0.0000000), wk =   0.1000000
        k(    2) = (   0.0000000   0.0000000  -0.1969986), wk =   0.1000000
        k(    3) = (   0.0000000  -0.1194293   0.0000000), wk =   0.1000000
        k(    4) = (   0.0000000  -0.1194293  -0.1969986), wk =   0.1000000
        k(    5) = (   0.2000000   0.0000000   0.0070890), wk =   0.2000000
        k(    6) = (   0.2000000   0.0000000  -0.1899096), wk =   0.2000000
        k(    7) = (   0.2000000  -0.1194293   0.0070890), wk =   0.2000000
        k(    8) = (   0.2000000  -0.1194293  -0.1899096), wk =   0.2000000
        k(    9) = (   0.4000000   0.0000000   0.0141780), wk =   0.2000000
        k(   10) = (   0.4000000   0.0000000  -0.1828206), wk =   0.2000000
        k(   11) = (   0.4000000  -0.1194293   0.0141780), wk =   0.2000000
        k(   12) = (   0.4000000  -0.1194293  -0.1828206), wk =   0.2000000

     Dense  grid:   448713 G-vectors     FFT dimensions: (  45, 192, 120)

     Estimated max dynamical RAM per process >     319.92MB

     Estimated total allocated dynamical RAM >    2559.33MB

     Check: negative/imaginary core charge=   -0.000002    0.000000

     Initial potential from superposition of free atoms

     starting charge  183.99942, renormalised to  184.00000
     Starting wfc are  152 randomized atomic wfcs
     Checking if some PAW data can be deallocated... 

     total cpu time spent up to now is       19.3 secs

     per-process dynamical memory:   295.7 Mb

     Self-consistent Calculation

     iteration #  1     ecut=   100.00 Ry     beta=0.50
     Davidson diagonalization with overlap
     ethr =  1.00E-02,  avg # of iterations =  3.6

     total cpu time spent up to now is       62.9 secs

     total energy              =    -944.61605836 Ry
     Harris-Foulkes estimate   =    -947.14770549 Ry
     estimated scf accuracy    <       4.83398815 Ry

     iteration #  2     ecut=   100.00 Ry     beta=0.50
     Davidson diagonalization with overlap
     ethr =  2.63E-03,  avg # of iterations =  2.8

     total cpu time spent up to now is       95.5 secs

     total energy              =    -945.42824126 Ry
     Harris-Foulkes estimate   =    -945.67523506 Ry
     estimated scf accuracy    <       0.56859870 Ry

     iteration #  3     ecut=   100.00 Ry     beta=0.50
     Davidson diagonalization with overlap
     ethr =  3.09E-04,  avg # of iterations =  7.4

     total cpu time spent up to now is      137.6 secs

     total energy              =    -945.53912705 Ry
     Harris-Foulkes estimate   =    -945.60026214 Ry
     estimated scf accuracy    <       0.15912878 Ry

     iteration #  4     ecut=   100.00 Ry     beta=0.50
     Davidson diagonalization with overlap
     ethr =  8.65E-05,  avg # of iterations =  3.8

     total cpu time spent up to now is      168.4 secs

     total energy              =    -945.56298543 Ry
     Harris-Foulkes estimate   =    -945.57035213 Ry
     estimated scf accuracy    <       0.02783316 Ry

     iteration #  5     ecut=   100.00 Ry     beta=0.50
     Davidson diagonalization with overlap
     ethr =  1.51E-05,  avg # of iterations =  7.2

     total cpu time spent up to now is      201.7 secs

     total energy              =    -945.56653354 Ry
     Harris-Foulkes estimate   =    -945.56684699 Ry
     estimated scf accuracy    <       0.00128659 Ry

     iteration #  6     ecut=   100.00 Ry     beta=0.50
     Davidson diagonalization with overlap
     ethr =  6.99E-07,  avg # of iterations =  6.8

     total cpu time spent up to now is      256.6 secs

     total energy              =    -945.56704796 Ry
     Harris-Foulkes estimate   =    -945.56719516 Ry
     estimated scf accuracy    <       0.00034314 Ry

     iteration #  7     ecut=   100.00 Ry     beta=0.50
     Davidson diagonalization with overlap
     ethr =  1.86E-07,  avg # of iterations =  3.0

     total cpu time spent up to now is      287.6 secs

     total energy              =    -945.56710801 Ry
     Harris-Foulkes estimate   =    -945.56713808 Ry
     estimated scf accuracy    <       0.00009969 Ry

     iteration #  8     ecut=   100.00 Ry     beta=0.50
     Davidson diagonalization with overlap
     ethr =  5.42E-08,  avg # of iterations =  2.5

     total cpu time spent up to now is      316.8 secs

     total energy              =    -945.56712764 Ry
     Harris-Foulkes estimate   =    -945.56713056 Ry
     estimated scf accuracy    <       0.00001136 Ry

     iteration #  9     ecut=   100.00 Ry     beta=0.50
     Davidson diagonalization with overlap
     ethr =  6.18E-09,  avg # of iterations =  3.0

     total cpu time spent up to now is      351.3 secs

     total energy              =    -945.56713010 Ry
     Harris-Foulkes estimate   =    -945.56713148 Ry
     estimated scf accuracy    <       0.00000394 Ry

     iteration # 10     ecut=   100.00 Ry     beta=0.50
     Davidson diagonalization with overlap
     ethr =  2.14E-09,  avg # of iterations =  2.8

     total cpu time spent up to now is      380.0 secs

     total energy              =    -945.56713088 Ry
     Harris-Foulkes estimate   =    -945.56713100 Ry
     estimated scf accuracy    <       0.00000059 Ry

     iteration # 11     ecut=   100.00 Ry     beta=0.50
     Davidson diagonalization with overlap
     ethr =  3.19E-10,  avg # of iterations =  3.0

     total cpu time spent up to now is      414.2 secs

     total energy              =    -945.56713102 Ry
     Harris-Foulkes estimate   =    -945.56713104 Ry
     estimated scf accuracy    <       0.00000011 Ry

     iteration # 12     ecut=   100.00 Ry     beta=0.50
     Davidson diagonalization with overlap
     ethr =  5.83E-11,  avg # of iterations =  2.1

     total cpu time spent up to now is      442.8 secs

     total energy              =    -945.56713103 Ry
     Harris-Foulkes estimate   =    -945.56713103 Ry
     estimated scf accuracy    <       0.00000001 Ry

     iteration # 13     ecut=   100.00 Ry     beta=0.50
     Davidson diagonalization with overlap
     ethr =  5.99E-12,  avg # of iterations =  3.0

     total cpu time spent up to now is      484.6 secs

     End of self-consistent calculation

          k = 0.0000 0.0000 0.0000 ( 56087 PWs)   bands (ev):

   -20.8975 -20.8944 -20.8607 -20.8597 -19.1417 -19.1233 -19.0864 -19.0863
   -18.2005 -18.1864 -18.1834 -18.1730 -15.7308 -15.7269 -15.5710 -15.5691
   -13.1198 -13.0980 -13.0929 -13.0441 -12.5225 -12.4348 -12.3768 -12.3765
    -9.0042  -8.9790  -8.9391  -8.9178  -8.2997  -8.2987  -8.0364  -8.0282
    -7.7444  -7.6028  -7.5696  -7.4800  -7.1382  -7.0898  -6.9930  -6.9781
    -6.0255  -5.9317  -5.7243  -5.6322  -4.6339  -4.4367  -4.2816  -4.2139
    -4.0250  -3.9721  -3.9373  -3.8643  -3.7629  -3.7265  -3.6153  -3.5539
    -3.4940  -3.4552  -3.4332  -3.1747  -3.1672  -3.0293  -2.9980  -2.9349
    -2.4972  -2.3711  -2.3419  -2.3124  -1.8134  -1.7269  -1.6346  -1.5329
    -0.8388  -0.7028  -0.6920  -0.6868  -0.2378  -0.2252  -0.1443  -0.0776
     0.8984   0.9457   0.9485   0.9730   1.0582   1.0957   1.2292   1.2519
     1.2821   1.4527   1.4724   1.4813   6.6849   6.6954   6.8933   6.9535
     7.0217   7.1057   7.4248   7.5339   7.8355   7.8531   7.9481   7.9775
     7.9820   8.4085   8.5205   8.5811   8.7355   9.2213

          k = 0.0000 0.0000-0.1970 ( 56052 PWs)   bands (ev):

   -20.8793 -20.8792 -20.8772 -20.8772 -19.1293 -19.1293 -19.0899 -19.0898
   -18.1936 -18.1935 -18.1776 -18.1776 -15.6530 -15.6530 -15.6490 -15.6490
   -13.0995 -13.0995 -13.0701 -13.0700 -12.4884 -12.4884 -12.3732 -12.3732
    -8.9771  -8.9771  -8.9510  -8.9509  -8.1755  -8.1755  -8.1528  -8.1528
    -7.6250  -7.6250  -7.5724  -7.5724  -7.0790  -7.0790  -7.0190  -7.0190
    -5.8473  -5.8473  -5.8322  -5.8322  -4.4724  -4.4724  -4.2709  -4.2709
    -4.1349  -4.1349  -3.8877  -3.8877  -3.7065  -3.7065  -3.5620  -3.5620
    -3.4943  -3.4943  -3.1865  -3.1865  -3.1220  -3.1220  -2.9678  -2.9678
    -2.3978  -2.3978  -2.3520  -2.3520  -1.7384  -1.7384  -1.6788  -1.6788
    -0.7949  -0.7949  -0.6507  -0.6507  -0.1776  -0.1776  -0.1380  -0.1380
     0.9160   0.9160   0.9622   0.9622   1.1810   1.1810   1.2235   1.2236
     1.3283   1.3283   1.4147   1.4147   6.7892   6.7893   6.9205   6.9205
     6.9961   6.9961   7.4555   7.4556   7.8655   7.8656   7.9523   7.9523
     8.3004   8.3004   8.3980   8.3980   8.7880   8.7880

          k = 0.0000-0.1194 0.0000 ( 56098 PWs)   bands (ev):

   -20.8960 -20.8960 -20.8602 -20.8602 -19.1326 -19.1326 -19.0864 -19.0863
   -18.1922 -18.1922 -18.1793 -18.1793 -15.7288 -15.7288 -15.5700 -15.5700
   -13.0989 -13.0989 -13.0809 -13.0809 -12.4775 -12.4775 -12.3754 -12.3753
    -8.9940  -8.9940  -8.9261  -8.9261  -8.3012  -8.3012  -8.0317  -8.0317
    -7.6784  -7.6783  -7.5231  -7.5231  -7.1113  -7.1113  -6.9847  -6.9847
    -5.9786  -5.9786  -5.6772  -5.6772  -4.5643  -4.5642  -4.2090  -4.2090
    -4.0395  -4.0395  -3.8502  -3.8502  -3.7961  -3.7961  -3.5644  -3.5644
    -3.4522  -3.4522  -3.2726  -3.2726  -3.1565  -3.1564  -2.9732  -2.9731
    -2.4205  -2.4205  -2.3230  -2.3230  -1.7128  -1.7128  -1.6430  -1.6430
    -0.7638  -0.7638  -0.6917  -0.6917  -0.2340  -0.2340  -0.1063  -0.1063
     0.9013   0.9013   0.9768   0.9768   1.0746   1.0746   1.2303   1.2303
     1.3927   1.3927   1.4686   1.4686   6.6945   6.6945   6.9141   6.9141
     7.0708   7.0708   7.4673   7.4673   7.8567   7.8567   7.9742   7.9742
     8.0930   8.0930   8.5525   8.5525   9.0893   9.0893

          k = 0.0000-0.1194-0.1970 ( 56048 PWs)   bands (ev):

   -20.8789 -20.8788 -20.8776 -20.8776 -19.1287 -19.1287 -19.0905 -19.0905
   -18.1920 -18.1920 -18.1791 -18.1791 -15.6513 -15.6513 -15.6507 -15.6506
   -13.0904 -13.0904 -13.0800 -13.0800 -12.4848 -12.4847 -12.3761 -12.3760
    -8.9757  -8.9757  -8.9526  -8.9526  -8.1758  -8.1758  -8.1533  -8.1533
    -7.6164  -7.6164  -7.5794  -7.5794  -7.0779  -7.0778  -7.0201  -7.0201
    -5.8521  -5.8521  -5.8298  -5.8298  -4.4667  -4.4667  -4.3194  -4.3194
    -3.9963  -3.9963  -3.9745  -3.9744  -3.7023  -3.7023  -3.5965  -3.5965
    -3.4772  -3.4772  -3.1870  -3.1870  -3.0701  -3.0700  -3.0197  -3.0197
    -2.3936  -2.3936  -2.3594  -2.3594  -1.7302  -1.7302  -1.6730  -1.6730
    -0.7270  -0.7270  -0.7262  -0.7262  -0.1791  -0.1791  -0.1380  -0.1380
     0.9313   0.9314   0.9485   0.9485   1.1872   1.1872   1.2230   1.2230
     1.3648   1.3648   1.3754   1.3754   6.7862   6.7863   6.9194   6.9194
     7.0190   7.0190   7.4258   7.4258   7.8633   7.8633   7.9512   7.9512
     8.3235   8.3235   8.3510   8.3510   8.8608   8.8608

          k = 0.2000 0.0000 0.0071 ( 56024 PWs)   bands (ev):

   -20.7816 -20.7788 -20.7499 -20.7489 -19.0193 -19.0019 -18.9639 -18.9639
   -18.1912 -18.1811 -18.1746 -18.1627 -15.8099 -15.8068 -15.6755 -15.6740
   -13.3136 -13.2989 -13.2856 -13.2437 -12.8056 -12.7377 -12.7094 -12.7080
    -8.9256  -8.9070  -8.8309  -8.8051  -8.2869  -8.2672  -8.1528  -8.1372
    -7.6414  -7.5371  -7.4721  -7.3992  -7.1441  -7.1297  -7.0437  -7.0388
    -6.0669  -5.9698  -5.8975  -5.7796  -5.1662  -5.1340  -4.9801  -4.9692
    -4.6673  -4.4696  -4.4065  -4.3382  -4.3168  -4.2471  -4.0290  -4.0030
    -3.5506  -3.5452  -3.3825  -3.0312  -2.2234  -2.1105  -2.0017  -1.8372
    -1.5401  -1.4940  -1.4705  -1.4355  -1.3299  -1.1294  -1.0723  -1.0476
    -0.8621  -0.7648  -0.6650  -0.5747   0.0069   0.0173   0.0774   0.1178
     0.4911   0.5433   0.5564   0.5710   1.2806   1.3211   1.3733   1.4054
     2.0389   2.0582   2.0992   2.1113   6.4451   6.4658   6.5303   6.5845
     6.9971   7.0307   7.4212   7.4793   7.8921   7.9311   7.9448   8.0280
     8.3621   8.5143   8.6062   8.6844   8.8829   9.0676

          k = 0.2000 0.0000-0.1899 ( 56066 PWs)   bands (ev):

   -20.7702 -20.7683 -20.7615 -20.7595 -19.0079 -19.0078 -18.9674 -18.9664
   -18.1868 -18.1851 -18.1693 -18.1678 -15.7780 -15.7752 -15.7093 -15.7065
   -13.3031 -13.2882 -13.2808 -13.2599 -12.7979 -12.7788 -12.7076 -12.6840
    -8.9161  -8.8928  -8.8315  -8.8044  -8.3382  -8.3167  -8.1147  -8.1029
    -7.5484  -7.5234  -7.4961  -7.4916  -7.1987  -7.1524  -7.0004  -6.9877
    -6.0224  -5.9649  -5.9186  -5.7992  -5.2011  -5.1214  -4.9460  -4.9456
    -4.5269  -4.5041  -4.4437  -4.4105  -4.3754  -4.2465  -4.0713  -4.0614
    -3.6004  -3.4813  -3.1690  -3.1481  -2.3399  -2.0392  -1.9458  -1.7637
    -1.5942  -1.5193  -1.4495  -1.4426  -1.2784  -1.1524  -1.1319  -1.0313
    -0.8288  -0.7374  -0.6750  -0.6246   0.0261   0.0456   0.0594   0.1109
     0.4353   0.4700   0.5819   0.7008   1.2391   1.2980   1.3737   1.4411
     2.0210   2.0744   2.0754   2.1198   6.4200   6.4423   6.5426   6.5823
     6.7830   6.7914   7.7716   7.8186   7.8583   7.9700   7.9866   8.0710
     8.5317   8.5545   8.6422   8.8398   8.8565   9.0015

          k = 0.2000-0.1194 0.0071 ( 56062 PWs)   bands (ev):

   -20.7802 -20.7802 -20.7494 -20.7494 -19.0107 -19.0107 -18.9639 -18.9639
   -18.1850 -18.1849 -18.1698 -18.1698 -15.8083 -15.8083 -15.6748 -15.6748
   -13.2992 -13.2992 -13.2737 -13.2737 -12.7706 -12.7706 -12.7077 -12.7077
    -8.9179  -8.9179  -8.8163  -8.8163  -8.2786  -8.2786  -8.1435  -8.1435
    -7.5951  -7.5951  -7.4338  -7.4338  -7.1338  -7.1338  -7.0415  -7.0415
    -6.0188  -6.0188  -5.8384  -5.8384  -5.1473  -5.1473  -4.9759  -4.9759
    -4.6018  -4.6017  -4.3324  -4.3324  -4.2908  -4.2908  -4.0211  -4.0211
    -3.5461  -3.5461  -3.2152  -3.2151  -2.1408  -2.1408  -1.9463  -1.9463
    -1.5263  -1.5263  -1.4055  -1.4055  -1.2467  -1.2467  -1.0927  -1.0927
    -0.7890  -0.7890  -0.6194  -0.6194   0.0203   0.0203   0.0846   0.0846
     0.5160   0.5160   0.5718   0.5718   1.3150   1.3150   1.3732   1.3732
     2.0476   2.0476   2.1071   2.1071   6.4532   6.4533   6.5612   6.5612
     7.0006   7.0006   7.4705   7.4705   7.9145   7.9145   7.9891   7.9891
     8.3848   8.3848   8.6753   8.6753   8.9470   8.9470

          k = 0.2000-0.1194-0.1899 ( 56032 PWs)   bands (ev):

   -20.7693 -20.7693 -20.7604 -20.7604 -19.0075 -19.0074 -18.9674 -18.9674
   -18.1849 -18.1849 -18.1696 -18.1695 -15.7766 -15.7766 -15.7079 -15.7079
   -13.2960 -13.2960 -13.2704 -13.2704 -12.7876 -12.7876 -12.6962 -12.6961
    -8.9065  -8.9065  -8.8159  -8.8159  -8.3279  -8.3279  -8.1081  -8.1081
    -7.5524  -7.5524  -7.4766  -7.4766  -7.1762  -7.1762  -6.9941  -6.9940
    -5.9961  -5.9961  -5.8617  -5.8617  -5.1569  -5.1569  -4.9465  -4.9464
    -4.5192  -4.5192  -4.4346  -4.4346  -4.3055  -4.3055  -4.0585  -4.0584
    -3.5262  -3.5261  -3.1834  -3.1834  -2.2166  -2.2166  -1.8316  -1.8316
    -1.5488  -1.5488  -1.4272  -1.4272  -1.2507  -1.2507  -1.0563  -1.0562
    -0.7577  -0.7577  -0.6816  -0.6816   0.0186   0.0186   0.0980   0.0980
     0.4516   0.4516   0.6513   0.6513   1.2662   1.2662   1.4065   1.4065
     2.0468   2.0468   2.0999   2.0999   6.4306   6.4307   6.5620   6.5621
     6.7876   6.7876   7.7899   7.7899   7.9269   7.9269   8.0301   8.0301
     8.5367   8.5367   8.6863   8.6863   8.9393   8.9394

          k = 0.4000 0.0000 0.0142 ( 56131 PWs)   bands (ev):

   -20.5647 -20.5626 -20.5509 -20.5497 -18.7981 -18.7884 -18.7430 -18.7429
   -18.2088 -18.2054 -18.1871 -18.1793 -15.9078 -15.9063 -15.8525 -15.8520
   -13.6266 -13.6181 -13.5819 -13.5632 -13.2831 -13.2644 -13.2637 -13.2518
    -8.7555  -8.7412  -8.6685  -8.6464  -8.2686  -8.2503  -8.2475  -8.2243
    -7.4648  -7.4244  -7.3036  -7.2739  -7.0226  -7.0050  -6.8234  -6.8217
    -6.1856  -6.1715  -6.0101  -5.9512  -5.9258  -5.8314  -5.7918  -5.7901
    -5.1718  -5.1685  -5.0656  -5.0614  -4.5327  -4.5137  -4.1652  -4.1404
    -3.4271  -3.4161  -3.1787  -3.0821  -2.0745  -2.0406  -1.9981  -1.8263
    -1.6863  -1.5264  -1.5000  -1.2893  -0.7232  -0.6004  -0.5653  -0.4153
     0.1928   0.2626   0.2899   0.3484   0.6668   0.7490   0.7693   0.8672
     1.1001   1.1161   1.2060   1.2128   1.4003   1.4217   1.5393   1.5421
     2.9868   3.0094   3.0191   3.0410   5.7040   5.7472   5.7651   5.8067
     7.4464   7.5045   7.8475   7.9751   8.0127   8.0504   8.1106   8.1783
     8.8986   9.0071   9.0901   9.1220   9.1356   9.2466

          k = 0.4000 0.0000-0.1828 ( 56050 PWs)   bands (ev):

   -20.5662 -20.5646 -20.5492 -20.5477 -18.7917 -18.7911 -18.7463 -18.7442
   -18.2079 -18.2041 -18.1855 -18.1825 -15.9398 -15.9391 -15.8182 -15.8172
   -13.6208 -13.6048 -13.5925 -13.5754 -13.3172 -13.2745 -13.2558 -13.2157
    -8.7273  -8.6987  -8.6969  -8.6895  -8.3645  -8.3165  -8.1629  -8.1556
    -7.3876  -7.3749  -7.3671  -7.3421  -7.0322  -6.9972  -6.8353  -6.8312
    -6.1758  -6.1435  -6.0303  -5.9368  -5.9276  -5.8413  -5.7942  -5.7261
    -5.1715  -5.1566  -5.0787  -5.0710  -4.5225  -4.3957  -4.2486  -4.2176
    -3.4958  -3.3203  -3.1607  -3.1297  -2.1676  -2.0590  -1.9416  -1.8255
    -1.7245  -1.5993  -1.4330  -1.2265  -0.7186  -0.6074  -0.5618  -0.3933
     0.2275   0.2599   0.3226   0.3588   0.6404   0.7787   0.8089   0.8490
     0.9627   1.0811   1.1805   1.3218   1.4585   1.4622   1.5060   1.5069
     2.9547   3.0020   3.0240   3.0661   5.6683   5.6958   5.7959   5.8650
     7.1804   7.2571   7.8500   7.9014   8.0644   8.1415   8.4682   8.6089
     8.7512   8.8226   8.8742   9.1022   9.1607   9.1959

          k = 0.4000-0.1194 0.0142 ( 56124 PWs)   bands (ev):

   -20.5637 -20.5637 -20.5503 -20.5503 -18.7933 -18.7933 -18.7430 -18.7429
   -18.2066 -18.2065 -18.1838 -18.1837 -15.9070 -15.9070 -15.8523 -15.8523
   -13.6187 -13.6187 -13.5773 -13.5773 -13.2695 -13.2695 -13.2609 -13.2609
    -8.7490  -8.7490  -8.6571  -8.6571  -8.2609  -8.2609  -8.2338  -8.2338
    -7.4444  -7.4444  -7.2898  -7.2897  -7.0182  -7.0182  -6.8212  -6.8212
    -6.1500  -6.1500  -6.0120  -6.0120  -5.8923  -5.8923  -5.7716  -5.7716
    -5.1703  -5.1703  -5.0634  -5.0634  -4.5187  -4.5186  -4.1616  -4.1616
    -3.4160  -3.4159  -3.1291  -3.1291  -2.0782  -2.0782  -1.8965  -1.8965
    -1.6477  -1.6477  -1.3509  -1.3509  -0.6992  -0.6992  -0.4426  -0.4426
     0.2327   0.2327   0.2924   0.2924   0.6994   0.6994   0.8452   0.8452
     1.0881   1.0881   1.2072   1.2072   1.4626   1.4626   1.5044   1.5044
     3.0009   3.0010   3.0271   3.0271   5.7190   5.7190   5.7926   5.7926
     7.4710   7.4710   7.9087   7.9087   8.0438   8.0438   8.1385   8.1386
     8.9483   8.9483   9.0904   9.0904   9.1968   9.1968

          k = 0.4000-0.1194-0.1828 ( 56084 PWs)   bands (ev):

   -20.5655 -20.5655 -20.5484 -20.5484 -18.7917 -18.7916 -18.7450 -18.7450
   -18.2067 -18.2066 -18.1834 -18.1834 -15.9395 -15.9395 -15.8177 -15.8177
   -13.6200 -13.6200 -13.5755 -13.5755 -13.3054 -13.3054 -13.2274 -13.2274
    -8.7147  -8.7147  -8.6925  -8.6925  -8.3390  -8.3390  -8.1592  -8.1592
    -7.4164  -7.4164  -7.3172  -7.3172  -7.0180  -7.0179  -6.8317  -6.8317
    -6.1463  -6.1463  -6.0269  -6.0269  -5.8631  -5.8631  -5.7541  -5.7541
    -5.1641  -5.1641  -5.0748  -5.0748  -4.4702  -4.4702  -4.2147  -4.2147
    -3.4411  -3.4411  -3.1138  -3.1138  -2.1289  -2.1289  -1.8799  -1.8799
    -1.6741  -1.6741  -1.3118  -1.3118  -0.7009  -0.7009  -0.4306  -0.4306
     0.2681   0.2681   0.3012   0.3012   0.7099   0.7099   0.8275   0.8275
     1.0283   1.0283   1.2395   1.2395   1.4794   1.4795   1.5017   1.5017
     2.9779   2.9779   3.0452   3.0452   5.6805   5.6805   5.8316   5.8316
     7.2184   7.2185   7.8705   7.8705   8.1173   8.1174   8.5263   8.5263
     8.7873   8.7873   8.9427   8.9427   9.2839   9.2839

     highest occupied, lowest unoccupied level (ev):     3.0661    5.6683

!    total energy              =    -945.56713103 Ry
     Harris-Foulkes estimate   =    -945.56713103 Ry
     estimated scf accuracy    <          2.9E-09 Ry

     total all-electron energy =     -3563.182229 Ry

     The total energy is the sum of the following terms:

     one-electron contribution =    -515.22715435 Ry
     hartree contribution      =     334.87783836 Ry
     xc contribution           =    -194.33848432 Ry
     ewald contribution        =    -307.30394359 Ry
     Dispersion Correction     =      -0.24423326 Ry
     one-center paw contrib.   =    -263.33115388 Ry

     convergence has been achieved in  13 iterations

     Forces acting on atoms (cartesian axes, Ry/au):

     atom    1 type  4   force =    -0.01576570    0.09223278   -0.01333580
     atom    2 type  4   force =     0.01576369    0.09223630    0.01333477
     atom    3 type  4   force =     0.01576570   -0.09223278    0.01333580
     atom    4 type  4   force =    -0.01576369   -0.09223630   -0.01333477
     atom    5 type  2   force =    -0.07642470   -0.00400142   -0.08923791
     atom    6 type  2   force =     0.07642625   -0.00400092    0.08923816
     atom    7 type  2   force =     0.07642470    0.00400142    0.08923791
     atom    8 type  2   force =    -0.07642625    0.00400092   -0.08923816
     atom    9 type  2   force =    -0.02273373    0.06481170   -0.03964580
     atom   10 type  2   force =     0.02273411    0.06481270    0.03964514
     atom   11 type  2   force =     0.02273373   -0.06481170    0.03964580
     atom   12 type  2   force =    -0.02273411   -0.06481270   -0.03964514
     atom   13 type  2   force =     0.06487100    0.00697906    0.08996630
     atom   14 type  2   force =    -0.06487271    0.00697925   -0.08996646
     atom   15 type  2   force =    -0.06487100   -0.00697906   -0.08996630
     atom   16 type  2   force =     0.06487271   -0.00697925    0.08996646
     atom   17 type  2   force =     0.07454939   -0.03455827    0.04831022
     atom   18 type  2   force =    -0.07455133   -0.03455830   -0.04830926
     atom   19 type  2   force =    -0.07454939    0.03455827   -0.04831022
     atom   20 type  2   force =     0.07455133    0.03455830    0.04830926
     atom   21 type  2   force =     0.00499853   -0.07061932    0.02828270
     atom   22 type  2   force =    -0.00499928   -0.07061885   -0.02828305
     atom   23 type  2   force =    -0.00499853    0.07061932   -0.02828270
     atom   24 type  2   force =     0.00499928    0.07061885    0.02828305
     atom   25 type  2   force =    -0.03646088   -0.02406156    0.01467624
     atom   26 type  2   force =     0.03646075   -0.02405858   -0.01467822
     atom   27 type  2   force =     0.03646088    0.02406156   -0.01467624
     atom   28 type  2   force =    -0.03646075    0.02405858    0.01467822
     atom   29 type  1   force =    -0.00029112   -0.02774256   -0.03779416
     atom   30 type  1   force =     0.00029993   -0.02774437    0.03779577
     atom   31 type  1   force =     0.00029112    0.02774256    0.03779416
     atom   32 type  1   force =    -0.00029993    0.02774437   -0.03779577
     atom   33 type  3   force =     0.01215813   -0.00131981   -0.00534001
     atom   34 type  3   force =    -0.01215813   -0.00131973    0.00534000
     atom   35 type  3   force =    -0.01215813    0.00131981    0.00534001
     atom   36 type  3   force =     0.01215813    0.00131973   -0.00534000
     atom   37 type  3   force =     0.00405632    0.00476587   -0.00262043
     atom   38 type  3   force =    -0.00405646    0.00476550    0.00262075
     atom   39 type  3   force =    -0.00405632   -0.00476587    0.00262043
     atom   40 type  3   force =     0.00405646   -0.00476550   -0.00262075
     atom   41 type  3   force =    -0.00341805    0.00301044    0.00118600
     atom   42 type  3   force =     0.00341804    0.00301026   -0.00118596
     atom   43 type  3   force =     0.00341805   -0.00301044   -0.00118600
     atom   44 type  3   force =    -0.00341804   -0.00301026    0.00118596
     atom   45 type  3   force =    -0.00628861    0.00105241    0.00476882
     atom   46 type  3   force =     0.00628872    0.00105218   -0.00476912
     atom   47 type  3   force =     0.00628861   -0.00105241   -0.00476882
     atom   48 type  3   force =    -0.00628872   -0.00105218    0.00476912
     atom   49 type  3   force =    -0.00392791   -0.00130825    0.00597297
     atom   50 type  3   force =     0.00392788   -0.00130800   -0.00597310
     atom   51 type  3   force =     0.00392791    0.00130825   -0.00597297
     atom   52 type  3   force =    -0.00392788    0.00130800    0.00597310
     atom   53 type  3   force =     0.00332886   -0.00455015   -0.00119113
     atom   54 type  3   force =    -0.00332905   -0.00455007    0.00119115
     atom   55 type  3   force =    -0.00332886    0.00455015    0.00119113
     atom   56 type  3   force =     0.00332905    0.00455007   -0.00119115

     Total force =     0.494002     Total SCF correction =     0.000105


     Computing stress (Cartesian axis) and pressure

          total   stress  (Ry/bohr**3)                   (kbar)     P=   43.89
   0.00078338   0.00000000   0.00025199        115.24      0.00     37.07
   0.00000000  -0.00002698  -0.00000000          0.00     -3.97     -0.00
   0.00025199  -0.00000000   0.00013858         37.07     -0.00     20.39


     Writing output data file scf.save
 
     init_run     :     18.13s CPU     18.67s WALL (       1 calls)
     electrons    :    447.74s CPU    465.47s WALL (       1 calls)
     forces       :      9.12s CPU      9.17s WALL (       1 calls)
     stress       :     27.59s CPU     27.61s WALL (       1 calls)

     Called by init_run:
     wfcinit      :     12.63s CPU     13.11s WALL (       1 calls)
     potinit      :      1.95s CPU      1.97s WALL (       1 calls)

     Called by electrons:
     c_bands      :    395.25s CPU    410.83s WALL (      13 calls)
     sum_band     :     46.55s CPU     48.46s WALL (      13 calls)
     v_of_rho     :      0.87s CPU      0.97s WALL (      14 calls)
     newd         :      1.79s CPU      1.82s WALL (      14 calls)
     PAW_pot      :      3.00s CPU      3.00s WALL (      14 calls)
     mix_rho      :      0.17s CPU      0.18s WALL (      13 calls)

     Called by c_bands:
     init_us_2    :      3.17s CPU      3.18s WALL (     348 calls)
     cegterg      :    384.21s CPU    399.72s WALL (     156 calls)

     Called by sum_band:
     sum_band:bec :      0.04s CPU      0.04s WALL (     156 calls)
     addusdens    :      1.70s CPU      1.74s WALL (      13 calls)

     Called by *egterg:
     h_psi        :    230.55s CPU    241.84s WALL (     778 calls)
     s_psi        :     38.07s CPU     38.10s WALL (     778 calls)
     g_psi        :      1.34s CPU      1.35s WALL (     610 calls)
     cdiaghg      :     25.98s CPU     25.97s WALL (     766 calls)

     Called by h_psi:
     h_psi:pot    :    229.02s CPU    240.29s WALL (     778 calls)
     h_psi:calbec :     37.86s CPU     38.01s WALL (     778 calls)
     vloc_psi     :    153.08s CPU    164.18s WALL (     778 calls)
     add_vuspsi   :     38.08s CPU     38.10s WALL (     778 calls)

     General routines
     calbec       :     56.68s CPU     56.88s WALL (     994 calls)
     fft          :      0.79s CPU      0.95s WALL (     206 calls)
     fftw         :    165.64s CPU    177.92s WALL (  114270 calls)
 
     Parallel routines
     fft_scatter  :     45.68s CPU     53.47s WALL (  114476 calls)
 
     PWSCF        :  8m28.45s CPU     8m48.17s WALL

 
   This run was terminated on:   5:11:18   4Nov2017            

=------------------------------------------------------------------------------=
   JOB DONE.
=------------------------------------------------------------------------------=
