
     Program PWSCF v.6.1 (svn rev. 13369) starts on  4Nov2017 at  4:43: 8 

     This program is part of the open-source Quantum ESPRESSO suite
     for quantum simulation of materials; please cite
         "P. Giannozzi et al., J. Phys.:Condens. Matter 21 395502 (2009);
          URL http://www.quantum-espresso.org", 
     in publications or presentations arising from this work. More details at
     http://www.quantum-espresso.org/quote

     Parallel version (MPI), running on     8 processors
     R & G space division:  proc/nbgrp/npool/nimage =       8
     Waiting for input...
     Reading input from standard input

     Current dimensions of program PWSCF are:
     Max number of different atomic species (ntypx) = 10
     Max number of k-points (npk) =  40000
     Max angular momentum in pseudopotentials (lmaxx) =  3
               file C.pbe-n-kjpaw_psl.0.1.UPF: wavefunction(s)  2P renormalized
               file N.pbe-n-kjpaw_psl.0.1.UPF: wavefunction(s)  2P renormalized
               file H.pbe-kjpaw_psl.0.1.UPF: wavefunction(s)  1S renormalized
               file O.pbe-n-kjpaw_psl.0.1.UPF: wavefunction(s)  2P renormalized

     -------------------------------------
     Parameters for Dispersion Correction:
     -------------------------------------
       atom      VdW radius       C_6     

        C          2.744         60.710
        N          2.640         42.670
        H          1.892          4.857
        O          2.536         24.284

     Subspace diagonalization in iterative solution of the eigenvalue problem:
     a serial algorithm will be used

 
     Parallelization info
     --------------------
     sticks:   dense  smooth     PW     G-vecs:    dense   smooth      PW
     Min        1159    1159    307                94210    94210   12865
     Max        1160    1160    308                94213    94213   12868
     Sum        9279    9279   2459               753693   753693  102931
 


     bravais-lattice index     =            0
     lattice parameter (alat)  =      15.3427  a.u.
     unit-cell volume          =    5578.1539 (a.u.)^3
     number of atoms/cell      =           70
     number of atomic types    =            4
     number of electrons       =       324.00
     number of Kohn-Sham states=          194
     kinetic-energy cutoff     =     100.0000  Ry
     charge density cutoff     =     400.0000  Ry
     convergence threshold     =      1.0E-08
     mixing beta               =       0.5000
     number of iterations used =            8  plain     mixing
     Exchange-correlation      =  SLA  PW   PBX  PBC ( 1  4  3  4 0 0)

     celldm(1)=  15.342686  celldm(2)=   0.000000  celldm(3)=   0.000000
     celldm(4)=   0.000000  celldm(5)=   0.000000  celldm(6)=   0.000000

     crystal axes: (cart. coord. in units of alat)
               a(1) = (   1.000000   0.000000   0.000000 )  
               a(2) = (   0.401440   1.238446   0.000000 )  
               a(3) = (   0.369814   0.224271   1.247122 )  

     reciprocal axes: (cart. coord. in units 2 pi/alat)
               b(1) = (  1.000000 -0.324148 -0.238242 )  
               b(2) = (  0.000000  0.807463 -0.145207 )  
               b(3) = (  0.000000  0.000000  0.801846 )  


     PseudoPot. # 1 for  C read from file:
     /scratch/ahofstet/pseudo/C.pbe-n-kjpaw_psl.0.1.UPF
     MD5 check sum: 430fe95172b1e11ef3f8ed03bac87931
     Pseudo is Projector augmented-wave + core cor, Zval =  4.0
     Generated using "atomic" code by A. Dal Corso  v.5.0.99 svn rev. 10869
     Shape of augmentation charge: BESSEL
     Using radial grid of 1073 points,  4 beta functions with: 
                l(1) =   0
                l(2) =   0
                l(3) =   1
                l(4) =   1
     Q(r) pseudized with 0 coefficients 


     PseudoPot. # 2 for  N read from file:
     /scratch/ahofstet/pseudo/N.pbe-n-kjpaw_psl.0.1.UPF
     MD5 check sum: f73187c8b701007e77325f868c9291d7
     Pseudo is Projector augmented-wave + core cor, Zval =  5.0
     Generated using "atomic" code by A. Dal Corso  v.5.0.99 svn rev. 10869
     Shape of augmentation charge: PSQ
     Using radial grid of 1085 points,  4 beta functions with: 
                l(1) =   0
                l(2) =   0
                l(3) =   1
                l(4) =   1
     Q(r) pseudized with 0 coefficients 


     PseudoPot. # 3 for  H read from file:
     /scratch/ahofstet/pseudo/H.pbe-kjpaw_psl.0.1.UPF
     MD5 check sum: 94e484f906d9e9773b2f6e52662335b2
     Pseudo is Projector augmented-wave, Zval =  1.0
     Generated using "atomic" code by A. Dal Corso  v.5.0.99 svn rev. 10869
     Shape of augmentation charge: PSQ
     Using radial grid of  929 points,  2 beta functions with: 
                l(1) =   0
                l(2) =   0
     Q(r) pseudized with 0 coefficients 


     PseudoPot. # 4 for  O read from file:
     /scratch/ahofstet/pseudo/O.pbe-n-kjpaw_psl.0.1.UPF
     MD5 check sum: 3f94a2996a3169367d6eb21d9b593f20
     Pseudo is Projector augmented-wave + core cor, Zval =  6.0
     Generated using "atomic" code by A. Dal Corso  v.5.0.99 svn rev. 10869
     Shape of augmentation charge: BESSEL
     Using radial grid of 1095 points,  4 beta functions with: 
                l(1) =   0
                l(2) =   0
                l(3) =   1
                l(4) =   1
     Q(r) pseudized with 0 coefficients 


     atomic species   valence    mass     pseudopotential
        C              4.00    12.01070      C( 1.00)
        N              5.00    14.00670      N( 1.00)
        H              1.00     1.00794      H( 1.00)
        O              6.00    15.99940      O( 1.00)

      2 Sym. Ops., with inversion, found



   Cartesian axes

     site n.     atom                  positions (alat units)
         1           N   tau(   1) = (   0.5187234   0.2991151   0.8282835  )
         2           N   tau(   2) = (   1.2525304   1.1636017   0.4188389  )
         3           O   tau(   3) = (   1.2408431   0.3042820   0.7728293  )
         4           O   tau(   4) = (   0.5304107   1.1584349   0.4742931  )
         5           N   tau(   5) = (   0.7354094   1.3305656   0.9253580  )
         6           N   tau(   6) = (   1.0358444   0.1321512   0.3217645  )
         7           N   tau(   7) = (   1.0193899   1.3194647   0.9977109  )
         8           N   tau(   8) = (   0.7518639   0.1432521   0.2494115  )
         9           C   tau(   9) = (   0.8642632   1.2638326   0.9976567  )
        10           C   tau(  10) = (   0.9069906   0.1988842   0.2494658  )
        11           C   tau(  11) = (   0.3659039   0.2332022   0.8427669  )
        12           C   tau(  12) = (   1.4053499   1.2295146   0.4043556  )
        13           C   tau(  13) = (   0.8088569   0.2857707   0.8925504  )
        14           C   tau(  14) = (   0.9623969   1.1769461   0.3545720  )
        15           C   tau(  15) = (   0.8332383   1.1051510   1.0927978  )
        16           C   tau(  16) = (   0.9380155   0.3575659   0.1543247  )
        17           N   tau(  17) = (   0.8313873   0.3561370   0.7156474  )
        18           N   tau(  18) = (   0.9398665   1.1065799   0.5314750  )
        19           C   tau(  19) = (   0.6345468   0.2178801   0.9084271  )
        20           C   tau(  20) = (   1.1367070   1.2448368   0.3386953  )
        21           O   tau(  21) = (   0.8128977   0.2561044   0.6052278  )
        22           O   tau(  22) = (   0.9583561   1.2066125   0.6418947  )
        23           O   tau(  23) = (   0.4227251   1.0612670   0.0688794  )
        24           O   tau(  24) = (   1.3485287   0.4014499   1.1782431  )
        25           N   tau(  25) = (   1.3351455   1.3821322   0.9312776  )
        26           N   tau(  26) = (   0.4361083   0.0805847   0.3158448  )
        27           N   tau(  27) = (   0.4403676   0.9160088   0.0327809  )
        28           N   tau(  28) = (   1.3308862   0.5467081   1.2143416  )
        29           O   tau(  29) = (   0.4394564   0.7967851   0.1236549  )
        30           O   tau(  30) = (   1.3317974   0.6659318   1.1234675  )
        31           N   tau(  31) = (   0.9865565   0.9864492   1.0767005  )
        32           N   tau(  32) = (   0.7846973   0.4762676   0.1704219  )
        33           O   tau(  33) = (   1.3667015   1.2871732   0.8198837  )
        34           O   tau(  34) = (   0.4045523   0.1755436   0.4272387  )
        35           N   tau(  35) = (   0.8457032   0.4304400   1.0124846  )
        36           N   tau(  36) = (   0.9255506   1.0322769   0.2346378  )
        37           N   tau(  37) = (   0.6744755   1.0192550   1.0288410  )
        38           N   tau(  38) = (   1.0967783   0.4434619   0.2182815  )
        39           O   tau(  39) = (   0.7276069   0.4869415   1.0863237  )
        40           O   tau(  40) = (   1.0436469   0.9757753   0.1607987  )
        41           O   tau(  41) = (   0.8581068   0.5034398   0.7026650  )
        42           O   tau(  42) = (   0.9131470   0.9592770   0.5444575  )
        43           O   tau(  43) = (   1.3790046   1.3765119   1.0745155  )
        44           O   tau(  44) = (   0.3922492   0.0862049   0.1726070  )
        45           O   tau(  45) = (   0.6787163   0.9820288   0.8832668  )
        46           O   tau(  46) = (   1.0925375   0.4806881   0.3638557  )
        47           O   tau(  47) = (   0.9888869   0.4753807   1.0164772  )
        48           O   tau(  48) = (   0.7823669   0.9873361   0.2306453  )
        49           O   tau(  49) = (   0.9845856   0.8855279   0.9658622  )
        50           O   tau(  50) = (   0.7866682   0.5771890   0.2812602  )
        51           O   tau(  51) = (   1.0951358   1.0137778   1.1761197  )
        52           O   tau(  52) = (   0.6761180   0.4489390   0.0710027  )
        53           O   tau(  53) = (   1.5627420   0.9986600   1.1268325  )
        54           O   tau(  54) = (   0.2085118   0.4640569   0.1202900  )
        55           O   tau(  55) = (   1.3157856   0.5766396   0.6462795  )
        56           O   tau(  56) = (   0.4554682   0.8860772   0.6008430  )
        57           C   tau(  57) = (   0.4438240   0.5993058   0.5253394  )
        58           C   tau(  58) = (   1.3274298   0.8634110   0.7217830  )
        59           C   tau(  59) = (   1.2171904   0.7226265   0.6682859  )
        60           C   tau(  60) = (   0.5540634   0.7400904   0.5788365  )
        61           H   tau(  61) = (   0.3867744   0.6252120   0.4050458  )
        62           H   tau(  62) = (   1.3844794   0.8375049   0.8420766  )
        63           H   tau(  63) = (   0.5118218   0.4827303   0.5193626  )
        64           H   tau(  64) = (   1.2594320   0.9799866   0.7277598  )
        65           H   tau(  65) = (   1.1255354   0.6938755   0.7630241  )
        66           H   tau(  66) = (   0.6457184   0.7688413   0.4840984  )
        67           H   tau(  67) = (   1.1549976   0.7514547   0.5511412  )
        68           H   tau(  68) = (   0.6162562   0.7112622   0.6959813  )
        69           H   tau(  69) = (   1.2745099   0.4146885   0.7175692  )
        70           H   tau(  70) = (   0.4967439   1.0480284   0.5295533  )

     number of k points=     8
                       cart. coord. in units 2pi/alat
        k(    1) = (   0.0000000   0.0000000   0.0000000), wk =   0.1666667
        k(    2) = (   0.0000000   0.0000000  -0.4009229), wk =   0.1666667
        k(    3) = (   0.0000000  -0.4037317   0.0726033), wk =   0.1666667
        k(    4) = (   0.0000000  -0.4037317  -0.3283197), wk =   0.1666667
        k(    5) = (   0.3333333  -0.1080493  -0.0794140), wk =   0.3333333
        k(    6) = (   0.3333333  -0.1080493  -0.4803370), wk =   0.3333333
        k(    7) = (   0.3333333  -0.5117810  -0.0068108), wk =   0.3333333
        k(    8) = (   0.3333333  -0.5117810  -0.4077337), wk =   0.3333333

     Dense  grid:   753693 G-vectors     FFT dimensions: ( 100, 128, 135)

     Estimated max dynamical RAM per process >     759.18MB

     Estimated total allocated dynamical RAM >    6073.47MB

     Check: negative/imaginary core charge=   -0.000003    0.000000

     Initial potential from superposition of free atoms

     starting charge  323.99915, renormalised to  324.00000
     Starting wfc are  250 randomized atomic wfcs
     Checking if some PAW data can be deallocated... 

     total cpu time spent up to now is       39.4 secs

     per-process dynamical memory:   544.7 Mb

     Self-consistent Calculation

     iteration #  1     ecut=   100.00 Ry     beta=0.50
     Davidson diagonalization with overlap
     ethr =  1.00E-02,  avg # of iterations =  3.9

     total cpu time spent up to now is      136.9 secs

     total energy              =   -1939.04513721 Ry
     Harris-Foulkes estimate   =   -1943.91962908 Ry
     estimated scf accuracy    <       8.30965839 Ry

     iteration #  2     ecut=   100.00 Ry     beta=0.50
     Davidson diagonalization with overlap
     ethr =  2.56E-03,  avg # of iterations =  6.2

     total cpu time spent up to now is      224.2 secs

     total energy              =   -1940.57673013 Ry
     Harris-Foulkes estimate   =   -1942.75274474 Ry
     estimated scf accuracy    <       5.04092171 Ry

     iteration #  3     ecut=   100.00 Ry     beta=0.50
     Davidson diagonalization with overlap
     ethr =  1.56E-03,  avg # of iterations =  3.0

     total cpu time spent up to now is      284.3 secs

     total energy              =   -1941.50741651 Ry
     Harris-Foulkes estimate   =   -1941.61534456 Ry
     estimated scf accuracy    <       0.28661905 Ry

     iteration #  4     ecut=   100.00 Ry     beta=0.50
     Davidson diagonalization with overlap
     ethr =  8.85E-05,  avg # of iterations =  7.0

     total cpu time spent up to now is      402.1 secs

     total energy              =   -1941.60469561 Ry
     Harris-Foulkes estimate   =   -1941.68482997 Ry
     estimated scf accuracy    <       0.21104336 Ry

     iteration #  5     ecut=   100.00 Ry     beta=0.50
     Davidson diagonalization with overlap
     ethr =  6.51E-05,  avg # of iterations =  3.1

     total cpu time spent up to now is      463.5 secs

     total energy              =   -1941.63200896 Ry
     Harris-Foulkes estimate   =   -1941.65700094 Ry
     estimated scf accuracy    <       0.07751031 Ry

     iteration #  6     ecut=   100.00 Ry     beta=0.50
     Davidson diagonalization with overlap
     ethr =  2.39E-05,  avg # of iterations =  2.1

     total cpu time spent up to now is      521.3 secs

     total energy              =   -1941.64394796 Ry
     Harris-Foulkes estimate   =   -1941.64565607 Ry
     estimated scf accuracy    <       0.00463842 Ry

     iteration #  7     ecut=   100.00 Ry     beta=0.50
     Davidson diagonalization with overlap
     ethr =  1.43E-06,  avg # of iterations =  6.0

     total cpu time spent up to now is      638.5 secs

     total energy              =   -1941.64591072 Ry
     Harris-Foulkes estimate   =   -1941.64690169 Ry
     estimated scf accuracy    <       0.00289991 Ry

     iteration #  8     ecut=   100.00 Ry     beta=0.50
     Davidson diagonalization with overlap
     ethr =  8.95E-07,  avg # of iterations =  2.0

     total cpu time spent up to now is      696.4 secs

     total energy              =   -1941.64612102 Ry
     Harris-Foulkes estimate   =   -1941.64645824 Ry
     estimated scf accuracy    <       0.00095254 Ry

     iteration #  9     ecut=   100.00 Ry     beta=0.50
     Davidson diagonalization with overlap
     ethr =  2.94E-07,  avg # of iterations =  3.0

     total cpu time spent up to now is      763.4 secs

     total energy              =   -1941.64631838 Ry
     Harris-Foulkes estimate   =   -1941.64637234 Ry
     estimated scf accuracy    <       0.00015805 Ry

     iteration # 10     ecut=   100.00 Ry     beta=0.50
     Davidson diagonalization with overlap
     ethr =  4.88E-08,  avg # of iterations =  3.0

     total cpu time spent up to now is      836.2 secs

     total energy              =   -1941.64634973 Ry
     Harris-Foulkes estimate   =   -1941.64636915 Ry
     estimated scf accuracy    <       0.00006111 Ry

     iteration # 11     ecut=   100.00 Ry     beta=0.50
     Davidson diagonalization with overlap
     ethr =  1.89E-08,  avg # of iterations =  3.0

     total cpu time spent up to now is      895.7 secs

     total energy              =   -1941.64635492 Ry
     Harris-Foulkes estimate   =   -1941.64636118 Ry
     estimated scf accuracy    <       0.00002029 Ry

     iteration # 12     ecut=   100.00 Ry     beta=0.50
     Davidson diagonalization with overlap
     ethr =  6.26E-09,  avg # of iterations =  3.2

     total cpu time spent up to now is      957.6 secs

     total energy              =   -1941.64635832 Ry
     Harris-Foulkes estimate   =   -1941.64635890 Ry
     estimated scf accuracy    <       0.00000192 Ry

     iteration # 13     ecut=   100.00 Ry     beta=0.50
     Davidson diagonalization with overlap
     ethr =  5.91E-10,  avg # of iterations =  4.0

     total cpu time spent up to now is     1059.0 secs

     total energy              =   -1941.64635926 Ry
     Harris-Foulkes estimate   =   -1941.64635951 Ry
     estimated scf accuracy    <       0.00000081 Ry

     iteration # 14     ecut=   100.00 Ry     beta=0.50
     Davidson diagonalization with overlap
     ethr =  2.49E-10,  avg # of iterations =  2.0

     total cpu time spent up to now is     1118.1 secs

     total energy              =   -1941.64635933 Ry
     Harris-Foulkes estimate   =   -1941.64635942 Ry
     estimated scf accuracy    <       0.00000028 Ry

     iteration # 15     ecut=   100.00 Ry     beta=0.50
     Davidson diagonalization with overlap
     ethr =  8.51E-11,  avg # of iterations =  2.0

     total cpu time spent up to now is     1177.6 secs

     total energy              =   -1941.64635938 Ry
     Harris-Foulkes estimate   =   -1941.64635939 Ry
     estimated scf accuracy    <       0.00000003 Ry

     iteration # 16     ecut=   100.00 Ry     beta=0.50
     Davidson diagonalization with overlap
     ethr =  1.01E-11,  avg # of iterations =  4.0

     total cpu time spent up to now is     1273.9 secs

     total energy              =   -1941.64635939 Ry
     Harris-Foulkes estimate   =   -1941.64635940 Ry
     estimated scf accuracy    <       0.00000002 Ry

     iteration # 17     ecut=   100.00 Ry     beta=0.50
     Davidson diagonalization with overlap
     ethr =  7.09E-12,  avg # of iterations =  2.0

     total cpu time spent up to now is     1331.2 secs

     End of self-consistent calculation

          k = 0.0000 0.0000 0.0000 ( 94265 PWs)   bands (ev):

   -25.2016 -25.1941 -25.0903 -25.0726 -24.8041 -24.8011 -24.6825 -24.6682
   -24.6051 -24.6022 -24.5682 -24.5680 -20.8778 -20.8549 -20.7508 -20.7456
   -20.6421 -20.6316 -20.5605 -20.5598 -20.4473 -20.4376 -20.4233 -20.4148
   -20.3823 -20.3777 -19.8088 -19.2519 -19.1852 -18.8398 -16.8663 -16.8619
   -16.1670 -16.1592 -15.2074 -15.1857 -15.0598 -15.0583 -12.4797 -11.4151
   -11.4086 -11.2000 -11.1747 -10.9657 -10.9622 -10.8729 -10.8520 -10.8184
   -10.8167 -10.5649 -10.4347 -10.3380  -9.6057  -8.7827  -8.6970  -8.1589
    -8.1221  -8.0534  -7.9552  -7.9185  -7.7601  -7.7058  -7.6515  -7.6503
    -7.5629  -7.4391  -7.4192  -7.3767  -7.3406  -7.2959  -7.1694  -7.1042
    -6.9926  -6.7957  -6.6889  -6.6531  -6.6200  -6.5289  -6.4734  -6.4442
    -6.3567  -6.3444  -6.3221  -6.2739  -6.2562  -6.2559  -6.1701  -6.1441
    -6.1413  -6.1249  -6.0856  -6.0468  -5.9966  -5.9263  -5.7696  -5.5366
    -5.2305  -5.1489  -5.0907  -5.0874  -4.8635  -4.8408  -4.7285  -4.6068
    -4.0335  -3.4657  -3.3226  -3.2602  -3.0615  -3.0210  -2.7644  -2.6691
    -2.4597  -2.3868  -2.1075  -1.8958  -1.8830  -1.8185  -1.7493  -1.7355
    -1.7009  -1.6811  -1.6787  -1.6017  -1.5852  -1.5341  -1.4490  -1.4401
    -1.4091  -1.2842  -1.2651  -1.2625  -1.2247  -1.1768  -1.1467  -1.0226
    -0.9975  -0.8290  -0.7732  -0.7672  -0.6777  -0.6222  -0.5917  -0.5832
    -0.5562  -0.5446  -0.5115  -0.4639  -0.4205  -0.4085  -0.3974  -0.3445
    -0.3312  -0.2967  -0.2638  -0.2405  -0.1725  -0.1403  -0.0402   0.0849
     0.0995   1.0199   2.9865   3.0660   3.0797   3.2078   3.2362   3.2520
     3.3022   3.3130   3.3448   3.3768   3.4328   3.5251   3.6917   3.7194
     4.3139   4.3200   6.7974   6.8860   7.0022   7.5752   7.5887   7.6881
     7.7073   7.7779   7.8841   8.0537   8.1280   8.1466   8.2732   8.5456
     8.6194   8.7567

          k = 0.0000 0.0000-0.4009 ( 94230 PWs)   bands (ev):

   -25.1988 -25.1966 -25.0909 -25.0726 -24.8037 -24.8012 -24.6825 -24.6682
   -24.6056 -24.6012 -24.5684 -24.5682 -20.8760 -20.8572 -20.7523 -20.7435
   -20.6424 -20.6315 -20.5613 -20.5590 -20.4478 -20.4374 -20.4230 -20.4151
   -20.3821 -20.3774 -19.8095 -19.2486 -19.1882 -18.8397 -16.8653 -16.8629
   -16.1653 -16.1608 -15.1980 -15.1954 -15.0600 -15.0579 -12.4790 -11.4161
   -11.4089 -11.1938 -11.1807 -10.9748 -10.9583 -10.8707 -10.8564 -10.8200
   -10.8164 -10.5568 -10.4403 -10.3261  -9.6057  -8.7970  -8.6894  -8.1469
    -8.1241  -8.0551  -7.9830  -7.8925  -7.7710  -7.7080  -7.6514  -7.6368
    -7.5833  -7.4355  -7.4015  -7.3596  -7.3286  -7.3281  -7.1715  -7.1615
    -6.8879  -6.8412  -6.7006  -6.6786  -6.6325  -6.4844  -6.4646  -6.4528
    -6.3550  -6.3534  -6.3151  -6.2799  -6.2441  -6.2276  -6.1833  -6.1535
    -6.1247  -6.1162  -6.0851  -6.0570  -5.9928  -5.9512  -5.7557  -5.5688
    -5.2255  -5.1612  -5.0842  -5.0453  -4.8833  -4.8578  -4.7196  -4.6082
    -4.0320  -3.4668  -3.3081  -3.2768  -3.0689  -3.0099  -2.7670  -2.6681
    -2.4357  -2.4174  -2.1095  -1.9282  -1.9118  -1.8074  -1.7485  -1.7465
    -1.7132  -1.6474  -1.6008  -1.5851  -1.5817  -1.5262  -1.4477  -1.4456
    -1.4146  -1.3034  -1.2914  -1.2675  -1.2382  -1.1318  -1.1294  -1.0310
    -1.0139  -0.8606  -0.7519  -0.6844  -0.6836  -0.6657  -0.6138  -0.5895
    -0.5791  -0.5557  -0.5068  -0.4290  -0.4203  -0.4033  -0.4011  -0.3573
    -0.3458  -0.2800  -0.2744  -0.2408  -0.1704  -0.1487  -0.0427   0.0808
     0.1056   1.0223   2.9870   3.0283   3.1054   3.2041   3.2437   3.2446
     3.3032   3.3113   3.3739   3.3790   3.4153   3.5321   3.6706   3.7337
     4.3100   4.3268   6.8322   6.8599   7.2324   7.3852   7.5925   7.6498
     7.7368   7.7698   7.8285   8.0815   8.1143   8.1387   8.2676   8.4691
     8.5896   8.6862

          k = 0.0000-0.4037 0.0726 ( 94204 PWs)   bands (ev):

   -25.2013 -25.1943 -25.0900 -25.0730 -24.8040 -24.8012 -24.6819 -24.6687
   -24.6050 -24.6025 -24.5689 -24.5670 -20.8689 -20.8652 -20.7486 -20.7462
   -20.6420 -20.6319 -20.5607 -20.5596 -20.4429 -20.4425 -20.4233 -20.4152
   -20.3802 -20.3789 -19.8085 -19.2430 -19.1964 -18.8377 -16.8656 -16.8631
   -16.1637 -16.1621 -15.2036 -15.1865 -15.0681 -15.0526 -12.4797 -11.4282
   -11.3977 -11.1937 -11.1780 -10.9847 -10.9562 -10.8747 -10.8663 -10.8198
   -10.8076 -10.5429 -10.4471 -10.3114  -9.6042  -8.7961  -8.7292  -8.1566
    -8.1191  -8.0390  -7.9903  -7.8374  -7.8048  -7.6956  -7.6610  -7.6580
    -7.5884  -7.4843  -7.3845  -7.3549  -7.3135  -7.2735  -7.2004  -7.1402
    -6.9135  -6.7859  -6.7159  -6.6405  -6.5753  -6.5416  -6.4954  -6.4427
    -6.3843  -6.3534  -6.3091  -6.3073  -6.2641  -6.2287  -6.1864  -6.1501
    -6.1251  -6.1151  -6.0601  -6.0518  -5.9886  -5.9261  -5.8047  -5.5569
    -5.1958  -5.1466  -5.1119  -5.0724  -4.8624  -4.8438  -4.7288  -4.6163
    -4.0399  -3.4651  -3.3165  -3.2577  -3.0756  -3.0163  -2.7806  -2.6603
    -2.4435  -2.3874  -2.1128  -1.9363  -1.8469  -1.8053  -1.7700  -1.7215
    -1.6949  -1.6897  -1.6603  -1.6154  -1.5408  -1.5210  -1.4945  -1.4720
    -1.3893  -1.2948  -1.2575  -1.2523  -1.2074  -1.1987  -1.1420  -1.0389
    -1.0028  -0.8001  -0.7963  -0.7460  -0.6412  -0.6253  -0.6032  -0.5709
    -0.5694  -0.5404  -0.5402  -0.4439  -0.4390  -0.4071  -0.3956  -0.3433
    -0.3202  -0.2981  -0.2590  -0.2522  -0.1768  -0.1539  -0.0237   0.0831
     0.0844   1.0210   2.9889   3.0613   3.0970   3.1967   3.2106   3.2451
     3.2963   3.3065   3.3478   3.3913   3.4187   3.5108   3.7095   3.7596
     4.3093   4.3209   6.8311   6.8356   7.3211   7.3464   7.5654   7.6045
     7.7156   7.7366   8.0293   8.0811   8.0814   8.1208   8.2221   8.4961
     8.5146   8.5429

          k = 0.0000-0.4037-0.3283 ( 94182 PWs)   bands (ev):

   -25.1986 -25.1966 -25.0902 -25.0735 -24.8038 -24.8012 -24.6819 -24.6687
   -24.6056 -24.6015 -24.5692 -24.5672 -20.8672 -20.8671 -20.7501 -20.7441
   -20.6418 -20.6323 -20.5611 -20.5592 -20.4437 -20.4424 -20.4231 -20.4154
   -20.3797 -20.3792 -19.8079 -19.2465 -19.1932 -18.8378 -16.8659 -16.8626
   -16.1668 -16.1591 -15.1959 -15.1946 -15.0661 -15.0545 -12.4794 -11.4164
   -11.4085 -11.1856 -11.1849 -10.9707 -10.9692 -10.8755 -10.8622 -10.8307
   -10.8047 -10.5340 -10.4528 -10.3165  -9.6042  -8.7852  -8.7387  -8.1316
    -8.1291  -8.0533  -7.9694  -7.8461  -7.8261  -7.6851  -7.6757  -7.6453
    -7.6174  -7.4576  -7.3863  -7.3434  -7.3333  -7.2421  -7.1733  -7.1569
    -6.8645  -6.8611  -6.7114  -6.6908  -6.5893  -6.5099  -6.4659  -6.4536
    -6.3642  -6.3271  -6.3079  -6.2716  -6.2667  -6.2634  -6.1912  -6.1601
    -6.1235  -6.1171  -6.0629  -6.0619  -5.9952  -5.9758  -5.7908  -5.5359
    -5.2068  -5.1338  -5.0821  -5.0614  -4.8707  -4.8703  -4.7275  -4.6158
    -4.0364  -3.4676  -3.3147  -3.2547  -3.0710  -3.0255  -2.7855  -2.6599
    -2.4594  -2.3727  -2.1051  -1.9037  -1.8606  -1.8457  -1.7669  -1.7605
    -1.7121  -1.6733  -1.6230  -1.5625  -1.5502  -1.5325  -1.4804  -1.4495
    -1.3960  -1.3052  -1.2788  -1.2722  -1.2309  -1.1338  -1.1241  -1.0634
    -0.9985  -0.8382  -0.7836  -0.7069  -0.6930  -0.6518  -0.6438  -0.5910
    -0.5509  -0.5189  -0.5120  -0.4433  -0.4001  -0.3913  -0.3852  -0.3616
    -0.3267  -0.2962  -0.2600  -0.2581  -0.1860  -0.1524  -0.0298   0.0836
     0.0884   1.0247   2.9880   3.0514   3.0891   3.1960   3.2144   3.2397
     3.2797   3.3076   3.3714   3.3946   3.4115   3.5137   3.7340   3.7409
     4.3123   4.3127   6.7992   6.8446   7.4777   7.5023   7.5056   7.5724
     7.7141   7.8450   7.8515   7.9897   8.1128   8.1179   8.3138   8.4320
     8.4367   8.6437

          k = 0.3333-0.1080-0.0794 ( 94162 PWs)   bands (ev):

   -25.2012 -25.1941 -25.0884 -25.0744 -24.8042 -24.8011 -24.6807 -24.6704
   -24.6052 -24.6015 -24.5686 -24.5682 -20.8758 -20.8636 -20.7488 -20.7457
   -20.6401 -20.6330 -20.5606 -20.5593 -20.4475 -20.4374 -20.4211 -20.4125
   -20.3831 -20.3782 -19.8094 -19.2470 -19.1906 -18.8392 -16.8598 -16.8567
   -16.1621 -16.1555 -15.2104 -15.1935 -15.0653 -15.0644 -12.4804 -11.4312
   -11.4141 -11.2051 -11.1866 -10.9755 -10.9582 -10.8652 -10.8476 -10.8318
   -10.8050 -10.5476 -10.4562 -10.3305  -9.6014  -8.7935  -8.7144  -8.1214
    -8.0801  -8.0616  -7.9534  -7.8732  -7.7835  -7.7410  -7.6358  -7.5977
    -7.5483  -7.4474  -7.4085  -7.3553  -7.3235  -7.2808  -7.1785  -7.1088
    -6.9157  -6.8226  -6.7263  -6.6910  -6.5970  -6.5459  -6.4543  -6.4410
    -6.3712  -6.3162  -6.3093  -6.2745  -6.2541  -6.2348  -6.1981  -6.1519
    -6.1258  -6.1123  -6.0888  -6.0777  -6.0206  -5.9738  -5.8249  -5.5678
    -5.2147  -5.1378  -5.0964  -5.0915  -4.8833  -4.8766  -4.7339  -4.6062
    -4.0410  -3.5006  -3.2875  -3.2496  -3.0839  -2.9703  -2.7722  -2.6295
    -2.4312  -2.3616  -2.1109  -1.9310  -1.8716  -1.8188  -1.7659  -1.7241
    -1.6687  -1.6409  -1.6211  -1.5886  -1.5823  -1.5577  -1.4919  -1.4657
    -1.4193  -1.2911  -1.2803  -1.2600  -1.2426  -1.1659  -1.1010  -1.0025
    -0.9756  -0.8170  -0.8094  -0.7382  -0.6958  -0.6678  -0.6193  -0.5957
    -0.5539  -0.5276  -0.4852  -0.4833  -0.4373  -0.4159  -0.3799  -0.3686
    -0.3389  -0.3068  -0.2600  -0.2270  -0.1766  -0.1593  -0.0301   0.0433
     0.0549   1.0239   2.9942   3.0529   3.1004   3.1850   3.2179   3.2486
     3.2764   3.3331   3.3443   3.3816   3.4345   3.5189   3.7215   3.7418
     4.3258   4.3489   6.8328   6.8420   7.2344   7.4895   7.5911   7.6633
     7.6992   7.7984   7.9534   8.0558   8.1391   8.1554   8.2376   8.5133
     8.5776   8.7213

          k = 0.3333-0.1080-0.4803 ( 94210 PWs)   bands (ev):

   -25.1986 -25.1965 -25.0887 -25.0745 -24.8038 -24.8013 -24.6807 -24.6704
   -24.6057 -24.6007 -24.5688 -24.5683 -20.8744 -20.8652 -20.7507 -20.7435
   -20.6401 -20.6330 -20.5610 -20.5589 -20.4481 -20.4372 -20.4202 -20.4131
   -20.3829 -20.3780 -19.8101 -19.2435 -19.1938 -18.8391 -16.8600 -16.8565
   -16.1604 -16.1572 -15.2038 -15.2000 -15.0674 -15.0625 -12.4804 -11.4273
   -11.4198 -11.2099 -11.1823 -10.9739 -10.9630 -10.8596 -10.8534 -10.8224
   -10.8092 -10.5467 -10.4614 -10.3212  -9.6014  -8.7880  -8.7266  -8.1037
    -8.0825  -8.0620  -7.9926  -7.8811  -7.7832  -7.7080  -7.6542  -7.5932
    -7.5247  -7.4509  -7.3936  -7.3498  -7.3243  -7.2955  -7.1795  -7.1382
    -6.9103  -6.8038  -6.7156  -6.7074  -6.6062  -6.5314  -6.4662  -6.4571
    -6.3618  -6.3357  -6.2861  -6.2639  -6.2547  -6.2092  -6.1904  -6.1564
    -6.1214  -6.1121  -6.0916  -6.0717  -6.0206  -5.9894  -5.8451  -5.5615
    -5.2081  -5.1514  -5.1292  -5.0727  -4.8857  -4.8656  -4.7269  -4.6073
    -4.0395  -3.5029  -3.2792  -3.2569  -3.0890  -2.9620  -2.7703  -2.6330
    -2.4196  -2.3788  -2.1192  -1.9669  -1.8791  -1.8099  -1.7336  -1.7142
    -1.6878  -1.6567  -1.6324  -1.5784  -1.5435  -1.5336  -1.4961  -1.4411
    -1.4048  -1.3108  -1.2791  -1.2601  -1.2221  -1.1418  -1.1375  -1.0233
    -0.9962  -0.8315  -0.7590  -0.7484  -0.7068  -0.6671  -0.6551  -0.5948
    -0.5594  -0.5376  -0.4770  -0.4555  -0.4366  -0.4249  -0.3902  -0.3775
    -0.3324  -0.3023  -0.2418  -0.2310  -0.1854  -0.1576  -0.0325   0.0431
     0.0584   1.0254   2.9960   3.0319   3.0972   3.1807   3.2236   3.2576
     3.2850   3.3218   3.3631   3.3972   3.4153   3.5224   3.6917   3.7672
     4.3341   4.3431   6.8162   6.8563   7.3677   7.3934   7.5842   7.6969
     7.7190   7.7867   7.8753   8.0718   8.0865   8.1704   8.2604   8.5064
     8.6349   8.6632

          k = 0.3333-0.5118-0.0068 ( 94191 PWs)   bands (ev):

   -25.2010 -25.1943 -25.0888 -25.0741 -24.8042 -24.8011 -24.6809 -24.6704
   -24.6049 -24.6017 -24.5693 -24.5674 -20.8750 -20.8637 -20.7489 -20.7463
   -20.6402 -20.6328 -20.5608 -20.5593 -20.4431 -20.4427 -20.4207 -20.4130
   -20.3806 -20.3799 -19.8082 -19.2489 -19.1906 -18.8381 -16.8596 -16.8573
   -16.1600 -16.1574 -15.2079 -15.1932 -15.0707 -15.0617 -12.4806 -11.4311
   -11.4153 -11.1943 -11.1842 -10.9801 -10.9625 -10.8705 -10.8607 -10.8130
   -10.8028 -10.5731 -10.4582 -10.3101  -9.6029  -8.7719  -8.7147  -8.1190
    -8.0631  -8.0542  -8.0019  -7.8435  -7.7905  -7.7425  -7.6690  -7.6017
    -7.5624  -7.4532  -7.3906  -7.3552  -7.3193  -7.2771  -7.1746  -7.1394
    -6.8877  -6.8435  -6.7179  -6.6809  -6.5841  -6.5441  -6.4904  -6.4374
    -6.3310  -6.3246  -6.3053  -6.2768  -6.2596  -6.2228  -6.2035  -6.1513
    -6.1361  -6.1260  -6.0942  -6.0544  -6.0112  -5.9596  -5.8031  -5.5840
    -5.2251  -5.1667  -5.1038  -5.0714  -4.8929  -4.8732  -4.7286  -4.6025
    -4.0468  -3.4979  -3.2956  -3.2519  -3.1005  -2.9725  -2.7627  -2.6078
    -2.4292  -2.3729  -2.1062  -1.8876  -1.8659  -1.8107  -1.7878  -1.7338
    -1.6661  -1.6500  -1.6221  -1.6122  -1.5717  -1.5252  -1.5060  -1.4813
    -1.4037  -1.2915  -1.2812  -1.2738  -1.2327  -1.1858  -1.0948  -1.0164
    -0.9693  -0.8295  -0.7862  -0.7655  -0.6980  -0.6289  -0.6112  -0.5729
    -0.5674  -0.5282  -0.5180  -0.4750  -0.4375  -0.4154  -0.3894  -0.3650
    -0.3216  -0.3161  -0.2515  -0.2302  -0.1973  -0.1502  -0.0280   0.0383
     0.0532   1.0232   2.9927   3.0524   3.0916   3.1836   3.2314   3.2525
     3.2805   3.3040   3.3514   3.3813   3.4224   3.5145   3.7310   3.7779
     4.3270   4.3414   6.8038   6.8496   7.3311   7.5054   7.5556   7.6311
     7.6705   7.8329   8.0555   8.0710   8.0853   8.1325   8.1894   8.4953
     8.5883   8.6647

          k = 0.3333-0.5118-0.4077 ( 94216 PWs)   bands (ev):

   -25.1985 -25.1966 -25.0890 -25.0742 -24.8039 -24.8012 -24.6809 -24.6704
   -24.6054 -24.6009 -24.5695 -24.5675 -20.8767 -20.8620 -20.7507 -20.7442
   -20.6403 -20.6328 -20.5609 -20.5591 -20.4445 -20.4424 -20.4196 -20.4137
   -20.3804 -20.3800 -19.8075 -19.2523 -19.1875 -18.8382 -16.8608 -16.8561
   -16.1629 -16.1545 -15.2025 -15.1985 -15.0692 -15.0634 -12.4808 -11.4246
   -11.4213 -11.1917 -11.1867 -10.9747 -10.9609 -10.8661 -10.8618 -10.8173
   -10.8035 -10.5778 -10.4545 -10.3173  -9.6030  -8.7860  -8.6959  -8.0978
    -8.0815  -8.0620  -8.0251  -7.8443  -7.7881  -7.7171  -7.6595  -7.5942
    -7.5862  -7.4488  -7.4091  -7.3447  -7.3156  -7.2260  -7.1546  -7.1458
    -6.9816  -6.7836  -6.7262  -6.6882  -6.6080  -6.5250  -6.4889  -6.4584
    -6.3468  -6.3080  -6.2999  -6.2746  -6.2524  -6.2212  -6.1852  -6.1485
    -6.1331  -6.1189  -6.0975  -6.0613  -6.0310  -5.9975  -5.7866  -5.5666
    -5.2325  -5.1519  -5.1115  -5.0864  -4.8909  -4.8601  -4.7284  -4.6022
    -4.0434  -3.5001  -3.2877  -3.2615  -3.0882  -2.9856  -2.7634  -2.6046
    -2.4437  -2.3532  -2.1049  -1.9043  -1.8789  -1.8388  -1.7854  -1.7319
    -1.6793  -1.6462  -1.6156  -1.5779  -1.5463  -1.5090  -1.4932  -1.4719
    -1.4052  -1.2999  -1.2728  -1.2717  -1.2447  -1.1446  -1.1337  -1.0249
    -0.9907  -0.8603  -0.7849  -0.7281  -0.7026  -0.6850  -0.6433  -0.5696
    -0.5363  -0.5297  -0.5004  -0.4810  -0.4352  -0.4046  -0.3970  -0.3605
    -0.3151  -0.3042  -0.2467  -0.2284  -0.1929  -0.1656  -0.0246   0.0449
     0.0507   1.0261   2.9950   3.0376   3.0838   3.1897   3.2348   3.2412
     3.2759   3.2980   3.3785   3.3985   3.3997   3.5139   3.7483   3.7634
     4.3264   4.3378   6.8219   6.8342   7.3756   7.5238   7.5757   7.6080
     7.6731   7.8738   7.9723   8.0753   8.0833   8.1033   8.2667   8.4772
     8.6292   8.7087

     highest occupied, lowest unoccupied level (ev):     1.0261    2.9865

!    total energy              =   -1941.64635939 Ry
     Harris-Foulkes estimate   =   -1941.64635939 Ry
     estimated scf accuracy    <          8.5E-09 Ry

     total all-electron energy =     -7261.435143 Ry

     The total energy is the sum of the following terms:

     one-electron contribution =   -1148.42976576 Ry
     hartree contribution      =     703.88198132 Ry
     xc contribution           =    -367.73070422 Ry
     ewald contribution        =    -620.21711458 Ry
     Dispersion Correction     =      -0.29729163 Ry
     one-center paw contrib.   =    -508.85346452 Ry

     convergence has been achieved in  17 iterations

     Forces acting on atoms (cartesian axes, Ry/au):

     atom    1 type  2   force =    -0.00115011    0.00268299   -0.00122957
     atom    2 type  2   force =     0.00115011   -0.00268299    0.00122957
     atom    3 type  4   force =     0.00069467    0.00055724    0.00029920
     atom    4 type  4   force =    -0.00069467   -0.00055724   -0.00029920
     atom    5 type  2   force =    -0.00176705    0.00043575    0.00205272
     atom    6 type  2   force =     0.00176705   -0.00043575   -0.00205272
     atom    7 type  2   force =     0.00046571   -0.00166631   -0.00001766
     atom    8 type  2   force =    -0.00046571    0.00166631    0.00001766
     atom    9 type  1   force =     0.00128816   -0.00056992    0.00093331
     atom   10 type  1   force =    -0.00128816    0.00056992   -0.00093331
     atom   11 type  1   force =    -0.00121873    0.00099927    0.00011743
     atom   12 type  1   force =     0.00121873   -0.00099927   -0.00011743
     atom   13 type  1   force =    -0.00278282    0.00118372   -0.00108919
     atom   14 type  1   force =     0.00278282   -0.00118372    0.00108919
     atom   15 type  1   force =     0.00053105   -0.00025365    0.00025712
     atom   16 type  1   force =    -0.00053105    0.00025365   -0.00025712
     atom   17 type  2   force =    -0.00012204    0.00119744   -0.00060813
     atom   18 type  2   force =     0.00012204   -0.00119744    0.00060813
     atom   19 type  1   force =     0.00223718   -0.00033094   -0.00089235
     atom   20 type  1   force =    -0.00223718    0.00033094    0.00089235
     atom   21 type  4   force =    -0.00012984    0.00039246    0.00046082
     atom   22 type  4   force =     0.00012984   -0.00039246   -0.00046082
     atom   23 type  4   force =    -0.00000143   -0.00008610   -0.00022781
     atom   24 type  4   force =     0.00000143    0.00008610    0.00022781
     atom   25 type  2   force =     0.00024218   -0.00438078    0.00155487
     atom   26 type  2   force =    -0.00024218    0.00438078   -0.00155487
     atom   27 type  2   force =     0.00011015   -0.00040192    0.00101123
     atom   28 type  2   force =    -0.00011015    0.00040192   -0.00101123
     atom   29 type  4   force =     0.00009110    0.00054501   -0.00071775
     atom   30 type  4   force =    -0.00009110   -0.00054501    0.00071775
     atom   31 type  2   force =    -0.00052168   -0.00107312    0.00030768
     atom   32 type  2   force =     0.00052168    0.00107312   -0.00030768
     atom   33 type  4   force =    -0.00140036   -0.00003156    0.00136987
     atom   34 type  4   force =     0.00140036    0.00003156   -0.00136987
     atom   35 type  2   force =     0.00113105    0.00042710   -0.00037539
     atom   36 type  2   force =    -0.00113105   -0.00042710    0.00037539
     atom   37 type  2   force =    -0.00043961   -0.00141966   -0.00067246
     atom   38 type  2   force =     0.00043961    0.00141966    0.00067246
     atom   39 type  4   force =    -0.00012162   -0.00056031   -0.00010629
     atom   40 type  4   force =     0.00012162    0.00056031    0.00010629
     atom   41 type  4   force =     0.00004233   -0.00014958   -0.00046317
     atom   42 type  4   force =    -0.00004233    0.00014958    0.00046317
     atom   43 type  4   force =     0.00142465   -0.00010968   -0.00129064
     atom   44 type  4   force =    -0.00142465    0.00010968    0.00129064
     atom   45 type  4   force =     0.00052073    0.00007446    0.00075381
     atom   46 type  4   force =    -0.00052073   -0.00007446   -0.00075381
     atom   47 type  4   force =    -0.00065951    0.00019302    0.00073849
     atom   48 type  4   force =     0.00065951   -0.00019302   -0.00073849
     atom   49 type  4   force =    -0.00022127    0.00048760    0.00047933
     atom   50 type  4   force =     0.00022127   -0.00048760   -0.00047933
     atom   51 type  4   force =     0.00052964    0.00068853   -0.00054288
     atom   52 type  4   force =    -0.00052964   -0.00068853    0.00054288
     atom   53 type  4   force =     0.00031080    0.00133462   -0.00048845
     atom   54 type  4   force =    -0.00031080   -0.00133462    0.00048845
     atom   55 type  4   force =    -0.00005022   -0.00080738    0.00035642
     atom   56 type  4   force =     0.00005022    0.00080738   -0.00035642
     atom   57 type  1   force =    -0.00013313    0.00003197    0.00013908
     atom   58 type  1   force =     0.00013313   -0.00003197   -0.00013908
     atom   59 type  1   force =     0.00002798   -0.00081381   -0.00018763
     atom   60 type  1   force =    -0.00002798    0.00081381    0.00018763
     atom   61 type  3   force =     0.00013698   -0.00002409    0.00008526
     atom   62 type  3   force =    -0.00013698    0.00002409   -0.00008526
     atom   63 type  3   force =     0.00085399    0.00026501    0.00033657
     atom   64 type  3   force =    -0.00085399   -0.00026501   -0.00033657
     atom   65 type  3   force =    -0.00020027    0.00008299    0.00038352
     atom   66 type  3   force =     0.00020027   -0.00008299   -0.00038352
     atom   67 type  3   force =    -0.00000658   -0.00055386   -0.00013530
     atom   68 type  3   force =     0.00000658    0.00055386    0.00013530
     atom   69 type  3   force =     0.00072914    0.00087087   -0.00043483
     atom   70 type  3   force =    -0.00072914   -0.00087087    0.00043483

     Total force =     0.013660     Total SCF correction =     0.000259


     Computing stress (Cartesian axis) and pressure

          total   stress  (Ry/bohr**3)                   (kbar)     P=   -0.70
  -0.00001081  -0.00000286   0.00000126         -1.59     -0.42      0.19
  -0.00000286  -0.00000070   0.00000333         -0.42     -0.10      0.49
   0.00000126   0.00000333  -0.00000272          0.19      0.49     -0.40


     Writing output data file scf.save
 
     init_run     :     36.47s CPU     38.41s WALL (       1 calls)
     electrons    :   1221.08s CPU   1292.03s WALL (       1 calls)
     forces       :     18.97s CPU     19.13s WALL (       1 calls)
     stress       :    113.48s CPU    113.78s WALL (       1 calls)

     Called by init_run:
     wfcinit      :     25.06s CPU     26.72s WALL (       1 calls)
     potinit      :      3.93s CPU      4.08s WALL (       1 calls)

     Called by electrons:
     c_bands      :   1084.01s CPU   1144.19s WALL (      17 calls)
     sum_band     :    124.22s CPU    133.76s WALL (      17 calls)
     v_of_rho     :      2.17s CPU      2.41s WALL (      18 calls)
     newd         :      4.54s CPU      5.40s WALL (      18 calls)
     PAW_pot      :      5.60s CPU      5.61s WALL (      18 calls)
     mix_rho      :      0.58s CPU      0.62s WALL (      17 calls)

     Called by c_bands:
     init_us_2    :      8.29s CPU      8.32s WALL (     296 calls)
     cegterg      :   1049.53s CPU   1109.64s WALL (     136 calls)

     Called by sum_band:
     sum_band:bec :      0.09s CPU      0.09s WALL (     136 calls)
     addusdens    :      4.90s CPU      5.70s WALL (      17 calls)

     Called by *egterg:
     h_psi        :    606.09s CPU    654.44s WALL (     621 calls)
     s_psi        :    101.46s CPU    101.48s WALL (     621 calls)
     g_psi        :      4.31s CPU      4.31s WALL (     477 calls)
     cdiaghg      :     78.29s CPU     78.35s WALL (     613 calls)

     Called by h_psi:
     h_psi:pot    :    600.93s CPU    649.19s WALL (     621 calls)
     h_psi:calbec :     97.57s CPU     97.85s WALL (     621 calls)
     vloc_psi     :    401.96s CPU    449.91s WALL (     621 calls)
     add_vuspsi   :    101.40s CPU    101.43s WALL (     621 calls)

     General routines
     calbec       :    143.11s CPU    143.52s WALL (     797 calls)
     fft          :      1.62s CPU      2.04s WALL (     258 calls)
     fftw         :    433.42s CPU    487.48s WALL (  169260 calls)
 
     Parallel routines
     fft_scatter  :     94.80s CPU    140.85s WALL (  169518 calls)
 
     PWSCF        : 23m20.41s CPU    25m20.97s WALL

 
   This run was terminated on:   5: 8:29   4Nov2017            

=------------------------------------------------------------------------------=
   JOB DONE.
=------------------------------------------------------------------------------=
