
     Program PWSCF v.6.1 (svn rev. 13369) starts on 18Nov2017 at  5:35:13 

     This program is part of the open-source Quantum ESPRESSO suite
     for quantum simulation of materials; please cite
         "P. Giannozzi et al., J. Phys.:Condens. Matter 21 395502 (2009);
          URL http://www.quantum-espresso.org", 
     in publications or presentations arising from this work. More details at
     http://www.quantum-espresso.org/quote

     Parallel version (MPI), running on     8 processors
     R & G space division:  proc/nbgrp/npool/nimage =       8
     Waiting for input...
     Reading input from standard input

     Current dimensions of program PWSCF are:
     Max number of different atomic species (ntypx) = 10
     Max number of k-points (npk) =  40000
     Max angular momentum in pseudopotentials (lmaxx) =  3
               file C.pbe-n-kjpaw_psl.0.1.UPF: wavefunction(s)  2P renormalized
               file N.pbe-n-kjpaw_psl.0.1.UPF: wavefunction(s)  2P renormalized
               file H.pbe-kjpaw_psl.0.1.UPF: wavefunction(s)  1S renormalized
               file O.pbe-n-kjpaw_psl.0.1.UPF: wavefunction(s)  2P renormalized

     -------------------------------------
     Parameters for Dispersion Correction:
     -------------------------------------
       atom      VdW radius       C_6     

        C          2.744         60.710
        N          2.640         42.670
        H          1.892          4.857
        O          2.536         24.284

     Subspace diagonalization in iterative solution of the eigenvalue problem:
     a serial algorithm will be used

 
     Parallelization info
     --------------------
     sticks:   dense  smooth     PW     G-vecs:    dense   smooth      PW
     Min        1454    1454    383                79353    79353   10737
     Max        1455    1455    384                79354    79354   10739
     Sum       11633   11633   3071               634831   634831   85907
 


     bravais-lattice index     =            0
     lattice parameter (alat)  =      24.3869  a.u.
     unit-cell volume          =    4698.8847 (a.u.)^3
     number of atoms/cell      =           72
     number of atomic types    =            4
     number of electrons       =       208.00
     number of Kohn-Sham states=          124
     kinetic-energy cutoff     =     100.0000  Ry
     charge density cutoff     =     400.0000  Ry
     convergence threshold     =      1.0E-08
     mixing beta               =       0.5000
     number of iterations used =            8  plain     mixing
     Exchange-correlation      =  SLA  PW   PBX  PBC ( 1  4  3  4 0 0)

     celldm(1)=  24.386916  celldm(2)=   0.000000  celldm(3)=   0.000000
     celldm(4)=   0.000000  celldm(5)=   0.000000  celldm(6)=   0.000000

     crystal axes: (cart. coord. in units of alat)
               a(1) = (   1.000000   0.000000   0.000000 )  
               a(2) = (   0.046785   0.615038   0.000000 )  
               a(3) = (   0.123816   0.050009   0.526771 )  

     reciprocal axes: (cart. coord. in units 2 pi/alat)
               b(1) = (  1.000000 -0.076068 -0.227826 )  
               b(2) = (  0.000000  1.625915 -0.154356 )  
               b(3) = (  0.000000  0.000000  1.898358 )  


     PseudoPot. # 1 for  C read from file:
     /scratch/ahofstet/pseudo/C.pbe-n-kjpaw_psl.0.1.UPF
     MD5 check sum: 430fe95172b1e11ef3f8ed03bac87931
     Pseudo is Projector augmented-wave + core cor, Zval =  4.0
     Generated using "atomic" code by A. Dal Corso  v.5.0.99 svn rev. 10869
     Shape of augmentation charge: BESSEL
     Using radial grid of 1073 points,  4 beta functions with: 
                l(1) =   0
                l(2) =   0
                l(3) =   1
                l(4) =   1
     Q(r) pseudized with 0 coefficients 


     PseudoPot. # 2 for  N read from file:
     /scratch/ahofstet/pseudo/N.pbe-n-kjpaw_psl.0.1.UPF
     MD5 check sum: f73187c8b701007e77325f868c9291d7
     Pseudo is Projector augmented-wave + core cor, Zval =  5.0
     Generated using "atomic" code by A. Dal Corso  v.5.0.99 svn rev. 10869
     Shape of augmentation charge: PSQ
     Using radial grid of 1085 points,  4 beta functions with: 
                l(1) =   0
                l(2) =   0
                l(3) =   1
                l(4) =   1
     Q(r) pseudized with 0 coefficients 


     PseudoPot. # 3 for  H read from file:
     /scratch/ahofstet/pseudo/H.pbe-kjpaw_psl.0.1.UPF
     MD5 check sum: 94e484f906d9e9773b2f6e52662335b2
     Pseudo is Projector augmented-wave, Zval =  1.0
     Generated using "atomic" code by A. Dal Corso  v.5.0.99 svn rev. 10869
     Shape of augmentation charge: PSQ
     Using radial grid of  929 points,  2 beta functions with: 
                l(1) =   0
                l(2) =   0
     Q(r) pseudized with 0 coefficients 


     PseudoPot. # 4 for  O read from file:
     /scratch/ahofstet/pseudo/O.pbe-n-kjpaw_psl.0.1.UPF
     MD5 check sum: 3f94a2996a3169367d6eb21d9b593f20
     Pseudo is Projector augmented-wave + core cor, Zval =  6.0
     Generated using "atomic" code by A. Dal Corso  v.5.0.99 svn rev. 10869
     Shape of augmentation charge: BESSEL
     Using radial grid of 1095 points,  4 beta functions with: 
                l(1) =   0
                l(2) =   0
                l(3) =   1
                l(4) =   1
     Q(r) pseudized with 0 coefficients 


     atomic species   valence    mass     pseudopotential
        C              4.00    12.01070      C( 1.00)
        N              5.00    14.00670      N( 1.00)
        H              1.00     1.00794      H( 1.00)
        O              6.00    15.99940      O( 1.00)

      2 Sym. Ops., with inversion, found



   Cartesian axes

     site n.     atom                  positions (alat units)
         1           O   tau(   1) = (   0.4424415   0.4736917   0.2447743  )
         2           O   tau(   2) = (   0.7281596   0.1913555   0.2819968  )
         3           O   tau(   3) = (   0.3460203   0.3295130   0.2547181  )
         4           O   tau(   4) = (   0.8245808   0.3355342   0.2720530  )
         5           N   tau(   5) = (   0.4085166   0.0874984   0.4778380  )
         6           N   tau(   6) = (   0.7620845   0.5775487   0.0489331  )
         7           N   tau(   7) = (   0.1990122   0.0247775   0.2322028  )
         8           N   tau(   8) = (   0.9715889   0.6402697   0.2945684  )
         9           N   tau(   9) = (   0.4329374   0.3662536   0.0965496  )
        10           N   tau(  10) = (   0.7376637   0.2987936   0.4302216  )
        11           N   tau(  11) = (   0.5591065   0.4355157   0.4431963  )
        12           N   tau(  12) = (   0.6114946   0.2295315   0.0835749  )
        13           C   tau(  13) = (   0.3254998   0.4625919   0.4891961  )
        14           C   tau(  14) = (   0.8451013   0.2024553   0.0375751  )
        15           C   tau(  15) = (   0.1019622   0.4711107  -0.0058275  )
        16           C   tau(  16) = (   1.0686388   0.1939365   0.5325986  )
        17           C   tau(  17) = (   0.0814829   0.4549977   0.1110868  )
        18           C   tau(  18) = (   1.0891181   0.2100495   0.4156844  )
        19           C   tau(  19) = (   0.1735647   0.3948899   0.1597920  )
        20           C   tau(  20) = (   0.9970364   0.2701573   0.3669791  )
        21           C   tau(  21) = (   0.1847258   0.2933881   0.1034515  )
        22           C   tau(  22) = (   0.9858753   0.3716591   0.4233196  )
        23           C   tau(  23) = (   0.1972430   0.3025343   0.0007336  )
        24           C   tau(  24) = (   0.9733581   0.3625129   0.5260375  )
        25           C   tau(  25) = (   0.2949847   0.4658610   0.0212451  )
        26           C   tau(  26) = (   0.8756164   0.1991862   0.5055260  )
        27           C   tau(  27) = (   0.2752473   0.4609049   0.1417544  )
        28           C   tau(  28) = (   0.8953537   0.2041422   0.3850167  )
        29           C   tau(  29) = (   0.4374490   0.6199621   0.5093292  )
        30           C   tau(  30) = (   0.7331520   0.0450850   0.0174419  )
        31           C   tau(  31) = (   0.2607971   0.5611932   0.1906160  )
        32           C   tau(  32) = (   0.9098039   0.1038540   0.3361551  )
        33           C   tau(  33) = (   0.3947206   0.4012215   0.0101569  )
        34           C   tau(  34) = (   0.7758805   0.2638257   0.5166143  )
        35           C   tau(  35) = (   0.3779184   0.4047503   0.1844321  )
        36           C   tau(  36) = (   0.7926827   0.2602969   0.3423390  )
        37           C   tau(  37) = (   0.5003334   0.5499983   0.1880682  )
        38           C   tau(  38) = (   0.6702676   0.1150489   0.3387029  )
        39           C   tau(  39) = (   0.4180106   0.2462237   0.2712522  )
        40           C   tau(  40) = (   0.7525905   0.4188235   0.2555189  )
        41           H   tau(  41) = (   0.5157400   0.4512210   0.3786156  )
        42           H   tau(  42) = (   0.6548610   0.2138262   0.1481556  )
        43           H   tau(  43) = (   0.6224531   0.3858811   0.4354219  )
        44           H   tau(  44) = (   0.5481479   0.2791660   0.0913493  )
        45           H   tau(  45) = (   0.3394114   0.4675833   0.4056324  )
        46           H   tau(  46) = (   0.8311897   0.1974639   0.1211387  )
        47           H   tau(  47) = (   0.2347551   0.6036818   0.5016203  )
        48           H   tau(  48) = (   0.9358459   0.0613654   0.0251508  )
        49           H   tau(  49) = (   0.1608807   0.4915687   0.4746865  )
        50           H   tau(  50) = (   1.0097203   0.1734785   0.0520846  )
        51           H   tau(  51) = (   0.0694816   0.5288237   0.1516959  )
        52           H   tau(  52) = (   1.1011195   0.1362235   0.3750752  )
        53           H   tau(  53) = (   1.0112124   0.4083538   0.1228146  )
        54           H   tau(  54) = (   0.1593886   0.2566934   0.4039566  )
        55           H   tau(  55) = (   0.1633641   0.3847212   0.2432457  )
        56           H   tau(  56) = (   1.0072369   0.2803259   0.2835254  )
        57           H   tau(  57) = (   0.1838106   0.2198739   0.1451126  )
        58           H   tau(  58) = (   0.9867904   0.4451733   0.3816585  )
        59           H   tau(  59) = (   0.3320142   0.2872366   0.4753951  )
        60           H   tau(  60) = (   0.8385868   0.3778105   0.0513761  )
        61           H   tau(  61) = (   0.4500624   0.5972191   0.1377838  )
        62           H   tau(  62) = (   0.7205386   0.0678281   0.3889874  )
        63           H   tau(  63) = (   0.5619648   0.5143351   0.1412581  )
        64           H   tau(  64) = (   0.6086363   0.1507121   0.3855131  )
        65           H   tau(  65) = (   0.5344217   0.6008962   0.2469347  )
        66           H   tau(  66) = (   0.6361793   0.0641510   0.2798365  )
        67           H   tau(  67) = (   0.4248575   0.1986618   0.2009745  )
        68           H   tau(  68) = (   0.7457436   0.4663854   0.3257966  )
        69           H   tau(  69) = (   0.3861768   0.1996529   0.3345145  )
        70           H   tau(  70) = (   0.7844242   0.4653943   0.1922567  )
        71           H   tau(  71) = (   0.4947845   0.2761846   0.2936794  )
        72           H   tau(  72) = (   0.6758165   0.3888626   0.2330917  )

     number of k points=    10
                       cart. coord. in units 2pi/alat
        k(    1) = (   0.0000000   0.0000000   0.0000000), wk =   0.1111111
        k(    2) = (   0.0000000   0.0000000   0.6327859), wk =   0.2222222
        k(    3) = (   0.0000000   0.5419716  -0.0514519), wk =   0.2222222
        k(    4) = (   0.0000000   0.5419716   0.5813340), wk =   0.2222222
        k(    5) = (   0.0000000   0.5419716  -0.6842378), wk =   0.2222222
        k(    6) = (  -0.5000000   0.0380340   0.1139131), wk =   0.1111111
        k(    7) = (  -0.5000000   0.0380340   0.7466990), wk =   0.2222222
        k(    8) = (  -0.5000000   0.5800056   0.0624612), wk =   0.2222222
        k(    9) = (  -0.5000000   0.5800056   0.6952471), wk =   0.2222222
        k(   10) = (  -0.5000000   0.5800056  -0.5703247), wk =   0.2222222

     Dense  grid:   634831 G-vectors     FFT dimensions: ( 160,  96,  90)

     Estimated max dynamical RAM per process >     470.97MB

     Estimated total allocated dynamical RAM >    3767.76MB

     Check: negative/imaginary core charge=   -0.000002    0.000000

     Initial potential from superposition of free atoms

     starting charge  207.99847, renormalised to  208.00000
     Starting wfc are  192 randomized atomic wfcs
     Checking if some PAW data can be deallocated... 

     total cpu time spent up to now is       32.1 secs

     per-process dynamical memory:   355.8 Mb

     Self-consistent Calculation

     iteration #  1     ecut=   100.00 Ry     beta=0.50
     Davidson diagonalization with overlap
     ethr =  1.00E-02,  avg # of iterations =  4.0

     total cpu time spent up to now is      108.4 secs

     total energy              =    -945.17620980 Ry
     Harris-Foulkes estimate   =    -948.98259907 Ry
     estimated scf accuracy    <       7.36236734 Ry

     iteration #  2     ecut=   100.00 Ry     beta=0.50
     Davidson diagonalization with overlap
     ethr =  3.54E-03,  avg # of iterations =  2.5

     total cpu time spent up to now is      148.0 secs

     total energy              =    -945.45764289 Ry
     Harris-Foulkes estimate   =    -946.05686418 Ry
     estimated scf accuracy    <       1.17163851 Ry

     iteration #  3     ecut=   100.00 Ry     beta=0.50
     Davidson diagonalization with overlap
     ethr =  5.63E-04,  avg # of iterations =  5.0

     total cpu time spent up to now is      230.3 secs

     total energy              =    -946.22826537 Ry
     Harris-Foulkes estimate   =    -946.81639691 Ry
     estimated scf accuracy    <       1.81001421 Ry

     iteration #  4     ecut=   100.00 Ry     beta=0.50
     Davidson diagonalization with overlap
     ethr =  5.63E-04,  avg # of iterations =  1.0

     total cpu time spent up to now is      266.6 secs

     total energy              =    -946.10826308 Ry
     Harris-Foulkes estimate   =    -946.35972093 Ry
     estimated scf accuracy    <       0.41948331 Ry

     iteration #  5     ecut=   100.00 Ry     beta=0.50
     Davidson diagonalization with overlap
     ethr =  2.02E-04,  avg # of iterations =  6.8

     total cpu time spent up to now is      345.6 secs

     total energy              =    -946.37679811 Ry
     Harris-Foulkes estimate   =    -946.47846154 Ry
     estimated scf accuracy    <       0.35125769 Ry

     iteration #  6     ecut=   100.00 Ry     beta=0.50
     Davidson diagonalization with overlap
     ethr =  1.69E-04,  avg # of iterations =  1.0

     total cpu time spent up to now is      381.9 secs

     total energy              =    -946.30915520 Ry
     Harris-Foulkes estimate   =    -946.38595838 Ry
     estimated scf accuracy    <       0.15814574 Ry

     iteration #  7     ecut=   100.00 Ry     beta=0.50
     Davidson diagonalization with overlap
     ethr =  7.60E-05,  avg # of iterations =  6.9

     total cpu time spent up to now is      448.5 secs

     total energy              =    -946.37196660 Ry
     Harris-Foulkes estimate   =    -946.37897646 Ry
     estimated scf accuracy    <       0.01762329 Ry

     iteration #  8     ecut=   100.00 Ry     beta=0.50
     Davidson diagonalization with overlap
     ethr =  8.47E-06,  avg # of iterations =  2.2

     total cpu time spent up to now is      487.6 secs

     total energy              =    -946.36983141 Ry
     Harris-Foulkes estimate   =    -946.37313689 Ry
     estimated scf accuracy    <       0.00539974 Ry

     iteration #  9     ecut=   100.00 Ry     beta=0.50
     Davidson diagonalization with overlap
     ethr =  2.60E-06,  avg # of iterations =  7.4

     total cpu time spent up to now is      571.2 secs

     total energy              =    -946.37440420 Ry
     Harris-Foulkes estimate   =    -946.37585281 Ry
     estimated scf accuracy    <       0.00512979 Ry

     iteration # 10     ecut=   100.00 Ry     beta=0.50
     Davidson diagonalization with overlap
     c_bands:  1 eigenvalues not converged
     ethr =  2.47E-06,  avg # of iterations =  3.0

     total cpu time spent up to now is      608.8 secs

     total energy              =    -946.37344431 Ry
     Harris-Foulkes estimate   =    -946.37450941 Ry
     estimated scf accuracy    <       0.00248239 Ry

     iteration # 11     ecut=   100.00 Ry     beta=0.50
     Davidson diagonalization with overlap
     ethr =  1.19E-06,  avg # of iterations =  4.7

     total cpu time spent up to now is      666.1 secs

     total energy              =    -946.37431960 Ry
     Harris-Foulkes estimate   =    -946.37433417 Ry
     estimated scf accuracy    <       0.00006585 Ry

     iteration # 12     ecut=   100.00 Ry     beta=0.50
     Davidson diagonalization with overlap
     ethr =  3.17E-08,  avg # of iterations =  3.5

     total cpu time spent up to now is      721.5 secs

     total energy              =    -946.37432667 Ry
     Harris-Foulkes estimate   =    -946.37433963 Ry
     estimated scf accuracy    <       0.00003264 Ry

     iteration # 13     ecut=   100.00 Ry     beta=0.50
     Davidson diagonalization with overlap
     ethr =  1.57E-08,  avg # of iterations =  2.3

     total cpu time spent up to now is      758.9 secs

     total energy              =    -946.37432418 Ry
     Harris-Foulkes estimate   =    -946.37432847 Ry
     estimated scf accuracy    <       0.00000923 Ry

     iteration # 14     ecut=   100.00 Ry     beta=0.50
     Davidson diagonalization with overlap
     ethr =  4.44E-09,  avg # of iterations =  4.0

     total cpu time spent up to now is      827.4 secs

     total energy              =    -946.37433102 Ry
     Harris-Foulkes estimate   =    -946.37433167 Ry
     estimated scf accuracy    <       0.00000290 Ry

     iteration # 15     ecut=   100.00 Ry     beta=0.50
     Davidson diagonalization with overlap
     ethr =  1.39E-09,  avg # of iterations =  1.0

     total cpu time spent up to now is      863.5 secs

     total energy              =    -946.37433022 Ry
     Harris-Foulkes estimate   =    -946.37433107 Ry
     estimated scf accuracy    <       0.00000171 Ry

     iteration # 16     ecut=   100.00 Ry     beta=0.50
     Davidson diagonalization with overlap
     ethr =  8.20E-10,  avg # of iterations =  3.5

     total cpu time spent up to now is      920.2 secs

     total energy              =    -946.37433084 Ry
     Harris-Foulkes estimate   =    -946.37433088 Ry
     estimated scf accuracy    <       0.00000015 Ry

     iteration # 17     ecut=   100.00 Ry     beta=0.50
     Davidson diagonalization with overlap
     ethr =  7.12E-11,  avg # of iterations =  1.7

     total cpu time spent up to now is      957.4 secs

     total energy              =    -946.37433081 Ry
     Harris-Foulkes estimate   =    -946.37433085 Ry
     estimated scf accuracy    <       0.00000008 Ry

     iteration # 18     ecut=   100.00 Ry     beta=0.50
     Davidson diagonalization with overlap
     ethr =  3.87E-11,  avg # of iterations =  4.0

     total cpu time spent up to now is     1020.1 secs

     End of self-consistent calculation

          k = 0.0000 0.0000 0.0000 ( 79325 PWs)   bands (ev):

   -21.2262 -21.2211 -19.3588 -19.3569 -18.4102 -18.3001 -16.8251 -16.7941
   -16.5095 -16.5088 -16.2435 -16.1680 -15.6858 -15.6836 -13.6666 -13.5934
   -13.4278 -13.4268 -12.2909 -12.2516 -12.1124 -12.0724 -10.8259 -10.7663
   -10.7375 -10.7270  -9.7003  -9.5702  -9.3055  -9.1652  -8.7671  -8.5677
    -8.4903  -8.3959  -8.1036  -8.0056  -7.4294  -7.2788  -7.1110  -6.9975
    -6.7565  -6.7297  -6.3058  -6.2972  -6.1686  -6.1051  -5.9482  -5.8567
    -5.4001  -5.2922  -4.9170  -4.8748  -4.7714  -4.7040  -4.5534  -4.4364
    -4.3808  -4.2897  -4.2440  -4.1666  -4.0808  -4.0555  -3.8360  -3.7868
    -3.7079  -3.5749  -3.4545  -3.4344  -3.3785  -3.2907  -3.1407  -3.1361
    -2.7952  -2.6731  -2.6705  -2.5634  -2.4793  -2.4492  -2.2884  -2.2802
    -2.2039  -2.1744  -2.0901  -2.0678  -2.0017  -1.9495  -1.9053  -1.8719
    -1.6914  -1.5259  -1.4126  -1.3444  -1.1070  -1.0833  -1.0203  -0.8125
    -0.5677  -0.5313  -0.4262  -0.2518  -0.1512   0.0250   0.0476   0.2079
     4.5839   4.7733   4.9657   5.1142   5.2799   5.3667   5.4111   5.4435
     5.5490   5.5631   5.8450   6.0933   6.2247   6.3591   6.5693   7.1493
     7.1768   7.4149   7.5736   7.8297

          k = 0.0000 0.0000 0.6328 ( 79302 PWs)   bands (ev):

   -21.2212 -21.2187 -19.3561 -19.3540 -18.4471 -18.3373 -16.8161 -16.7915
   -16.5040 -16.4915 -16.2117 -16.1304 -15.6820 -15.6630 -13.6562 -13.6004
   -13.4610 -13.4264 -12.2998 -12.2633 -12.1517 -12.0770 -10.8271 -10.7874
   -10.7620 -10.6790  -9.7473  -9.6630  -9.2909  -9.1653  -8.7854  -8.5670
    -8.5320  -8.3755  -8.1326  -7.9120  -7.3387  -7.2727  -7.1092  -6.9056
    -6.7985  -6.7539  -6.2297  -6.1264  -6.0548  -6.0494  -5.8738  -5.8470
    -5.4700  -5.4291  -4.9979  -4.8815  -4.8400  -4.7191  -4.5717  -4.5025
    -4.4099  -4.3024  -4.2223  -4.1103  -4.0879  -4.0000  -3.9298  -3.8205
    -3.7721  -3.5516  -3.4819  -3.4323  -3.3703  -3.2639  -3.1762  -3.1161
    -2.7710  -2.6981  -2.6337  -2.5917  -2.5428  -2.4783  -2.3121  -2.2646
    -2.2484  -2.1950  -2.0957  -2.0510  -1.9520  -1.9165  -1.8834  -1.8614
    -1.6213  -1.5518  -1.4408  -1.4014  -1.2136  -1.0664  -0.9897  -0.7331
    -0.5907  -0.5533  -0.3178  -0.2430  -0.1674   0.0020   0.0537   0.2213
     4.5720   4.7548   4.9822   5.0764   5.2735   5.3628   5.4347   5.4799
     5.5402   5.6302   6.0700   6.1558   6.2973   6.5938   6.8518   7.0157
     7.2237   7.4222   7.5327   7.6596

          k = 0.0000 0.5420-0.0515 ( 79335 PWs)   bands (ev):

   -21.2258 -21.2211 -19.3600 -19.3568 -18.4102 -18.3001 -16.8213 -16.7962
   -16.5148 -16.5000 -16.2471 -16.1649 -15.6904 -15.6883 -13.6538 -13.5916
   -13.4329 -13.4281 -12.3216 -12.2207 -12.0911 -12.0716 -10.8571 -10.8025
   -10.7306 -10.7109  -9.6889  -9.5728  -9.2971  -9.1836  -8.7437  -8.5622
    -8.4884  -8.3805  -8.1014  -8.0069  -7.4309  -7.2888  -7.1241  -6.9948
    -6.7559  -6.7389  -6.3322  -6.2855  -6.2014  -6.1465  -5.9367  -5.8057
    -5.4098  -5.3076  -4.8829  -4.8370  -4.7642  -4.7172  -4.6117  -4.4250
    -4.3978  -4.2715  -4.2227  -4.1526  -4.0818  -3.9366  -3.8285  -3.7781
    -3.7484  -3.6583  -3.4192  -3.4009  -3.3739  -3.3394  -3.1453  -3.1268
    -2.7754  -2.7235  -2.6668  -2.5885  -2.5154  -2.4729  -2.2657  -2.2289
    -2.1905  -2.1680  -2.1003  -2.0523  -2.0356  -1.9963  -1.9034  -1.8625
    -1.6298  -1.5424  -1.3637  -1.3066  -1.2340  -1.0974  -0.9831  -0.7738
    -0.5503  -0.5194  -0.4474  -0.3035  -0.1349   0.0248   0.0491   0.1946
     4.5509   4.8314   4.9173   5.0365   5.2808   5.3452   5.3896   5.4208
     5.5454   5.5880   6.0690   6.2387   6.2808   6.4406   6.7410   6.8728
     7.2469   7.4056   7.6263   7.6813

          k = 0.0000 0.5420 0.5813 ( 79396 PWs)   bands (ev):

   -21.2210 -21.2187 -19.3571 -19.3539 -18.4468 -18.3368 -16.8133 -16.7904
   -16.5059 -16.4929 -16.2122 -16.1310 -15.6878 -15.6648 -13.6469 -13.5986
   -13.4582 -13.4239 -12.3252 -12.2316 -12.1365 -12.0677 -10.8571 -10.7908
   -10.7763 -10.6997  -9.7356  -9.6514  -9.2822  -9.1903  -8.7929  -8.5592
    -8.5291  -8.3961  -8.1168  -7.9103  -7.3323  -7.2603  -7.0998  -6.8988
    -6.8073  -6.7599  -6.2558  -6.1459  -6.0819  -6.0377  -5.8753  -5.7793
    -5.4420  -5.4404  -4.9550  -4.8487  -4.8209  -4.7418  -4.6475  -4.4481
    -4.4220  -4.3259  -4.2288  -4.1016  -4.0820  -4.0531  -3.8336  -3.7905
    -3.7459  -3.6196  -3.5205  -3.4545  -3.3945  -3.2890  -3.1309  -3.0817
    -2.7855  -2.7446  -2.6452  -2.5666  -2.5344  -2.4827  -2.3728  -2.2447
    -2.2279  -2.1884  -2.0983  -2.0734  -2.0144  -1.9385  -1.8521  -1.8406
    -1.5897  -1.5446  -1.3974  -1.3728  -1.2150  -1.0883  -1.0114  -0.7324
    -0.5643  -0.5483  -0.3472  -0.2699  -0.1564   0.0139   0.0414   0.1955
     4.5601   4.8046   4.9473   5.0338   5.2443   5.3176   5.4818   5.5045
     5.5901   5.6718   6.2435   6.3106   6.4715   6.6941   6.8350   7.0622
     7.3029   7.4020   7.5233   7.6201

          k = 0.0000 0.5420-0.6842 ( 79381 PWs)   bands (ev):

   -21.2210 -21.2185 -19.3572 -19.3539 -18.4471 -18.3369 -16.8164 -16.7883
   -16.4994 -16.4968 -16.2092 -16.1329 -15.6888 -15.6647 -13.6483 -13.5951
   -13.4625 -13.4256 -12.3283 -12.2312 -12.1299 -12.0772 -10.8546 -10.7930
   -10.7786 -10.6843  -9.7429  -9.6520  -9.2779  -9.1905  -8.7857  -8.5580
    -8.5149  -8.3885  -8.1162  -7.9175  -7.3412  -7.2575  -7.1103  -6.9109
    -6.7964  -6.7885  -6.2614  -6.1333  -6.0688  -6.0299  -5.8997  -5.7690
    -5.4679  -5.4308  -4.9559  -4.8801  -4.8041  -4.7325  -4.6783  -4.4494
    -4.4013  -4.3378  -4.1822  -4.1229  -4.0569  -3.9802  -3.9107  -3.8082
    -3.7469  -3.6107  -3.5052  -3.4427  -3.3649  -3.3116  -3.1358  -3.0917
    -2.7573  -2.7372  -2.6364  -2.6079  -2.5596  -2.5107  -2.3188  -2.2542
    -2.2067  -2.1797  -2.1420  -2.0580  -2.0056  -1.9314  -1.8730  -1.8661
    -1.5777  -1.5273  -1.3822  -1.3562  -1.1567  -1.1014  -1.0747  -0.7276
    -0.5657  -0.5405  -0.3469  -0.2952  -0.1468   0.0060   0.0497   0.2029
     4.5662   4.8164   4.9263   5.0346   5.2582   5.2892   5.4484   5.4984
     5.5907   5.6113   6.2317   6.2839   6.3905   6.7620   6.9063   7.1891
     7.2338   7.3017   7.5115   7.6364

          k =-0.5000 0.0380 0.1139 ( 79326 PWs)   bands (ev):

   -21.2261 -21.2212 -19.3588 -19.3568 -18.4100 -18.3003 -16.8188 -16.8002
   -16.5178 -16.4996 -16.2481 -16.1637 -15.7071 -15.6635 -13.6420 -13.6164
   -13.4399 -13.4162 -12.2952 -12.2473 -12.1041 -12.0819 -10.8104 -10.7667
   -10.7415 -10.7375  -9.7045  -9.5677  -9.2880  -9.1778  -8.7644  -8.5884
    -8.4811  -8.3858  -8.1256  -7.9709  -7.3794  -7.3340  -7.2183  -6.9240
    -6.7389  -6.7225  -6.3081  -6.2383  -6.2364  -6.0879  -5.9619  -5.8424
    -5.3596  -5.3148  -4.9671  -4.8867  -4.7726  -4.7144  -4.5706  -4.4160
    -4.3075  -4.2798  -4.2199  -4.1983  -4.0993  -4.0871  -3.8138  -3.7335
    -3.7207  -3.6017  -3.4639  -3.4618  -3.3636  -3.2656  -3.2148  -3.0831
    -2.7640  -2.7302  -2.6255  -2.6037  -2.4814  -2.4279  -2.2753  -2.2441
    -2.2094  -2.1907  -2.1001  -2.0829  -1.9900  -1.9798  -1.9006  -1.8547
    -1.6708  -1.5435  -1.3921  -1.3718  -1.0989  -1.0895  -1.0619  -0.7881
    -0.5630  -0.5316  -0.4232  -0.2361  -0.1271  -0.0451   0.1384   0.1566
     4.5649   4.7970   4.9667   5.1152   5.2845   5.3043   5.4425   5.4597
     5.5597   5.5622   6.0071   6.0082   6.1421   6.1906   6.8636   7.1097
     7.1432   7.2859   7.7851   7.8002

          k =-0.5000 0.0380 0.7467 ( 79376 PWs)   bands (ev):

   -21.2212 -21.2187 -19.3561 -19.3539 -18.4470 -18.3375 -16.8161 -16.7914
   -16.5024 -16.4933 -16.2103 -16.1309 -15.6947 -15.6510 -13.6358 -13.6251
   -13.4465 -13.4368 -12.2981 -12.2631 -12.1438 -12.0871 -10.8301 -10.7910
   -10.7655 -10.6681  -9.7519  -9.6601  -9.2828  -9.1698  -8.7766  -8.6355
    -8.4613  -8.3821  -8.1268  -7.9267  -7.3339  -7.2853  -7.0964  -6.8989
    -6.7893  -6.7758  -6.2122  -6.1399  -6.0647  -6.0343  -5.9063  -5.8136
    -5.4641  -5.4318  -5.0033  -4.9203  -4.8559  -4.7235  -4.5918  -4.4966
    -4.3300  -4.2811  -4.2016  -4.1568  -4.0718  -3.9913  -3.9558  -3.8288
    -3.7530  -3.5328  -3.4856  -3.4303  -3.3608  -3.3216  -3.1428  -3.1213
    -2.7611  -2.6977  -2.6219  -2.5931  -2.5655  -2.5067  -2.3048  -2.2599
    -2.2476  -2.1922  -2.0934  -2.0537  -1.9518  -1.9267  -1.8877  -1.8638
    -1.6130  -1.5477  -1.4339  -1.3849  -1.2089  -1.1007  -1.0062  -0.7075
    -0.6121  -0.5337  -0.3226  -0.2278  -0.1487  -0.0633   0.1433   0.1734
     4.5491   4.7874   5.0023   5.0626   5.2282   5.3884   5.4591   5.4993
     5.5288   5.5818   6.0874   6.1857   6.3288   6.4966   6.8534   7.0551
     7.2255   7.4902   7.5215   7.5990

          k =-0.5000 0.5800 0.0625 ( 79314 PWs)   bands (ev):

   -21.2258 -21.2211 -19.3600 -19.3568 -18.4101 -18.3002 -16.8218 -16.7955
   -16.5126 -16.5026 -16.2449 -16.1659 -15.7120 -15.6680 -13.6294 -13.6135
   -13.4452 -13.4180 -12.3254 -12.2169 -12.0881 -12.0754 -10.8562 -10.7970
   -10.7335 -10.7140  -9.6933  -9.5689  -9.2803  -9.1977  -8.7434  -8.5866
    -8.4737  -8.3695  -8.1250  -7.9700  -7.3827  -7.3371  -7.2220  -6.9321
    -6.7497  -6.7297  -6.3186  -6.2746  -6.2338  -6.1304  -5.9287  -5.8134
    -5.3716  -5.3205  -4.9216  -4.8698  -4.7627  -4.7168  -4.6263  -4.4431
    -4.3349  -4.2543  -4.1981  -4.1385  -4.0667  -4.0140  -3.8142  -3.7688
    -3.7487  -3.6592  -3.4498  -3.4126  -3.3653  -3.3077  -3.1660  -3.1042
    -2.7659  -2.7364  -2.6201  -2.5960  -2.5492  -2.4935  -2.2834  -2.2161
    -2.1979  -2.1603  -2.1027  -2.0654  -2.0125  -1.9855  -1.9178  -1.8503
    -1.6323  -1.5310  -1.3441  -1.3343  -1.2350  -1.0680  -1.0297  -0.7620
    -0.5472  -0.5323  -0.4422  -0.2839  -0.1165  -0.0341   0.1142   0.1600
     4.5367   4.8475   4.9146   5.0428   5.2745   5.3127   5.3889   5.4509
     5.5439   5.5984   6.1810   6.2292   6.2600   6.3337   6.7542   6.8625
     7.2173   7.4742   7.6228   7.7131

          k =-0.5000 0.5800 0.6952 ( 79356 PWs)   bands (ev):

   -21.2209 -21.2187 -19.3571 -19.3539 -18.4467 -18.3369 -16.8150 -16.7887
   -16.5031 -16.4961 -16.2104 -16.1318 -15.6981 -15.6553 -13.6278 -13.6214
   -13.4474 -13.4311 -12.3265 -12.2332 -12.1191 -12.0821 -10.8558 -10.8160
   -10.7605 -10.6905  -9.7397  -9.6488  -9.2790  -9.1905  -8.7828  -8.6325
    -8.4679  -8.3904  -8.1135  -7.9214  -7.3335  -7.2681  -7.0832  -6.8910
    -6.8067  -6.7760  -6.2386  -6.1702  -6.0651  -6.0401  -5.8886  -5.7691
    -5.4620  -5.4097  -4.9640  -4.8816  -4.8267  -4.7558  -4.6512  -4.4600
    -4.3869  -4.2704  -4.2120  -4.1325  -4.1094  -4.0034  -3.8497  -3.8249
    -3.7158  -3.6257  -3.5272  -3.4447  -3.3791  -3.3089  -3.1363  -3.0781
    -2.8000  -2.7081  -2.6522  -2.5737  -2.5478  -2.4901  -2.3391  -2.2754
    -2.2433  -2.1769  -2.1024  -2.0637  -1.9994  -1.9517  -1.8749  -1.8353
    -1.5907  -1.5297  -1.4062  -1.3425  -1.2247  -1.1069  -1.0110  -0.7175
    -0.5901  -0.5263  -0.3516  -0.2555  -0.1451  -0.0501   0.1175   0.1622
     4.5505   4.8144   4.9512   5.0412   5.2280   5.3146   5.4770   5.5328
     5.6111   5.6330   6.2643   6.3092   6.4553   6.6485   6.8430   7.1402
     7.3136   7.4216   7.4799   7.5926

          k =-0.5000 0.5800-0.5703 ( 79403 PWs)   bands (ev):

   -21.2210 -21.2186 -19.3572 -19.3539 -18.4470 -18.3371 -16.8131 -16.7915
   -16.5056 -16.4901 -16.2131 -16.1291 -15.6966 -15.6574 -13.6274 -13.6200
   -13.4476 -13.4370 -12.3298 -12.2303 -12.1156 -12.0902 -10.8620 -10.8030
   -10.7639 -10.6807  -9.7456  -9.6513  -9.2687  -9.1962  -8.7673  -8.6310
    -8.4752  -8.3704  -8.1132  -7.9311  -7.3376  -7.2653  -7.0916  -6.8957
    -6.8200  -6.7941  -6.2499  -6.1496  -6.0659  -6.0387  -5.8385  -5.8084
    -5.4663  -5.4227  -4.9632  -4.9068  -4.8323  -4.7248  -4.6781  -4.4729
    -4.3475  -4.3086  -4.2248  -4.1153  -4.0275  -3.9691  -3.9050  -3.8240
    -3.7526  -3.6068  -3.4901  -3.4755  -3.3528  -3.3069  -3.1475  -3.1015
    -2.7507  -2.7407  -2.6428  -2.6235  -2.5525  -2.4849  -2.2790  -2.2648
    -2.2174  -2.1884  -2.1402  -2.0583  -2.0043  -1.9537  -1.8808  -1.8569
    -1.5941  -1.5104  -1.3794  -1.3573  -1.1548  -1.1198  -1.0768  -0.7061
    -0.5768  -0.5370  -0.3487  -0.2818  -0.1356  -0.0453   0.1170   0.1684
     4.5590   4.8220   4.9308   5.0391   5.2287   5.2815   5.4579   5.5133
     5.5754   5.6424   6.1911   6.3059   6.4341   6.7842   6.9656   7.0315
     7.1783   7.3952   7.4481   7.6841

     highest occupied, lowest unoccupied level (ev):     0.2213    4.5367

!    total energy              =    -946.37433084 Ry
     Harris-Foulkes estimate   =    -946.37433084 Ry
     estimated scf accuracy    <          6.0E-09 Ry

     total all-electron energy =     -3649.547010 Ry

     The total energy is the sum of the following terms:

     one-electron contribution =    -672.12262709 Ry
     hartree contribution      =     412.00558665 Ry
     xc contribution           =    -211.43402550 Ry
     ewald contribution        =    -183.88386505 Ry
     Dispersion Correction     =      -0.34350256 Ry
     one-center paw contrib.   =    -290.59589730 Ry

     convergence has been achieved in  18 iterations

     Forces acting on atoms (cartesian axes, Ry/au):

     atom    1 type  4   force =     0.00231087    0.00038060    0.00000531
     atom    2 type  4   force =    -0.00231087   -0.00038060   -0.00000531
     atom    3 type  4   force =     0.00360956   -0.00104769   -0.00177927
     atom    4 type  4   force =    -0.00360956    0.00104769    0.00177927
     atom    5 type  2   force =    -0.00055072    0.00041172    0.00052007
     atom    6 type  2   force =     0.00055072   -0.00041172   -0.00052007
     atom    7 type  2   force =     0.00155036    0.00053462   -0.00125822
     atom    8 type  2   force =    -0.00155036   -0.00053462    0.00125822
     atom    9 type  2   force =     0.00402067    0.00175210   -0.00129609
     atom   10 type  2   force =    -0.00402067   -0.00175210    0.00129609
     atom   11 type  2   force =    -0.00482771   -0.00467921   -0.00084093
     atom   12 type  2   force =     0.00482771    0.00467921    0.00084093
     atom   13 type  1   force =    -0.00086466   -0.00046783    0.00068884
     atom   14 type  1   force =     0.00086466    0.00046783   -0.00068884
     atom   15 type  1   force =    -0.00061830   -0.00007096   -0.00114532
     atom   16 type  1   force =     0.00061830    0.00007096    0.00114532
     atom   17 type  1   force =     0.00010336   -0.00115622    0.00019775
     atom   18 type  1   force =    -0.00010336    0.00115622   -0.00019775
     atom   19 type  1   force =     0.00061527    0.00088857   -0.00301343
     atom   20 type  1   force =    -0.00061527   -0.00088857    0.00301343
     atom   21 type  1   force =    -0.00089176    0.00009508    0.00051888
     atom   22 type  1   force =     0.00089176   -0.00009508   -0.00051888
     atom   23 type  1   force =    -0.00073918    0.00075289    0.00080847
     atom   24 type  1   force =     0.00073918   -0.00075289   -0.00080847
     atom   25 type  1   force =     0.00214177   -0.00170292    0.00117393
     atom   26 type  1   force =    -0.00214177    0.00170292   -0.00117393
     atom   27 type  1   force =    -0.00009960   -0.00209804    0.00017418
     atom   28 type  1   force =     0.00009960    0.00209804   -0.00017418
     atom   29 type  1   force =    -0.00002268    0.00039217   -0.00059834
     atom   30 type  1   force =     0.00002268   -0.00039217    0.00059834
     atom   31 type  1   force =    -0.00139431    0.00298452    0.00201503
     atom   32 type  1   force =     0.00139431   -0.00298452   -0.00201503
     atom   33 type  1   force =    -0.00159834    0.00199076    0.00086824
     atom   34 type  1   force =     0.00159834   -0.00199076   -0.00086824
     atom   35 type  1   force =    -0.00178973    0.00057778    0.00180569
     atom   36 type  1   force =     0.00178973   -0.00057778   -0.00180569
     atom   37 type  1   force =     0.00010615   -0.00006513   -0.00161670
     atom   38 type  1   force =    -0.00010615    0.00006513    0.00161670
     atom   39 type  1   force =    -0.00033904    0.00086482    0.00095447
     atom   40 type  1   force =     0.00033904   -0.00086482   -0.00095447
     atom   41 type  3   force =    -0.00046594    0.00025380    0.00089526
     atom   42 type  3   force =     0.00046594   -0.00025380   -0.00089526
     atom   43 type  3   force =     0.00042803    0.00122878   -0.00055646
     atom   44 type  3   force =    -0.00042803   -0.00122878    0.00055646
     atom   45 type  3   force =     0.00027059    0.00060766   -0.00012121
     atom   46 type  3   force =    -0.00027059   -0.00060766    0.00012121
     atom   47 type  3   force =    -0.00019336    0.00022757    0.00068062
     atom   48 type  3   force =     0.00019336   -0.00022757   -0.00068062
     atom   49 type  3   force =    -0.00016656   -0.00067530   -0.00069990
     atom   50 type  3   force =     0.00016656    0.00067530    0.00069990
     atom   51 type  3   force =    -0.00017545   -0.00045284    0.00031518
     atom   52 type  3   force =     0.00017545    0.00045284   -0.00031518
     atom   53 type  3   force =     0.00019300    0.00032661    0.00011413
     atom   54 type  3   force =    -0.00019300   -0.00032661   -0.00011413
     atom   55 type  3   force =    -0.00056107    0.00011410    0.00227719
     atom   56 type  3   force =     0.00056107   -0.00011410   -0.00227719
     atom   57 type  3   force =    -0.00043778    0.00000157   -0.00031457
     atom   58 type  3   force =     0.00043778   -0.00000157    0.00031457
     atom   59 type  3   force =    -0.00008208   -0.00125083   -0.00094241
     atom   60 type  3   force =     0.00008208    0.00125083    0.00094241
     atom   61 type  3   force =    -0.00011978   -0.00012227    0.00049708
     atom   62 type  3   force =     0.00011978    0.00012227   -0.00049708
     atom   63 type  3   force =    -0.00030728   -0.00047079   -0.00017315
     atom   64 type  3   force =     0.00030728    0.00047079    0.00017315
     atom   65 type  3   force =    -0.00022140    0.00056133    0.00055713
     atom   66 type  3   force =     0.00022140   -0.00056133   -0.00055713
     atom   67 type  3   force =     0.00079931   -0.00088189   -0.00094864
     atom   68 type  3   force =    -0.00079931    0.00088189    0.00094864
     atom   69 type  3   force =     0.00085471    0.00073860   -0.00081448
     atom   70 type  3   force =    -0.00085471   -0.00073860    0.00081448
     atom   71 type  3   force =    -0.00011609   -0.00055548    0.00023032
     atom   72 type  3   force =     0.00011609    0.00055548   -0.00023032

     Total force =     0.018931     Total SCF correction =     0.000199


     Computing stress (Cartesian axis) and pressure

          total   stress  (Ry/bohr**3)                   (kbar)     P=   -5.22
  -0.00004183  -0.00000274   0.00000627         -6.15     -0.40      0.92
  -0.00000274  -0.00002842  -0.00000669         -0.40     -4.18     -0.98
   0.00000627  -0.00000669  -0.00003628          0.92     -0.98     -5.34


     Writing output data file scf.save
 
     init_run     :     29.05s CPU     30.92s WALL (       1 calls)
     electrons    :    947.81s CPU    988.17s WALL (       1 calls)
     forces       :     13.95s CPU     14.06s WALL (       1 calls)
     stress       :     46.75s CPU     46.99s WALL (       1 calls)

     Called by init_run:
     wfcinit      :     20.88s CPU     22.16s WALL (       1 calls)
     potinit      :      2.86s CPU      2.89s WALL (       1 calls)

     Called by electrons:
     c_bands      :    845.84s CPU    880.69s WALL (      18 calls)
     sum_band     :     91.17s CPU     95.52s WALL (      18 calls)
     v_of_rho     :      1.70s CPU      1.88s WALL (      19 calls)
     newd         :      3.47s CPU      4.32s WALL (      19 calls)
     PAW_pot      :      5.20s CPU      5.20s WALL (      19 calls)
     mix_rho      :      0.38s CPU      0.44s WALL (      18 calls)

     Called by c_bands:
     init_us_2    :      5.82s CPU      5.84s WALL (     390 calls)
     cegterg      :    824.36s CPU    859.17s WALL (     180 calls)

     Called by sum_band:
     sum_band:bec :      0.07s CPU      0.07s WALL (     180 calls)
     addusdens    :      3.61s CPU      4.31s WALL (      18 calls)

     Called by *egterg:
     h_psi        :    484.68s CPU    511.57s WALL (     835 calls)
     s_psi        :     90.82s CPU     90.85s WALL (     835 calls)
     g_psi        :      2.68s CPU      2.68s WALL (     645 calls)
     cdiaghg      :     43.45s CPU     43.70s WALL (     825 calls)

     Called by h_psi:
     h_psi:pot    :    481.65s CPU    508.47s WALL (     835 calls)
     h_psi:calbec :     89.14s CPU     89.36s WALL (     835 calls)
     vloc_psi     :    301.16s CPU    327.74s WALL (     835 calls)
     add_vuspsi   :     91.34s CPU     91.37s WALL (     835 calls)

     General routines
     calbec       :    127.71s CPU    128.00s WALL (    1065 calls)
     fft          :      1.16s CPU      1.94s WALL (     271 calls)
     fftw         :    322.86s CPU    351.48s WALL (  153724 calls)
 
     Parallel routines
     fft_scatter  :     74.04s CPU     94.88s WALL (  153995 calls)
 
     PWSCF        : 17m24.73s CPU    18m59.24s WALL

 
   This run was terminated on:   5:54:12  18Nov2017            

=------------------------------------------------------------------------------=
   JOB DONE.
=------------------------------------------------------------------------------=
