
     Program PWSCF v.6.1 (svn rev. 13369) starts on  7Dec2017 at  4: 3:37 

     This program is part of the open-source Quantum ESPRESSO suite
     for quantum simulation of materials; please cite
         "P. Giannozzi et al., J. Phys.:Condens. Matter 21 395502 (2009);
          URL http://www.quantum-espresso.org", 
     in publications or presentations arising from this work. More details at
     http://www.quantum-espresso.org/quote

     Parallel version (MPI), running on     8 processors
     R & G space division:  proc/nbgrp/npool/nimage =       8
     Waiting for input...
     Reading input from standard input

     Current dimensions of program PWSCF are:
     Max number of different atomic species (ntypx) = 10
     Max number of k-points (npk) =  40000
     Max angular momentum in pseudopotentials (lmaxx) =  3
               file C.pbe-n-kjpaw_psl.0.1.UPF: wavefunction(s)  2P renormalized
               file N.pbe-n-kjpaw_psl.0.1.UPF: wavefunction(s)  2P renormalized
               file H.pbe-kjpaw_psl.0.1.UPF: wavefunction(s)  1S renormalized
               file O.pbe-n-kjpaw_psl.0.1.UPF: wavefunction(s)  2P renormalized

     -------------------------------------
     Parameters for Dispersion Correction:
     -------------------------------------
       atom      VdW radius       C_6     

        C          2.744         60.710
        N          2.640         42.670
        H          1.892          4.857
        O          2.536         24.284

     Subspace diagonalization in iterative solution of the eigenvalue problem:
     a serial algorithm will be used

 
     Parallelization info
     --------------------
     sticks:   dense  smooth     PW     G-vecs:    dense   smooth      PW
     Min         696     696    187                77559    77559   10825
     Max         697     697    188                77563    77563   10826
     Sum        5569    5569   1497               620481   620481   86607
 


     bravais-lattice index     =            0
     lattice parameter (alat)  =       9.1009  a.u.
     unit-cell volume          =    4594.2746 (a.u.)^3
     number of atoms/cell      =           68
     number of atomic types    =            4
     number of electrons       =       228.00
     number of Kohn-Sham states=          136
     kinetic-energy cutoff     =     100.0000  Ry
     charge density cutoff     =     400.0000  Ry
     convergence threshold     =      1.0E-08
     mixing beta               =       0.5000
     number of iterations used =            8  plain     mixing
     Exchange-correlation      =  SLA  PW   PBX  PBC ( 1  4  3  4 0 0)

     celldm(1)=   9.100921  celldm(2)=   0.000000  celldm(3)=   0.000000
     celldm(4)=   0.000000  celldm(5)=   0.000000  celldm(6)=   0.000000

     crystal axes: (cart. coord. in units of alat)
               a(1) = (   1.000000   0.000000   0.000000 )  
               a(2) = (   0.460797   2.116958   0.000000 )  
               a(3) = (   0.025949   0.457481   2.879047 )  

     reciprocal axes: (cart. coord. in units 2 pi/alat)
               b(1) = (  1.000000 -0.217670  0.025575 )  
               b(2) = (  0.000000  0.472376 -0.075061 )  
               b(3) = (  0.000000  0.000000  0.347337 )  


     PseudoPot. # 1 for  C read from file:
     /scratch/ahofstet/pseudo/C.pbe-n-kjpaw_psl.0.1.UPF
     MD5 check sum: 430fe95172b1e11ef3f8ed03bac87931
     Pseudo is Projector augmented-wave + core cor, Zval =  4.0
     Generated using "atomic" code by A. Dal Corso  v.5.0.99 svn rev. 10869
     Shape of augmentation charge: BESSEL
     Using radial grid of 1073 points,  4 beta functions with: 
                l(1) =   0
                l(2) =   0
                l(3) =   1
                l(4) =   1
     Q(r) pseudized with 0 coefficients 


     PseudoPot. # 2 for  N read from file:
     /scratch/ahofstet/pseudo/N.pbe-n-kjpaw_psl.0.1.UPF
     MD5 check sum: f73187c8b701007e77325f868c9291d7
     Pseudo is Projector augmented-wave + core cor, Zval =  5.0
     Generated using "atomic" code by A. Dal Corso  v.5.0.99 svn rev. 10869
     Shape of augmentation charge: PSQ
     Using radial grid of 1085 points,  4 beta functions with: 
                l(1) =   0
                l(2) =   0
                l(3) =   1
                l(4) =   1
     Q(r) pseudized with 0 coefficients 


     PseudoPot. # 3 for  H read from file:
     /scratch/ahofstet/pseudo/H.pbe-kjpaw_psl.0.1.UPF
     MD5 check sum: 94e484f906d9e9773b2f6e52662335b2
     Pseudo is Projector augmented-wave, Zval =  1.0
     Generated using "atomic" code by A. Dal Corso  v.5.0.99 svn rev. 10869
     Shape of augmentation charge: PSQ
     Using radial grid of  929 points,  2 beta functions with: 
                l(1) =   0
                l(2) =   0
     Q(r) pseudized with 0 coefficients 


     PseudoPot. # 4 for  O read from file:
     /scratch/ahofstet/pseudo/O.pbe-n-kjpaw_psl.0.1.UPF
     MD5 check sum: 3f94a2996a3169367d6eb21d9b593f20
     Pseudo is Projector augmented-wave + core cor, Zval =  6.0
     Generated using "atomic" code by A. Dal Corso  v.5.0.99 svn rev. 10869
     Shape of augmentation charge: BESSEL
     Using radial grid of 1095 points,  4 beta functions with: 
                l(1) =   0
                l(2) =   0
                l(3) =   1
                l(4) =   1
     Q(r) pseudized with 0 coefficients 


     atomic species   valence    mass     pseudopotential
        C              4.00    12.01070      C( 1.00)
        N              5.00    14.00670      N( 1.00)
        H              1.00     1.00794      H( 1.00)
        O              6.00    15.99940      O( 1.00)

      2 Sym. Ops., with inversion, found



   Cartesian axes

     site n.     atom                  positions (alat units)
         1           N   tau(   1) = (   0.4964862   1.0664117   1.6487648  )
         2           N   tau(   2) = (   0.9902603   1.5080266   1.2302819  )
         3           H   tau(   3) = (   0.5400904   1.2753716   1.6141694  )
         4           H   tau(   4) = (   0.9466561   1.2990668   1.2648773  )
         5           N   tau(   5) = (   0.5803242   0.6037797   1.5374760  )
         6           N   tau(   6) = (   0.9064223   1.9706587   1.3415707  )
         7           H   tau(   7) = (   0.6710059   0.4521332   1.4111020  )
         8           H   tau(   8) = (   0.8157406   2.1223051   1.4679446  )
         9           N   tau(   9) = (   0.2261502   0.7168560   1.8493891  )
        10           N   tau(  10) = (   1.2605963   1.8575824   1.0296575  )
        11           H   tau(  11) = (   1.0653029   0.6444828   1.9855166  )
        12           H   tau(  12) = (   0.4214436   1.9299556   0.8935300  )
        13           N   tau(  13) = (   0.8194174   0.5473784   2.2158159  )
        14           N   tau(  14) = (   0.6673291   2.0270599   0.6632308  )
        15           N   tau(  15) = (   0.5216230   2.1354797   2.6094382  )
        16           N   tau(  16) = (   0.9651235   0.4389586   0.2696084  )
        17           O   tau(  17) = (   0.8552204   0.9485436   1.3560106  )
        18           O   tau(  18) = (   0.6315261   1.6258948   1.5230360  )
        19           O   tau(  19) = (   0.2568434   0.2810148   1.6719552  )
        20           O   tau(  20) = (   1.2299031   2.2934236   1.2070914  )
        21           O   tau(  21) = (   1.1352667   1.1753978   1.9418828  )
        22           O   tau(  22) = (   0.3514799   1.3990406   0.9371638  )
        23           C   tau(  23) = (   0.6606483   0.8779800   1.5078341  )
        24           C   tau(  24) = (   0.8260983   1.6964584   1.3712126  )
        25           C   tau(  25) = (   0.3485737   0.5203345   1.6842519  )
        26           C   tau(  26) = (   1.1381729   2.0541039   1.1947947  )
        27           C   tau(  27) = (   0.2742424   0.9990101   1.8220808  )
        28           C   tau(  28) = (   1.2125041   1.5754283   1.0569658  )
        29           C   tau(  29) = (   0.3678943   1.9071944   2.6052692  )
        30           C   tau(  30) = (   1.1188523   0.6672439   0.2737775  )
        31           H   tau(  31) = (   0.1978716   1.8947158   2.7549917  )
        32           H   tau(  32) = (   1.2888749   0.6797226   0.1240549  )
        33           C   tau(  33) = (   0.4047475   1.6922882   2.4085886  )
        34           C   tau(  34) = (   1.0819991   0.8821502   0.4704581  )
        35           H   tau(  35) = (   0.2561054   1.5221179   2.3975316  )
        36           H   tau(  36) = (   1.2306412   1.0523205   0.4815150  )
        37           C   tau(  37) = (   0.6295976   1.7008426   2.2299215  )
        38           C   tau(  38) = (   0.8571489   0.8735958   0.6491251  )
        39           H   tau(  39) = (   0.6663464   1.5342218   2.0811480  )
        40           H   tau(  40) = (   0.8204001   1.0402166   0.7978987  )
        41           C   tau(  41) = (   1.0444886   1.9591002   2.0578321  )
        42           C   tau(  42) = (   0.4422579   0.6153382   0.8212145  )
        43           H   tau(  43) = (   1.0925545   1.7884621   1.9171256  )
        44           H   tau(  44) = (   0.3941920   0.7859763   0.9619210  )
        45           C   tau(  45) = (   1.1995594   2.1989449   2.0522460  )
        46           C   tau(  46) = (   0.2871871   0.3754935   0.8268006  )
        47           H   tau(  47) = (   1.3752278   2.2255081   1.9123125  )
        48           H   tau(  48) = (   0.1115188   0.3489303   0.9667341  )
        49           C   tau(  49) = (   0.7374660   0.7661205   2.3622822  )
        50           C   tau(  50) = (   0.7492806   1.8083179   0.5167644  )
        51           H   tau(  51) = (   0.8741601   0.9468742   2.3504570  )
        52           H   tau(  52) = (   0.6125865   1.6275642   0.5285896  )
        53           C   tau(  53) = (   0.4952982   0.7716916   2.5233956  )
        54           C   tau(  54) = (   0.9914483   1.8027468   0.3556511  )
        55           H   tau(  55) = (   0.4365130   0.9631222   2.6272059  )
        56           H   tau(  56) = (   1.0502336   1.6113162   0.2518407  )
        57           C   tau(  57) = (   0.3399542   0.5322327   2.5481012  )
        58           C   tau(  58) = (   1.1467923   2.0422057   0.3309454  )
        59           H   tau(  59) = (   0.1564115   0.5222834   2.6788755  )
        60           H   tau(  60) = (   1.3303350   2.0521550   0.2001712  )
        61           C   tau(  61) = (   0.7331854   2.1537559   2.4215280  )
        62           C   tau(  62) = (   0.7535612   0.4206824   0.4575186  )
        63           C   tau(  63) = (   0.8100902   1.9300000   2.2372044  )
        64           C   tau(  64) = (   0.6766563   0.6444384   0.6418422  )
        65           C   tau(  65) = (   1.1262551   2.4240248   2.2299771  )
        66           C   tau(  66) = (   0.3604914   0.1504135   0.6490695  )
        67           C   tau(  67) = (   0.8904464   2.4056951   2.4078001  )
        68           C   tau(  68) = (   0.5963001   0.1687433   0.4712465  )

     number of k points=    12
                       cart. coord. in units 2pi/alat
        k(    1) = (   0.0000000   0.0000000   0.0000000), wk =   0.1250000
        k(    2) = (   0.0000000   0.0000000  -0.1736686), wk =   0.1250000
        k(    3) = (   0.0000000  -0.2361880   0.0375303), wk =   0.1250000
        k(    4) = (   0.0000000  -0.2361880  -0.1361383), wk =   0.1250000
        k(    5) = (   0.2500000  -0.0544174   0.0063937), wk =   0.2500000
        k(    6) = (   0.2500000  -0.0544174  -0.1672749), wk =   0.2500000
        k(    7) = (   0.2500000  -0.2906054   0.0439239), wk =   0.2500000
        k(    8) = (   0.2500000  -0.2906054  -0.1297447), wk =   0.2500000
        k(    9) = (  -0.5000000   0.1088348  -0.0127873), wk =   0.1250000
        k(   10) = (  -0.5000000   0.1088348  -0.1864559), wk =   0.1250000
        k(   11) = (  -0.5000000  -0.1273532   0.0247430), wk =   0.1250000
        k(   12) = (  -0.5000000  -0.1273532  -0.1489256), wk =   0.1250000

     Dense  grid:   620481 G-vectors     FFT dimensions: (  60, 125, 180)

     Estimated max dynamical RAM per process >     539.90MB

     Estimated total allocated dynamical RAM >    4319.16MB

     Check: negative/imaginary core charge=   -0.000002    0.000000

     Initial potential from superposition of free atoms

     starting charge  227.99846, renormalised to  228.00000
     Starting wfc are  206 randomized atomic wfcs
     Checking if some PAW data can be deallocated... 

     total cpu time spent up to now is       39.0 secs

     per-process dynamical memory:   413.1 Mb

     Self-consistent Calculation

     iteration #  1     ecut=   100.00 Ry     beta=0.50
     Davidson diagonalization with overlap
     ethr =  1.00E-02,  avg # of iterations =  4.0

     total cpu time spent up to now is      141.5 secs

     total energy              =   -1110.44374808 Ry
     Harris-Foulkes estimate   =   -1114.33237038 Ry
     estimated scf accuracy    <       7.30512051 Ry

     iteration #  2     ecut=   100.00 Ry     beta=0.50
     Davidson diagonalization with overlap
     ethr =  3.20E-03,  avg # of iterations =  3.0

     total cpu time spent up to now is      198.0 secs

     total energy              =   -1110.94274874 Ry
     Harris-Foulkes estimate   =   -1111.53719362 Ry
     estimated scf accuracy    <       1.17495283 Ry

     iteration #  3     ecut=   100.00 Ry     beta=0.50
     Davidson diagonalization with overlap
     ethr =  5.15E-04,  avg # of iterations =  6.2

     total cpu time spent up to now is      309.8 secs

     total energy              =   -1111.64398271 Ry
     Harris-Foulkes estimate   =   -1111.96613445 Ry
     estimated scf accuracy    <       0.81855409 Ry

     iteration #  4     ecut=   100.00 Ry     beta=0.50
     Davidson diagonalization with overlap
     ethr =  3.59E-04,  avg # of iterations =  2.0

     total cpu time spent up to now is      362.4 secs

     total energy              =   -1111.63962874 Ry
     Harris-Foulkes estimate   =   -1111.72576697 Ry
     estimated scf accuracy    <       0.16477574 Ry

     iteration #  5     ecut=   100.00 Ry     beta=0.50
     Davidson diagonalization with overlap
     ethr =  7.23E-05,  avg # of iterations =  7.2

     total cpu time spent up to now is      468.6 secs

     total energy              =   -1111.74045932 Ry
     Harris-Foulkes estimate   =   -1111.76665003 Ry
     estimated scf accuracy    <       0.08164052 Ry

     iteration #  6     ecut=   100.00 Ry     beta=0.50
     Davidson diagonalization with overlap
     ethr =  3.58E-05,  avg # of iterations =  1.1

     total cpu time spent up to now is      517.8 secs

     total energy              =   -1111.73063982 Ry
     Harris-Foulkes estimate   =   -1111.74466350 Ry
     estimated scf accuracy    <       0.03196936 Ry

     iteration #  7     ecut=   100.00 Ry     beta=0.50
     Davidson diagonalization with overlap
     ethr =  1.40E-05,  avg # of iterations =  8.0

     total cpu time spent up to now is      607.1 secs

     total energy              =   -1111.74140302 Ry
     Harris-Foulkes estimate   =   -1111.74192683 Ry
     estimated scf accuracy    <       0.00216348 Ry

     iteration #  8     ecut=   100.00 Ry     beta=0.50
     Davidson diagonalization with overlap
     ethr =  9.49E-07,  avg # of iterations =  3.5

     total cpu time spent up to now is      673.1 secs

     total energy              =   -1111.74161145 Ry
     Harris-Foulkes estimate   =   -1111.74206223 Ry
     estimated scf accuracy    <       0.00120299 Ry

     iteration #  9     ecut=   100.00 Ry     beta=0.50
     Davidson diagonalization with overlap
     ethr =  5.28E-07,  avg # of iterations =  1.9

     total cpu time spent up to now is      723.7 secs

     total energy              =   -1111.74151802 Ry
     Harris-Foulkes estimate   =   -1111.74171635 Ry
     estimated scf accuracy    <       0.00039020 Ry

     iteration # 10     ecut=   100.00 Ry     beta=0.50
     Davidson diagonalization with overlap
     ethr =  1.71E-07,  avg # of iterations =  4.0

     total cpu time spent up to now is      806.5 secs

     total energy              =   -1111.74169594 Ry
     Harris-Foulkes estimate   =   -1111.74172177 Ry
     estimated scf accuracy    <       0.00005066 Ry

     iteration # 11     ecut=   100.00 Ry     beta=0.50
     Davidson diagonalization with overlap
     ethr =  2.22E-08,  avg # of iterations =  3.0

     total cpu time spent up to now is      863.7 secs

     total energy              =   -1111.74170275 Ry
     Harris-Foulkes estimate   =   -1111.74170476 Ry
     estimated scf accuracy    <       0.00000465 Ry

     iteration # 12     ecut=   100.00 Ry     beta=0.50
     Davidson diagonalization with overlap
     ethr =  2.04E-09,  avg # of iterations =  4.0

     total cpu time spent up to now is      974.2 secs

     total energy              =   -1111.74170821 Ry
     Harris-Foulkes estimate   =   -1111.74171108 Ry
     estimated scf accuracy    <       0.00000658 Ry

     iteration # 13     ecut=   100.00 Ry     beta=0.50
     Davidson diagonalization with overlap
     ethr =  2.04E-09,  avg # of iterations =  1.6

     total cpu time spent up to now is     1024.0 secs

     total energy              =   -1111.74170798 Ry
     Harris-Foulkes estimate   =   -1111.74170867 Ry
     estimated scf accuracy    <       0.00000122 Ry

     iteration # 14     ecut=   100.00 Ry     beta=0.50
     Davidson diagonalization with overlap
     ethr =  5.35E-10,  avg # of iterations =  4.0

     total cpu time spent up to now is     1127.4 secs

     total energy              =   -1111.74170916 Ry
     Harris-Foulkes estimate   =   -1111.74170962 Ry
     estimated scf accuracy    <       0.00000157 Ry

     iteration # 15     ecut=   100.00 Ry     beta=0.50
     Davidson diagonalization with overlap
     ethr =  5.35E-10,  avg # of iterations =  1.0

     total cpu time spent up to now is     1176.3 secs

     total energy              =   -1111.74170895 Ry
     Harris-Foulkes estimate   =   -1111.74170920 Ry
     estimated scf accuracy    <       0.00000066 Ry

     iteration # 16     ecut=   100.00 Ry     beta=0.50
     Davidson diagonalization with overlap
     ethr =  2.89E-10,  avg # of iterations =  4.0

     total cpu time spent up to now is     1250.3 secs

     total energy              =   -1111.74170916 Ry
     Harris-Foulkes estimate   =   -1111.74170917 Ry
     estimated scf accuracy    <       0.00000001 Ry

     iteration # 17     ecut=   100.00 Ry     beta=0.50
     Davidson diagonalization with overlap
     ethr =  5.83E-12,  avg # of iterations =  4.0

     total cpu time spent up to now is     1349.9 secs

     End of self-consistent calculation

          k = 0.0000 0.0000 0.0000 ( 77645 PWs)   bands (ev):

   -20.6957 -20.5746 -19.8395 -19.7460 -19.6076 -19.5971 -17.5427 -17.4356
   -16.9822 -16.9738 -16.5766 -16.5702 -16.0791 -16.0675 -15.9812 -15.9605
   -13.9851 -13.9819 -13.3059 -13.2819 -12.8022 -12.8021 -11.5308 -11.5139
   -11.3675 -11.3522 -10.1476 -10.0948 -10.0315  -9.8302  -9.3034  -9.3015
    -9.0386  -9.0079  -8.7488  -8.6998  -8.4961  -8.4303  -8.0903  -8.0438
    -7.7986  -7.7734  -6.8680  -6.8645  -6.3502  -6.1580  -5.9537  -5.7594
    -5.7024  -5.5938  -5.5339  -5.4437  -5.1686  -5.1460  -5.0835  -5.0793
    -4.7414  -4.7304  -4.5964  -4.3968  -4.3803  -4.3341  -4.0603  -4.0117
    -3.9874  -3.8855  -3.7670  -3.7502  -3.5938  -3.5690  -3.4972  -3.3892
    -3.3864  -3.3366  -3.1681  -3.0614  -2.9937  -2.9185  -2.8702  -2.8692
    -2.7104  -2.6404  -2.5048  -2.4605  -1.8147  -1.7711  -1.6302  -1.6124
    -1.5907  -1.5061  -1.0752  -0.8343  -0.8292  -0.5791  -0.4770  -0.4433
    -0.3833  -0.3703  -0.3111  -0.2349  -0.1418  -0.1344   0.0271   0.0995
     0.2716   0.3333   0.3518   0.3990   0.4966   0.5805   0.8971   0.9945
     1.0656   1.0831   4.3213   4.3626   4.7450   4.7786   5.5148   5.5535
     5.5894   5.6794   5.7693   5.8851   6.1141   6.2016   6.4707   7.3622
     7.4264   7.7539   7.8343   7.9326   8.2718   8.2857   8.3969   8.4212

          k = 0.0000 0.0000-0.1737 ( 77650 PWs)   bands (ev):

   -20.6956 -20.5746 -19.8395 -19.7460 -19.6076 -19.5971 -17.5427 -17.4356
   -16.9829 -16.9731 -16.5760 -16.5708 -16.0791 -16.0675 -15.9811 -15.9605
   -13.9854 -13.9815 -13.3060 -13.2817 -12.8022 -12.8021 -11.5311 -11.5139
   -11.3666 -11.3529 -10.1476 -10.0947 -10.0316  -9.8302  -9.3032  -9.3014
    -9.0411  -9.0045  -8.7301  -8.7210  -8.5044  -8.4210  -8.0892  -8.0440
    -7.7920  -7.7802  -6.8658  -6.8656  -6.3473  -6.1619  -5.9529  -5.7919
    -5.6616  -5.6265  -5.5048  -5.4437  -5.1708  -5.1510  -5.1026  -5.0449
    -4.8172  -4.6342  -4.6301  -4.4177  -4.3540  -4.3305  -4.0618  -4.0139
    -3.9860  -3.8975  -3.7558  -3.7451  -3.6278  -3.5409  -3.4938  -3.4219
    -3.3733  -3.3356  -3.1386  -3.0916  -3.0050  -2.9108  -2.8691  -2.8620
    -2.6997  -2.6536  -2.4965  -2.4586  -1.8024  -1.7865  -1.6213  -1.6135
    -1.5994  -1.5076  -1.0443  -0.9018  -0.7961  -0.5735  -0.4739  -0.4445
    -0.3823  -0.3700  -0.2915  -0.2410  -0.1871  -0.1109   0.0419   0.0853
     0.2620   0.3457   0.3734   0.3905   0.4985   0.5668   0.8979   0.9925
     1.0633   1.0872   4.3185   4.3676   4.7142   4.8094   5.5492   5.5731
     5.5868   5.6257   5.7391   5.9192   6.1006   6.2126   6.5045   7.1045
     7.6558   7.7516   7.8739   7.9274   8.2482   8.3104   8.4062   8.4768

          k = 0.0000-0.2362 0.0375 ( 77602 PWs)   bands (ev):

   -20.6447 -20.6345 -19.7955 -19.7780 -19.6259 -19.5800 -17.5014 -17.4830
   -16.9832 -16.9727 -16.5759 -16.5712 -16.1174 -16.0545 -15.9801 -15.9298
   -13.9862 -13.9828 -13.3063 -13.2844 -12.7949 -12.7940 -11.5259 -11.5209
   -11.3763 -11.3594 -10.1776 -10.1033  -9.9619  -9.8971  -9.3171  -9.2980
    -9.0282  -8.9988  -8.7294  -8.6996  -8.4203  -8.4058  -8.1295  -8.1061
    -7.7768  -7.7531  -6.8753  -6.8577  -6.3285  -6.1308  -5.9713  -5.7559
    -5.7025  -5.6822  -5.5222  -5.5086  -5.1835  -5.1806  -5.1318  -4.9339
    -4.7873  -4.7128  -4.4778  -4.4198  -4.3888  -4.3486  -4.0976  -4.0687
    -3.9212  -3.9031  -3.7661  -3.7462  -3.6285  -3.5966  -3.4887  -3.4101
    -3.3709  -3.3226  -3.1147  -3.0538  -2.9634  -2.9154  -2.8655  -2.8416
    -2.7155  -2.6456  -2.4988  -2.4463  -1.8329  -1.7874  -1.6524  -1.6064
    -1.5943  -1.5061  -1.0564  -0.8405  -0.7742  -0.7179  -0.5014  -0.4828
    -0.3794  -0.3675  -0.2539  -0.2529  -0.1417  -0.1357   0.0595   0.0619
     0.3111   0.3463   0.3875   0.3894   0.5265   0.5948   0.8657   0.9993
     1.0736   1.0819   4.3340   4.3397   4.7592   4.7855   5.4625   5.5000
     5.6687   5.7182   5.8057   5.9010   6.0558   6.1584   6.5241   7.1989
     7.4389   7.8358   7.8599   7.9591   8.1557   8.1643   8.2619   8.6112

          k = 0.0000-0.2362-0.1361 ( 77640 PWs)   bands (ev):

   -20.6447 -20.6345 -19.7955 -19.7780 -19.6259 -19.5800 -17.5014 -17.4830
   -16.9816 -16.9744 -16.5778 -16.5692 -16.1174 -16.0546 -15.9801 -15.9298
   -13.9864 -13.9826 -13.3064 -13.2844 -12.7948 -12.7940 -11.5260 -11.5210
   -11.3758 -11.3597 -10.1776 -10.1032  -9.9619  -9.8971  -9.3161  -9.2987
    -9.0301  -8.9969  -8.7264  -8.7036  -8.4267  -8.3992  -8.1296  -8.1062
    -7.7755  -7.7540  -6.8666  -6.8645  -6.3047  -6.1709  -5.9741  -5.7876
    -5.6767  -5.6661  -5.5142  -5.4902  -5.1740  -5.1711  -5.1523  -4.9520
    -4.8089  -4.7072  -4.4626  -4.4138  -4.3801  -4.3668  -4.0983  -4.0598
    -3.9219  -3.9219  -3.7464  -3.7293  -3.6232  -3.5995  -3.4630  -3.4294
    -3.4113  -3.3162  -3.0953  -3.0837  -2.9614  -2.9123  -2.8627  -2.8507
    -2.7043  -2.6529  -2.4899  -2.4412  -1.8117  -1.8096  -1.6444  -1.6350
    -1.5788  -1.5031  -1.0380  -0.8642  -0.7687  -0.7187  -0.4955  -0.4809
    -0.3786  -0.3659  -0.2632  -0.2370  -0.1664  -0.1280   0.0476   0.0721
     0.3323   0.3332   0.3841   0.3878   0.5395   0.5802   0.8588   1.0042
     1.0705   1.0884   4.3329   4.3429   4.7582   4.7821   5.4607   5.5362
     5.6690   5.6752   5.7864   5.9305   6.0494   6.1672   6.5417   7.1383
     7.4570   7.7255   7.9126   8.1146   8.1873   8.2103   8.3152   8.3706

          k = 0.2500-0.0544 0.0064 ( 77607 PWs)   bands (ev):

   -20.6561 -20.5417 -19.8386 -19.7677 -19.6313 -19.6090 -17.5569 -17.4433
   -16.9159 -16.9091 -16.5796 -16.5763 -16.1009 -16.0809 -15.9988 -15.9499
   -14.0312 -14.0290 -13.3103 -13.2837 -12.8016 -12.7927 -11.6383 -11.6313
   -11.4145 -11.3864 -10.1292 -10.0867 -10.0078  -9.8363  -9.3361  -9.3244
    -9.0523  -9.0029  -8.6756  -8.6664  -8.4857  -8.4229  -8.0815  -8.0379
    -7.7872  -7.7556  -6.7775  -6.7523  -6.2945  -6.1359  -5.9638  -5.7937
    -5.7156  -5.6750  -5.5443  -5.4545  -5.3834  -5.2940  -5.0833  -5.0359
    -4.7916  -4.6788  -4.5798  -4.4416  -4.4102  -4.3305  -4.0936  -4.0230
    -3.9588  -3.8890  -3.7853  -3.7107  -3.6795  -3.5833  -3.4963  -3.4609
    -3.4027  -3.3366  -3.2485  -3.2308  -3.0051  -2.9778  -2.8477  -2.7513
    -2.6954  -2.6502  -2.5433  -2.5310  -1.7857  -1.7470  -1.6219  -1.5062
    -1.3361  -1.2633  -0.8384  -0.7280  -0.6753  -0.5285  -0.4404  -0.3975
    -0.3890  -0.3550  -0.3227  -0.2628  -0.2060  -0.1451  -0.0100   0.1042
     0.3203   0.3701   0.4617   0.5629   0.7184   0.8007   0.9260   0.9959
     1.2818   1.3109   4.3803   4.4156   4.5577   4.6412   5.3221   5.4114
     5.5102   5.5965   5.6666   5.7093   6.2507   6.3146   6.7509   7.3623
     7.4149   7.4789   7.7590   8.0129   8.2378   8.3811   8.5182   8.6117

          k = 0.2500-0.0544-0.1673 ( 77613 PWs)   bands (ev):

   -20.6561 -20.5417 -19.8386 -19.7677 -19.6313 -19.6090 -17.5569 -17.4433
   -16.9160 -16.9091 -16.5797 -16.5762 -16.1008 -16.0809 -15.9988 -15.9499
   -14.0314 -14.0289 -13.3103 -13.2837 -12.8015 -12.7927 -11.6382 -11.6312
   -11.4147 -11.3864 -10.1292 -10.0867 -10.0077  -9.8363  -9.3365  -9.3241
    -9.0507  -9.0051  -8.6955  -8.6433  -8.4816  -8.4292  -8.0812  -8.0382
    -7.7807  -7.7627  -6.7779  -6.7537  -6.3037  -6.1149  -5.9713  -5.7813
    -5.7291  -5.6701  -5.5525  -5.4605  -5.3814  -5.2842  -5.0860  -5.0428
    -4.7915  -4.6446  -4.6051  -4.4317  -4.4135  -4.3456  -4.1001  -4.0254
    -3.9438  -3.8848  -3.7851  -3.7148  -3.6819  -3.5705  -3.5033  -3.4551
    -3.3893  -3.3360  -3.3013  -3.2192  -3.0021  -2.9584  -2.8551  -2.7484
    -2.6943  -2.6501  -2.5452  -2.5326  -1.7880  -1.7427  -1.6249  -1.5044
    -1.3227  -1.2741  -0.8467  -0.7224  -0.6723  -0.5292  -0.4397  -0.4065
    -0.3962  -0.3460  -0.3194  -0.2379  -0.2130  -0.1420  -0.0398   0.1125
     0.3163   0.3721   0.4617   0.5673   0.7193   0.7983   0.9291   0.9937
     1.2818   1.3109   4.3752   4.4207   4.5613   4.6368   5.3343   5.4086
     5.5282   5.5577   5.6825   5.7064   6.2528   6.3102   6.7563   7.3563
     7.3992   7.4761   7.7187   8.1276   8.2555   8.3840   8.5139   8.5778

          k = 0.2500-0.2906 0.0439 ( 77543 PWs)   bands (ev):

   -20.6116 -20.5940 -19.8175 -19.7761 -19.6480 -19.5954 -17.5135 -17.4931
   -16.9152 -16.9098 -16.5807 -16.5755 -16.1333 -16.0670 -15.9907 -15.9325
   -14.0319 -14.0296 -13.3124 -13.2863 -12.7941 -12.7850 -11.6413 -11.6328
   -11.4196 -11.3901 -10.1590 -10.0962  -9.9451  -9.8929  -9.3374  -9.3345
    -9.0457  -8.9954  -8.6729  -8.6544  -8.4183  -8.3711  -8.1221  -8.1018
    -7.7733  -7.7516  -6.7649  -6.7572  -6.2541  -6.1253  -5.9712  -5.7850
    -5.7518  -5.7111  -5.5714  -5.5314  -5.4135  -5.1694  -5.1157  -5.0442
    -4.7713  -4.6714  -4.4737  -4.4375  -4.4152  -4.4032  -4.1601  -4.0369
    -3.9462  -3.9157  -3.8175  -3.6919  -3.6506  -3.5710  -3.4972  -3.4704
    -3.3653  -3.3434  -3.2619  -3.2238  -2.9872  -2.9629  -2.8315  -2.7507
    -2.6778  -2.6376  -2.5436  -2.5148  -1.7921  -1.7459  -1.6279  -1.5117
    -1.3353  -1.2724  -0.7687  -0.7329  -0.6923  -0.6559  -0.4745  -0.4209
    -0.3951  -0.3551  -0.3252  -0.2572  -0.1881  -0.1316   0.0188   0.0720
     0.3409   0.3571   0.5252   0.5552   0.7309   0.8037   0.9256   0.9956
     1.2979   1.3198   4.3788   4.4006   4.5930   4.6411   5.3082   5.4044
     5.4756   5.6246   5.6770   5.7332   6.1953   6.2885   6.7675   7.2555
     7.3961   7.7046   7.7607   7.9937   8.1955   8.2215   8.3128   8.6201

          k = 0.2500-0.2906-0.1297 ( 77570 PWs)   bands (ev):

   -20.6116 -20.5940 -19.8175 -19.7761 -19.6480 -19.5954 -17.5135 -17.4931
   -16.9165 -16.9085 -16.5796 -16.5766 -16.1333 -16.0670 -15.9907 -15.9325
   -14.0323 -14.0293 -13.3126 -13.2861 -12.7941 -12.7850 -11.6408 -11.6331
   -11.4197 -11.3901 -10.1589 -10.0963  -9.9451  -9.8929  -9.3373  -9.3347
    -9.0446  -8.9971  -8.6853  -8.6398  -8.4067  -8.3838  -8.1220  -8.1018
    -7.7776  -7.7474  -6.7751  -6.7487  -6.2679  -6.0963  -5.9809  -5.7740
    -5.7592  -5.7129  -5.5705  -5.5412  -5.4214  -5.1645  -5.0933  -5.0554
    -4.7731  -4.6705  -4.4842  -4.4401  -4.4138  -4.3981  -4.1678  -4.0074
    -3.9738  -3.8994  -3.8143  -3.7057  -3.6473  -3.5633  -3.4993  -3.4779
    -3.3657  -3.3451  -3.2777  -3.2139  -2.9953  -2.9398  -2.8390  -2.7398
    -2.6825  -2.6404  -2.5404  -2.5211  -1.7925  -1.7437  -1.6297  -1.5106
    -1.3329  -1.2714  -0.7807  -0.7386  -0.6847  -0.6447  -0.4877  -0.4102
    -0.3841  -0.3541  -0.3030  -0.2829  -0.1954  -0.1306   0.0042   0.0813
     0.3410   0.3546   0.5246   0.5574   0.7324   0.8024   0.9261   0.9962
     1.2945   1.3238   4.3799   4.3987   4.6092   4.6249   5.3060   5.4368
     5.4680   5.5726   5.7147   5.7271   6.1992   6.2818   6.7751   7.2547
     7.4160   7.5452   7.8968   8.0094   8.1686   8.2323   8.3735   8.5981

          k =-0.5000 0.1088-0.0128 ( 77490 PWs)   bands (ev):

   -20.6123 -20.5063 -19.8449 -19.7941 -19.6494 -19.6219 -17.5709 -17.4515
   -16.8308 -16.8280 -16.5993 -16.5970 -16.1079 -16.1067 -16.0092 -15.9489
   -14.0876 -14.0851 -13.2977 -13.2789 -12.7991 -12.7882 -11.7264 -11.7255
   -11.4753 -11.4363 -10.1140 -10.0750  -9.9870  -9.8414  -9.3859  -9.3672
    -9.0385  -8.9828  -8.6549  -8.6049  -8.4587  -8.4295  -8.0705  -8.0336
    -7.7601  -7.7544  -6.6757  -6.6438  -6.2513  -6.0601  -5.9866  -5.8460
    -5.7884  -5.7249  -5.6994  -5.4879  -5.4318  -5.2937  -5.0351  -4.9773
    -4.8466  -4.6551  -4.5902  -4.4484  -4.4291  -4.3623  -4.3006  -4.2492
    -4.0295  -3.8226  -3.7339  -3.7059  -3.6970  -3.5486  -3.5195  -3.4891
    -3.3208  -3.2839  -3.2284  -3.1905  -3.0652  -2.9864  -2.9529  -2.8808
    -2.6662  -2.6452  -2.5420  -2.4964  -1.7898  -1.7768  -1.6180  -1.4955
    -1.1043  -1.0617  -0.7980  -0.6632  -0.6612  -0.4859  -0.3712  -0.3652
    -0.3404  -0.2604  -0.2269  -0.1551  -0.1087  -0.0834   0.0506   0.0568
     0.3643   0.4294   0.4813   0.5836   0.8442   0.9146   1.2540   1.2955
     1.4439   1.4526   4.1274   4.2205   4.5821   4.5949   5.1506   5.2713
     5.3418   5.4532   5.5621   5.7213   6.2070   6.2739   7.1060   7.1292
     7.3398   7.6646   7.9041   8.1682   8.2401   8.3069   8.4663   8.8053

          k =-0.5000 0.1088-0.1865 ( 77482 PWs)   bands (ev):

   -20.6123 -20.5063 -19.8449 -19.7941 -19.6494 -19.6219 -17.5709 -17.4515
   -16.8306 -16.8282 -16.5996 -16.5967 -16.1079 -16.1067 -16.0093 -15.9489
   -14.0872 -14.0855 -13.2980 -13.2787 -12.7996 -12.7876 -11.7265 -11.7254
   -11.4759 -11.4357 -10.1139 -10.0750  -9.9871  -9.8414  -9.3857  -9.3674
    -9.0404  -8.9798  -8.6375  -8.6296  -8.4502  -8.4315  -8.0716  -8.0332
    -7.7796  -7.7344  -6.6757  -6.6419  -6.2287  -6.1102  -5.9726  -5.8522
    -5.7872  -5.7106  -5.6938  -5.4975  -5.4058  -5.3171  -5.0097  -5.0069
    -4.7873  -4.7522  -4.5494  -4.4416  -4.4410  -4.3585  -4.2787  -4.2567
    -4.0042  -3.8362  -3.7452  -3.7159  -3.7120  -3.5674  -3.4986  -3.4879
    -3.3499  -3.2389  -3.2210  -3.2154  -3.0410  -3.0201  -2.9137  -2.8781
    -2.6734  -2.6543  -2.5542  -2.4875  -1.8063  -1.7597  -1.6131  -1.4987
    -1.0893  -1.0725  -0.7901  -0.6853  -0.6443  -0.4814  -0.4166  -0.3698
    -0.3331  -0.2419  -0.1673  -0.1505  -0.1490  -0.0989   0.0488   0.0617
     0.3659   0.4270   0.4744   0.5925   0.8432   0.9156   1.2518   1.2976
     1.4403   1.4555   4.1403   4.2072   4.5712   4.6035   5.1514   5.2679
     5.3454   5.4586   5.5678   5.7175   6.2134   6.2657   7.1147   7.1198
     7.3250   7.7088   7.8243   8.1145   8.3060   8.3314   8.6100   8.7310

          k =-0.5000-0.1274 0.0247 ( 77468 PWs)   bands (ev):

   -20.5737 -20.5512 -19.8444 -19.7833 -19.6651 -19.6094 -17.5256 -17.5035
   -16.8310 -16.8275 -16.5992 -16.5978 -16.1424 -16.0856 -16.0008 -15.9366
   -14.0884 -14.0851 -13.3013 -13.2813 -12.7921 -12.7808 -11.7337 -11.7237
   -11.4765 -11.4381 -10.1406 -10.0921  -9.9252  -9.8909  -9.3866  -9.3788
    -9.0359  -8.9743  -8.6530  -8.5971  -8.3913  -8.3623  -8.1141  -8.0959
    -7.7770  -7.7399  -6.6674  -6.6406  -6.1957  -6.0562  -5.9843  -5.8417
    -5.8171  -5.7576  -5.6639  -5.6180  -5.4729  -5.1974  -5.0552  -4.9994
    -4.7990  -4.6418  -4.4786  -4.4732  -4.4538  -4.4076  -4.2710  -4.2664
    -4.1070  -3.8894  -3.8036  -3.6759  -3.6022  -3.5949  -3.5191  -3.4697
    -3.3139  -3.2565  -3.2063  -3.1899  -3.0774  -2.9721  -2.9372  -2.8397
    -2.6480  -2.6432  -2.5470  -2.4891  -1.7728  -1.7718  -1.6263  -1.5107
    -1.0977  -1.0683  -0.7437  -0.6947  -0.6762  -0.6165  -0.4122  -0.3760
    -0.3224  -0.2520  -0.1954  -0.1356  -0.1147  -0.1120   0.0289   0.0815
     0.3748   0.4176   0.5473   0.5686   0.8137   0.9264   1.2544   1.3029
     1.4787   1.4871   4.1783   4.1793   4.5774   4.6023   5.1529   5.2839
     5.2989   5.4734   5.6140   5.6800   6.1887   6.2467   6.9540   7.1497
     7.3395   7.6852   8.0982   8.1561   8.2503   8.3754   8.4106   8.4368

          k =-0.5000-0.1274-0.1489 ( 77504 PWs)   bands (ev):

   -20.5737 -20.5512 -19.8444 -19.7833 -19.6651 -19.6094 -17.5256 -17.5035
   -16.8301 -16.8283 -16.5996 -16.5973 -16.1424 -16.0855 -16.0008 -15.9367
   -14.0879 -14.0855 -13.3014 -13.2813 -12.7927 -12.7802 -11.7338 -11.7236
   -11.4769 -11.4377 -10.1407 -10.0921  -9.9250  -9.8909  -9.3873  -9.3780
    -9.0367  -8.9728  -8.6302  -8.6228  -8.4087  -8.3430  -8.1140  -8.0959
    -7.7699  -7.7470  -6.6571  -6.6496  -6.1928  -6.0876  -5.9442  -5.8443
    -5.8139  -5.7637  -5.6551  -5.6199  -5.4885  -5.2308  -5.0569  -4.9793
    -4.7574  -4.6459  -4.4883  -4.4755  -4.4515  -4.4017  -4.3009  -4.2315
    -4.1157  -3.9075  -3.8096  -3.6843  -3.6002  -3.5883  -3.5014  -3.5003
    -3.3169  -3.2462  -3.1929  -3.1824  -3.0522  -3.0140  -2.8992  -2.8702
    -2.6544  -2.6277  -2.5587  -2.4820  -1.8055  -1.7374  -1.6256  -1.5133
    -1.0890  -1.0676  -0.7315  -0.6947  -0.6844  -0.6366  -0.4333  -0.3384
    -0.3226  -0.2446  -0.2190  -0.1326  -0.1200  -0.0965   0.0130   0.0876
     0.3836   0.4110   0.5341   0.5840   0.8151   0.9234   1.2508   1.3067
     1.4800   1.4856   4.1687   4.1884   4.5853   4.5938   5.1504   5.2990
     5.3064   5.4406   5.6517   5.6617   6.1877   6.2430   6.9570   7.1402
     7.3428   7.6840   8.0312   8.1449   8.1977   8.3713   8.4566   8.4586

     highest occupied, lowest unoccupied level (ev):     1.4871    4.1274

!    total energy              =   -1111.74170917 Ry
     Harris-Foulkes estimate   =   -1111.74170917 Ry
     estimated scf accuracy    <          9.3E-09 Ry

     total all-electron energy =     -4310.734022 Ry

     The total energy is the sum of the following terms:

     one-electron contribution =    -778.85293710 Ry
     hartree contribution      =     479.53255119 Ry
     xc contribution           =    -238.64233295 Ry
     ewald contribution        =    -233.96699399 Ry
     Dispersion Correction     =      -0.34865956 Ry
     one-center paw contrib.   =    -339.46333676 Ry

     convergence has been achieved in  17 iterations

     Forces acting on atoms (cartesian axes, Ry/au):

     atom    1 type  2   force =     0.00311321   -0.00037305    0.00007458
     atom    2 type  2   force =    -0.00311321    0.00037305   -0.00007458
     atom    3 type  3   force =     0.00003243   -0.00241700    0.00152972
     atom    4 type  3   force =    -0.00003243    0.00241700   -0.00152972
     atom    5 type  2   force =     0.00230934    0.00458073   -0.00478183
     atom    6 type  2   force =    -0.00230934   -0.00458073    0.00478183
     atom    7 type  3   force =    -0.00145954    0.00141617    0.00066618
     atom    8 type  3   force =     0.00145954   -0.00141617   -0.00066618
     atom    9 type  2   force =     0.00226900    0.00777090   -0.00671298
     atom   10 type  2   force =    -0.00226900   -0.00777090    0.00671298
     atom   11 type  3   force =    -0.00225477   -0.00100163    0.00111250
     atom   12 type  3   force =     0.00225477    0.00100163   -0.00111250
     atom   13 type  2   force =    -0.01515120   -0.01169576   -0.00396318
     atom   14 type  2   force =     0.01515120    0.01169576    0.00396318
     atom   15 type  2   force =     0.00880820   -0.00561178   -0.00425187
     atom   16 type  2   force =    -0.00880820    0.00561178    0.00425187
     atom   17 type  4   force =    -0.00033431   -0.00406519    0.00446106
     atom   18 type  4   force =     0.00033431    0.00406519   -0.00446106
     atom   19 type  4   force =     0.00339618    0.00117065   -0.00199878
     atom   20 type  4   force =    -0.00339618   -0.00117065    0.00199878
     atom   21 type  4   force =     0.00303018    0.00251871    0.00064825
     atom   22 type  4   force =    -0.00303018   -0.00251871   -0.00064825
     atom   23 type  1   force =    -0.01615462    0.00062113   -0.00589419
     atom   24 type  1   force =     0.01615462   -0.00062113    0.00589419
     atom   25 type  1   force =    -0.00212434   -0.00411422    0.00186767
     atom   26 type  1   force =     0.00212434    0.00411422   -0.00186767
     atom   27 type  1   force =     0.00619517   -0.00294263    0.00400104
     atom   28 type  1   force =    -0.00619517    0.00294263   -0.00400104
     atom   29 type  1   force =     0.00826073   -0.00672471   -0.01045208
     atom   30 type  1   force =    -0.00826073    0.00672471    0.01045208
     atom   31 type  3   force =    -0.00007996    0.00036090   -0.00045219
     atom   32 type  3   force =     0.00007996   -0.00036090    0.00045219
     atom   33 type  1   force =     0.00775860   -0.00809872    0.01281994
     atom   34 type  1   force =    -0.00775860    0.00809872   -0.01281994
     atom   35 type  3   force =     0.00164589   -0.00225661    0.00155387
     atom   36 type  3   force =    -0.00164589    0.00225661   -0.00155387
     atom   37 type  1   force =     0.00321828   -0.01147473    0.00744823
     atom   38 type  1   force =    -0.00321828    0.01147473   -0.00744823
     atom   39 type  3   force =     0.00049364   -0.00030661   -0.00048395
     atom   40 type  3   force =    -0.00049364    0.00030661    0.00048395
     atom   41 type  1   force =     0.00003956    0.01958124   -0.01086611
     atom   42 type  1   force =    -0.00003956   -0.01958124    0.01086611
     atom   43 type  3   force =     0.00126405   -0.00187501    0.00173171
     atom   44 type  3   force =    -0.00126405    0.00187501   -0.00173171
     atom   45 type  1   force =    -0.01530367   -0.00956716    0.00155869
     atom   46 type  1   force =     0.01530367    0.00956716   -0.00155869
     atom   47 type  3   force =    -0.00073508   -0.00102594    0.00194527
     atom   48 type  3   force =     0.00073508    0.00102594   -0.00194527
     atom   49 type  1   force =     0.00423527    0.00185202   -0.00179431
     atom   50 type  1   force =    -0.00423527   -0.00185202    0.00179431
     atom   51 type  3   force =    -0.00307184    0.00353298   -0.00388074
     atom   52 type  3   force =     0.00307184   -0.00353298    0.00388074
     atom   53 type  1   force =     0.00041386   -0.00027551    0.00320503
     atom   54 type  1   force =    -0.00041386    0.00027551   -0.00320503
     atom   55 type  3   force =    -0.00163225    0.00114557    0.00193264
     atom   56 type  3   force =     0.00163225   -0.00114557   -0.00193264
     atom   57 type  1   force =     0.01925732   -0.01598126    0.00259789
     atom   58 type  1   force =    -0.01925732    0.01598126   -0.00259789
     atom   59 type  3   force =    -0.00132534    0.00110786    0.00002538
     atom   60 type  3   force =     0.00132534   -0.00110786   -0.00002538
     atom   61 type  1   force =     0.00725500   -0.02497718   -0.00268359
     atom   62 type  1   force =    -0.00725500    0.02497718    0.00268359
     atom   63 type  1   force =    -0.01966214    0.02417924    0.01033717
     atom   64 type  1   force =     0.01966214   -0.02417924   -0.01033717
     atom   65 type  1   force =     0.00104098    0.01859192   -0.00705563
     atom   66 type  1   force =    -0.00104098   -0.01859192    0.00705563
     atom   67 type  1   force =    -0.00767247    0.02732777    0.00466669
     atom   68 type  1   force =     0.00767247   -0.02732777   -0.00466669

     Total force =     0.113301     Total SCF correction =     0.000201


     Computing stress (Cartesian axis) and pressure

          total   stress  (Ry/bohr**3)                   (kbar)     P=   -4.66
  -0.00002580  -0.00002938   0.00006986         -3.79     -4.32     10.28
  -0.00002938  -0.00004077  -0.00002947         -4.32     -6.00     -4.34
   0.00006986  -0.00002947  -0.00002842         10.28     -4.34     -4.18


     Writing output data file scf.save
 
     init_run     :     36.95s CPU     38.33s WALL (       1 calls)
     electrons    :   1259.51s CPU   1311.00s WALL (       1 calls)
     forces       :     16.88s CPU     16.98s WALL (       1 calls)
     stress       :     62.32s CPU     62.51s WALL (       1 calls)

     Called by init_run:
     wfcinit      :     28.93s CPU     30.21s WALL (       1 calls)
     potinit      :      2.92s CPU      2.93s WALL (       1 calls)

     Called by electrons:
     c_bands      :   1134.25s CPU   1179.00s WALL (      17 calls)
     sum_band     :    115.07s CPU    120.97s WALL (      17 calls)
     v_of_rho     :      1.58s CPU      1.74s WALL (      18 calls)
     newd         :      3.39s CPU      4.06s WALL (      18 calls)
     PAW_pot      :      4.79s CPU      4.79s WALL (      18 calls)
     mix_rho      :      0.37s CPU      0.39s WALL (      17 calls)

     Called by c_bands:
     init_us_2    :      7.23s CPU      7.25s WALL (     444 calls)
     cegterg      :   1106.05s CPU   1150.72s WALL (     204 calls)

     Called by sum_band:
     sum_band:bec :      0.08s CPU      0.08s WALL (     204 calls)
     addusdens    :      3.42s CPU      4.10s WALL (      17 calls)

     Called by *egterg:
     h_psi        :    623.15s CPU    657.54s WALL (     966 calls)
     s_psi        :    121.97s CPU    122.01s WALL (     966 calls)
     g_psi        :      3.46s CPU      3.46s WALL (     750 calls)
     cdiaghg      :     65.38s CPU     65.38s WALL (     954 calls)

     Called by h_psi:
     h_psi:pot    :    618.22s CPU    652.51s WALL (     966 calls)
     h_psi:calbec :    122.78s CPU    123.10s WALL (     966 calls)
     vloc_psi     :    372.81s CPU    406.74s WALL (     966 calls)
     add_vuspsi   :    122.62s CPU    122.67s WALL (     966 calls)

     General routines
     calbec       :    174.90s CPU    175.35s WALL (    1230 calls)
     fft          :      1.05s CPU      1.31s WALL (     258 calls)
     fftw         :    400.06s CPU    436.48s WALL (  194734 calls)
 
     Parallel routines
     fft_scatter  :     90.43s CPU    114.79s WALL (  194992 calls)
 
     PWSCF        : 23m 5.01s CPU    24m45.72s WALL

 
   This run was terminated on:   4:28:22   7Dec2017            

=------------------------------------------------------------------------------=
   JOB DONE.
=------------------------------------------------------------------------------=
