
     Program PWSCF v.6.1 (svn rev. 13369) starts on 19Dec2017 at 10:41:28 

     This program is part of the open-source Quantum ESPRESSO suite
     for quantum simulation of materials; please cite
         "P. Giannozzi et al., J. Phys.:Condens. Matter 21 395502 (2009);
          URL http://www.quantum-espresso.org", 
     in publications or presentations arising from this work. More details at
     http://www.quantum-espresso.org/quote

     Parallel version (MPI), running on     8 processors
     R & G space division:  proc/nbgrp/npool/nimage =       8
     Waiting for input...
     Reading input from standard input

     Current dimensions of program PWSCF are:
     Max number of different atomic species (ntypx) = 10
     Max number of k-points (npk) =  40000
     Max angular momentum in pseudopotentials (lmaxx) =  3
               file C.pbe-n-kjpaw_psl.0.1.UPF: wavefunction(s)  2P renormalized
               file N.pbe-n-kjpaw_psl.0.1.UPF: wavefunction(s)  2P renormalized
               file H.pbe-kjpaw_psl.0.1.UPF: wavefunction(s)  1S renormalized
               file O.pbe-n-kjpaw_psl.0.1.UPF: wavefunction(s)  2P renormalized

     -------------------------------------
     Parameters for Dispersion Correction:
     -------------------------------------
       atom      VdW radius       C_6     

        C          2.744         60.710
        N          2.640         42.670
        H          1.892          4.857
        O          2.536         24.284

     Subspace diagonalization in iterative solution of the eigenvalue problem:
     a serial algorithm will be used

 
     Parallelization info
     --------------------
     sticks:   dense  smooth     PW     G-vecs:    dense   smooth      PW
     Min        2007    2007    519               194804   194804   25657
     Max        2008    2008    520               194807   194807   25660
     Sum       16057   16057   4153              1558435  1558435  205263
 


     bravais-lattice index     =            0
     lattice parameter (alat)  =      14.9543  a.u.
     unit-cell volume          =   11534.9738 (a.u.)^3
     number of atoms/cell      =          156
     number of atomic types    =            4
     number of electrons       =       504.00
     number of Kohn-Sham states=          302
     kinetic-energy cutoff     =     100.0000  Ry
     charge density cutoff     =     400.0000  Ry
     convergence threshold     =      1.0E-08
     mixing beta               =       0.5000
     number of iterations used =            8  plain     mixing
     Exchange-correlation      =  SLA  PW   PBX  PBC ( 1  4  3  4 0 0)

     celldm(1)=  14.954348  celldm(2)=   0.000000  celldm(3)=   0.000000
     celldm(4)=   0.000000  celldm(5)=   0.000000  celldm(6)=   0.000000

     crystal axes: (cart. coord. in units of alat)
               a(1) = (   1.000000   0.000000   0.000000 )  
               a(2) = (   0.000000   2.254540   0.000000 )  
               a(3) = (  -0.341772   0.000000   1.529876 )  

     reciprocal axes: (cart. coord. in units 2 pi/alat)
               b(1) = (  1.000000  0.000000  0.223398 )  
               b(2) = (  0.000000  0.443550  0.000000 )  
               b(3) = (  0.000000  0.000000  0.653648 )  


     PseudoPot. # 1 for  C read from file:
     /scratch/ahofstet/pseudo/C.pbe-n-kjpaw_psl.0.1.UPF
     MD5 check sum: 430fe95172b1e11ef3f8ed03bac87931
     Pseudo is Projector augmented-wave + core cor, Zval =  4.0
     Generated using "atomic" code by A. Dal Corso  v.5.0.99 svn rev. 10869
     Shape of augmentation charge: BESSEL
     Using radial grid of 1073 points,  4 beta functions with: 
                l(1) =   0
                l(2) =   0
                l(3) =   1
                l(4) =   1
     Q(r) pseudized with 0 coefficients 


     PseudoPot. # 2 for  N read from file:
     /scratch/ahofstet/pseudo/N.pbe-n-kjpaw_psl.0.1.UPF
     MD5 check sum: f73187c8b701007e77325f868c9291d7
     Pseudo is Projector augmented-wave + core cor, Zval =  5.0
     Generated using "atomic" code by A. Dal Corso  v.5.0.99 svn rev. 10869
     Shape of augmentation charge: PSQ
     Using radial grid of 1085 points,  4 beta functions with: 
                l(1) =   0
                l(2) =   0
                l(3) =   1
                l(4) =   1
     Q(r) pseudized with 0 coefficients 


     PseudoPot. # 3 for  H read from file:
     /scratch/ahofstet/pseudo/H.pbe-kjpaw_psl.0.1.UPF
     MD5 check sum: 94e484f906d9e9773b2f6e52662335b2
     Pseudo is Projector augmented-wave, Zval =  1.0
     Generated using "atomic" code by A. Dal Corso  v.5.0.99 svn rev. 10869
     Shape of augmentation charge: PSQ
     Using radial grid of  929 points,  2 beta functions with: 
                l(1) =   0
                l(2) =   0
     Q(r) pseudized with 0 coefficients 


     PseudoPot. # 4 for  O read from file:
     /scratch/ahofstet/pseudo/O.pbe-n-kjpaw_psl.0.1.UPF
     MD5 check sum: 3f94a2996a3169367d6eb21d9b593f20
     Pseudo is Projector augmented-wave + core cor, Zval =  6.0
     Generated using "atomic" code by A. Dal Corso  v.5.0.99 svn rev. 10869
     Shape of augmentation charge: BESSEL
     Using radial grid of 1095 points,  4 beta functions with: 
                l(1) =   0
                l(2) =   0
                l(3) =   1
                l(4) =   1
     Q(r) pseudized with 0 coefficients 


     atomic species   valence    mass     pseudopotential
        C              4.00    12.01070      C( 1.00)
        N              5.00    14.00670      N( 1.00)
        H              1.00     1.00794      H( 1.00)
        O              6.00    15.99940      O( 1.00)

      2 Sym. Ops., with inversion, found



   Cartesian axes

     site n.     atom                  positions (alat units)
         1           O   tau(   1) = (   0.6441959   1.8484137   0.1922737  )
         2           O   tau(   2) = (   0.6848558   0.7210950   0.5726082  )
         3           O   tau(   3) = (   0.0140325   0.4061260   1.3376026  )
         4           O   tau(   4) = (  -0.0266274   1.5334447   0.9572680  )
         5           O   tau(   5) = (   0.9295436   2.1241172   0.2291883  )
         6           O   tau(   6) = (   0.3993432   0.9967589   0.5357343  )
         7           O   tau(   7) = (  -0.2713152   0.1304225   1.3006879  )
         8           O   tau(   8) = (   0.2588851   1.2577808   0.9941420  )
         9           O   tau(   9) = (  -0.0649458   1.7929929   0.4583248  )
        10           O   tau(  10) = (   0.3938591   0.6656892   0.3066027  )
        11           O   tau(  11) = (   0.7231742   0.4615468   1.0715515  )
        12           O   tau(  12) = (   0.2643693   1.5888505   1.2232735  )
        13           C   tau(  13) = (   0.6187465   2.0131025   0.2659072  )
        14           C   tau(  14) = (   0.7102036   0.8858053   0.4989985  )
        15           C   tau(  15) = (   0.0394819   0.2414372   1.2639690  )
        16           C   tau(  16) = (  -0.0519752   1.3687344   1.0308777  )
        17           C   tau(  17) = (   0.5011195   2.1553602   0.2230016  )
        18           C   tau(  18) = (   0.8277768   1.0281294   0.5419035  )
        19           C   tau(  19) = (   0.1571089   0.0991795   1.3068746  )
        20           C   tau(  20) = (  -0.1695484   1.2264103   0.9879728  )
        21           C   tau(  21) = (   0.3357632   2.1985630   0.1849271  )
        22           C   tau(  22) = (  -0.0068975   1.0714771   0.5799612  )
        23           C   tau(  23) = (   0.3224652   0.0559767   1.3449491  )
        24           C   tau(  24) = (   0.6651259   1.1830626   0.9499151  )
        25           C   tau(  25) = (   0.3021020   0.1179826   0.1754662  )
        26           C   tau(  26) = (   0.0266225   1.2454491   0.5893717  )
        27           C   tau(  27) = (   0.3561263   2.1365571   1.3544100  )
        28           C   tau(  28) = (   0.6316059   1.0090906   0.9405045  )
        29           C   tau(  29) = (   0.4276552   0.2402145   0.2041630  )
        30           C   tau(  30) = (  -0.0990122   1.3676007   0.5606470  )
        31           C   tau(  31) = (   0.2305732   2.0143252   1.3257132  )
        32           C   tau(  32) = (   0.7572406   0.8869390   0.9692292  )
        33           C   tau(  33) = (   0.5951010   0.1953756   0.2416373  )
        34           C   tau(  34) = (   0.7335691   1.3226172   0.5232214  )
        35           C   tau(  35) = (   0.0631274   2.0591641   1.2882389  )
        36           C   tau(  36) = (  -0.0753407   0.9319225   1.0066548  )
        37           C   tau(  37) = (   0.6282546   0.0233756   0.2479503  )
        38           C   tau(  38) = (   0.7005642   1.1506245   0.5169619  )
        39           C   tau(  39) = (   0.0299738   2.2311641   1.2819260  )
        40           C   tau(  40) = (  -0.0423358   1.1039152   1.0129143  )
        41           C   tau(  41) = (   0.7588507   2.1473180   0.2875371  )
        42           C   tau(  42) = (   0.5700363   1.0199665   0.4774002  )
        43           C   tau(  43) = (  -0.1006224   0.1072217   1.2423391  )
        44           C   tau(  44) = (   0.0881921   1.2345732   1.0524760  )
        45           C   tau(  45) = (   0.8972081   2.1211461   0.4081361  )
        46           C   tau(  46) = (   0.4317050   0.9938240   0.3567820  )
        47           C   tau(  47) = (  -0.2389797   0.1333937   1.1217401  )
        48           C   tau(  48) = (   0.2265233   1.2607157   1.1730942  )
        49           C   tau(  49) = (  -0.0157045   2.2109082   0.5499810  )
        50           C   tau(  50) = (   0.3446728   1.0835859   0.2149325  )
        51           C   tau(  51) = (   0.6739329   0.0436315   0.9798952  )
        52           C   tau(  52) = (   0.3135556   1.1709538   1.3149438  )
        53           C   tau(  53) = (   0.0526856   0.1084385   0.6034136  )
        54           C   tau(  54) = (   0.2763066   1.2357082   0.1614977  )
        55           C   tau(  55) = (   0.6055428   2.1461012   0.9264626  )
        56           C   tau(  56) = (   0.3819218   1.0188315   1.3683786  )
        57           C   tau(  57) = (   0.1293974   0.1060642   0.7632165  )
        58           C   tau(  58) = (   0.1995968   1.2332978   0.0016694  )
        59           C   tau(  59) = (   0.5288310   2.1484755   0.7666597  )
        60           C   tau(  60) = (   0.4586315   1.0212419   1.5282069  )
        61           C   tau(  61) = (   0.1335861   2.2145011   0.8635647  )
        62           C   tau(  62) = (  -0.1463523   1.0872311   1.4312166  )
        63           C   tau(  63) = (   0.5246423   0.0400386   0.6663116  )
        64           C   tau(  64) = (   0.8045807   1.1673086   0.0986597  )
        65           C   tau(  65) = (   0.0604591   2.0618278   0.8106815  )
        66           C   tau(  66) = (  -0.0732219   0.9345276   1.4840698  )
        67           C   tau(  67) = (   0.5977693   0.1927120   0.7191947  )
        68           C   tau(  68) = (   0.7314503   1.3200121   0.0458064  )
        69           C   tau(  69) = (  -0.0123478   2.0640720   0.6514600  )
        70           C   tau(  70) = (   0.3413240   0.9367880   0.1134736  )
        71           C   tau(  71) = (   0.6705762   0.1904677   0.8784162  )
        72           C   tau(  72) = (   0.3169044   1.3177517   1.4164026  )
        73           C   tau(  73) = (  -0.0999780   1.9609883   0.5193860  )
        74           C   tau(  74) = (   0.4288980   0.8336907   0.2455336  )
        75           C   tau(  75) = (   0.7582064   0.2935515   1.0104903  )
        76           C   tau(  76) = (   0.2293304   1.4208490   1.2843426  )
        77           C   tau(  77) = (   0.7638722   1.8360912   0.5036527  )
        78           C   tau(  78) = (   0.5650386   0.7087924   0.2612750  )
        79           C   tau(  79) = (  -0.1056438   0.4184485   1.0262236  )
        80           C   tau(  80) = (   0.0931898   1.5457473   1.2686012  )
        81           C   tau(  81) = (   0.6366722   1.7488362   0.6133266  )
        82           C   tau(  82) = (   0.6921925   0.6215704   0.1515502  )
        83           C   tau(  83) = (   0.0215562   0.5057035   0.9165496  )
        84           C   tau(  84) = (  -0.0339641   1.6329693   1.3783260  )
        85           C   tau(  85) = (   0.6070095   1.6806222   0.7724000  )
        86           C   tau(  86) = (   0.3799593   0.5533653   1.5223467  )
        87           C   tau(  87) = (   0.0512189   0.5739175   0.7574762  )
        88           C   tau(  88) = (   0.2782691   1.7011744   0.0075295  )
        89           C   tau(  89) = (   0.4406900   1.6273554   0.8036485  )
        90           C   tau(  90) = (   0.5462441   0.5000664   1.4909764  )
        91           C   tau(  91) = (   0.2175384   0.6271843   0.7262277  )
        92           C   tau(  92) = (   0.1119843   1.7544733   0.0388998  )
        93           C   tau(  93) = (   0.3124606   1.6432258   0.6815652  )
        94           C   tau(  94) = (   0.0163116   0.5159268   0.0831029  )
        95           C   tau(  95) = (   0.3457678   0.6113139   0.8483110  )
        96           C   tau(  96) = (   0.6419168   1.7386129   1.4467733  )
        97           C   tau(  97) = (   0.3427014   1.7143116   0.5217712  )
        98           C   tau(  98) = (  -0.0137990   0.5870308   0.2429100  )
        99           C   tau(  99) = (   0.3155269   0.5402282   1.0081051  )
       100           C   tau( 100) = (   0.6720274   1.6675089   1.2869663  )
       101           C   tau( 101) = (   0.5073418   1.7668656   0.4917200  )
       102           C   tau( 102) = (   0.8215802   0.6396111   0.2730867  )
       103           C   tau( 103) = (   0.1508866   0.4876741   1.0381563  )
       104           C   tau( 104) = (  -0.1633518   1.6149286   1.2567895  )
       105           C   tau( 105) = (   0.6214417   1.8602747   0.3724352  )
       106           C   tau( 106) = (   0.7075207   0.7329937   0.3924421  )
       107           C   tau( 107) = (   0.0367867   0.3942650   1.1574411  )
       108           C   tau( 108) = (  -0.0492923   1.5215460   1.1374341  )
       109           H   tau( 109) = (   0.2362813   2.1066853   0.1614299  )
       110           H   tau( 110) = (   0.0926545   0.9796805   0.6034776  )
       111           H   tau( 111) = (   0.4219470   0.1478544   1.3684463  )
       112           H   tau( 112) = (   0.5655738   1.2748592   0.9263986  )
       113           H   tau( 113) = (   0.1746012   0.1589291   0.1431445  )
       114           H   tau( 114) = (   0.1540968   1.2865098   0.6216700  )
       115           H   tau( 115) = (   0.4836271   2.0956106   1.3867317  )
       116           H   tau( 116) = (   0.5041316   0.9680299   0.9082062  )
       117           H   tau( 117) = (   0.3943429   0.3736903   0.1955153  )
       118           H   tau( 118) = (  -0.0657590   1.5010830   0.5692285  )
       119           H   tau( 119) = (   0.2638855   1.8808494   1.3343609  )
       120           H   tau( 120) = (   0.7239874   0.7534567   0.9606477  )
       121           H   tau( 121) = (   0.6919656   0.2914201   0.2603955  )
       122           H   tau( 122) = (   0.6366278   1.4185928   0.5044176  )
       123           H   tau( 123) = (  -0.0337372   1.9631196   1.2694807  )
       124           H   tau( 124) = (   0.0216006   0.8359469   1.0254586  )
       125           H   tau( 125) = (   0.0527808   0.2223659   0.5259533  )
       126           H   tau( 126) = (   0.2762111   1.3496095   0.2389433  )
       127           H   tau( 127) = (   0.6054475   2.0321738   1.0039230  )
       128           H   tau( 128) = (   0.3820173   0.9049303   1.2909329  )
       129           H   tau( 129) = (   0.1911703   0.2200753   0.8095575  )
       130           H   tau( 130) = (  -0.2039708   1.3473180   1.4852318  )
       131           H   tau( 131) = (   0.4670581   2.0344645   0.7203187  )
       132           H   tau( 132) = (   0.8621992   0.9072217   0.0446444  )
       133           H   tau( 133) = (   0.1983239   2.2192272   0.9849464  )
       134           H   tau( 134) = (  -0.2111065   1.0919342   1.3098294  )
       135           H   tau( 135) = (   0.4599045   0.0353125   0.5449299  )
       136           H   tau( 136) = (   0.8693349   1.1626055   0.2200469  )
       137           H   tau( 137) = (   0.0662994   1.9488643   0.8893189  )
       138           H   tau( 138) = (  -0.0790472   0.8215809   1.4054625  )
       139           H   tau( 139) = (   0.5919290   0.3056754   0.6405573  )
       140           H   tau( 140) = (   0.7372756   1.4329588   0.1244138  )
       141           H   tau( 141) = (   0.7067658   1.6651669   0.8660978  )
       142           H   tau( 142) = (   0.2801396   0.5379219   1.4287212  )
       143           H   tau( 143) = (  -0.0485374   0.5893728   0.6637784  )
       144           H   tau( 144) = (   0.3780887   1.7166178   0.1011550  )
       145           H   tau( 145) = (   0.4073447   1.5722375   0.9256226  )
       146           H   tau( 146) = (   0.5795064   0.4449363   1.3689915  )
       147           H   tau( 147) = (   0.2508837   0.6823022   0.6042536  )
       148           H   tau( 148) = (   0.0787220   1.8096035   0.1608847  )
       149           H   tau( 149) = (   0.1855796   1.6003287   0.7138959  )
       150           H   tau( 150) = (   0.1431594   0.4729849   0.0506958  )
       151           H   tau( 151) = (   0.4726488   0.6542110   0.8159804  )
       152           H   tau( 152) = (   0.5150690   1.7815549   1.4791804  )
       153           H   tau( 153) = (   0.2406529   1.7268764   0.4303728  )
       154           H   tau( 154) = (   0.0883068   0.5995741   0.3342311  )
       155           H   tau( 155) = (   0.4175755   0.5276633   1.0995034  )
       156           H   tau( 156) = (   0.5699216   1.6549656   1.1956451  )

     number of k points=     4
                       cart. coord. in units 2pi/alat
        k(    1) = (   0.0000000   0.0000000   0.0000000), wk =   0.3333333
        k(    2) = (   0.0000000   0.0000000  -0.3268238), wk =   0.3333333
        k(    3) = (   0.3333333   0.0000000   0.0744661), wk =   0.6666667
        k(    4) = (   0.3333333   0.0000000  -0.2523578), wk =   0.6666667

     Dense  grid:  1558435 G-vectors     FFT dimensions: (  96, 216, 150)

     Estimated max dynamical RAM per process >    1978.21MB

     Estimated total allocated dynamical RAM >   15825.65MB

     Check: negative/imaginary core charge=   -0.000002    0.000000

     Initial potential from superposition of free atoms

     starting charge  503.99553, renormalised to  504.00000
     Starting wfc are  480 randomized atomic wfcs
     Checking if some PAW data can be deallocated... 

     total cpu time spent up to now is       86.1 secs

     per-process dynamical memory:  1119.7 Mb

     Self-consistent Calculation

     iteration #  1     ecut=   100.00 Ry     beta=0.50
     Davidson diagonalization with overlap
     ethr =  1.00E-02,  avg # of iterations =  4.0

     total cpu time spent up to now is      294.2 secs

     total energy              =   -2322.48899202 Ry
     Harris-Foulkes estimate   =   -2330.55709525 Ry
     estimated scf accuracy    <      15.55122682 Ry

     iteration #  2     ecut=   100.00 Ry     beta=0.50
     Davidson diagonalization with overlap
     ethr =  3.09E-03,  avg # of iterations =  2.0

     total cpu time spent up to now is      399.8 secs

     total energy              =   -2321.68033305 Ry
     Harris-Foulkes estimate   =   -2323.24757077 Ry
     estimated scf accuracy    <       2.62713485 Ry

     iteration #  3     ecut=   100.00 Ry     beta=0.50
     Davidson diagonalization with overlap
     ethr =  5.21E-04,  avg # of iterations =  5.0

     total cpu time spent up to now is      671.7 secs

     total energy              =   -2325.20110196 Ry
     Harris-Foulkes estimate   =   -2326.33359735 Ry
     estimated scf accuracy    <       5.49908323 Ry

     iteration #  4     ecut=   100.00 Ry     beta=0.50
     Davidson diagonalization with overlap
     ethr =  5.21E-04,  avg # of iterations =  1.0

     total cpu time spent up to now is      776.2 secs

     total energy              =   -2323.20614264 Ry
     Harris-Foulkes estimate   =   -2325.24742219 Ry
     estimated scf accuracy    <       3.49653400 Ry

     iteration #  5     ecut=   100.00 Ry     beta=0.50
     Davidson diagonalization with overlap
     ethr =  5.21E-04,  avg # of iterations =  6.2

     total cpu time spent up to now is      986.3 secs

     total energy              =   -2324.36747060 Ry
     Harris-Foulkes estimate   =   -2324.72878764 Ry
     estimated scf accuracy    <       0.53215797 Ry

     iteration #  6     ecut=   100.00 Ry     beta=0.50
     Davidson diagonalization with overlap
     ethr =  1.06E-04,  avg # of iterations =  8.5

     total cpu time spent up to now is     1208.6 secs

     total energy              =   -2324.54894291 Ry
     Harris-Foulkes estimate   =   -2324.62782373 Ry
     estimated scf accuracy    <       0.18493776 Ry

     iteration #  7     ecut=   100.00 Ry     beta=0.50
     Davidson diagonalization with overlap
     ethr =  3.67E-05,  avg # of iterations =  2.0

     total cpu time spent up to now is     1313.2 secs

     total energy              =   -2324.52726389 Ry
     Harris-Foulkes estimate   =   -2324.55684907 Ry
     estimated scf accuracy    <       0.05359433 Ry

     iteration #  8     ecut=   100.00 Ry     beta=0.50
     Davidson diagonalization with overlap
     ethr =  1.06E-05,  avg # of iterations =  6.0

     total cpu time spent up to now is     1551.5 secs

     total energy              =   -2324.57320410 Ry
     Harris-Foulkes estimate   =   -2324.58212192 Ry
     estimated scf accuracy    <       0.03471835 Ry

     iteration #  9     ecut=   100.00 Ry     beta=0.50
     Davidson diagonalization with overlap
     ethr =  6.89E-06,  avg # of iterations =  1.0

     total cpu time spent up to now is     1652.6 secs

     total energy              =   -2324.56684739 Ry
     Harris-Foulkes estimate   =   -2324.57369726 Ry
     estimated scf accuracy    <       0.01927125 Ry

     iteration # 10     ecut=   100.00 Ry     beta=0.50
     Davidson diagonalization with overlap
     ethr =  3.82E-06,  avg # of iterations =  3.0

     total cpu time spent up to now is     1797.7 secs

     total energy              =   -2324.57081598 Ry
     Harris-Foulkes estimate   =   -2324.57109191 Ry
     estimated scf accuracy    <       0.00056016 Ry

     iteration # 11     ecut=   100.00 Ry     beta=0.50
     Davidson diagonalization with overlap
     ethr =  1.11E-07,  avg # of iterations =  5.0

     total cpu time spent up to now is     2030.1 secs

     total energy              =   -2324.57123170 Ry
     Harris-Foulkes estimate   =   -2324.57125862 Ry
     estimated scf accuracy    <       0.00007095 Ry

     iteration # 12     ecut=   100.00 Ry     beta=0.50
     Davidson diagonalization with overlap
     ethr =  1.41E-08,  avg # of iterations =  3.0

     total cpu time spent up to now is     2138.2 secs

     total energy              =   -2324.57122692 Ry
     Harris-Foulkes estimate   =   -2324.57123865 Ry
     estimated scf accuracy    <       0.00002271 Ry

     iteration # 13     ecut=   100.00 Ry     beta=0.50
     Davidson diagonalization with overlap
     ethr =  4.51E-09,  avg # of iterations =  7.5

     total cpu time spent up to now is     2365.4 secs

     total energy              =   -2324.57123799 Ry
     Harris-Foulkes estimate   =   -2324.57124471 Ry
     estimated scf accuracy    <       0.00001347 Ry

     iteration # 14     ecut=   100.00 Ry     beta=0.50
     Davidson diagonalization with overlap
     ethr =  2.67E-09,  avg # of iterations =  2.8

     total cpu time spent up to now is     2471.6 secs

     total energy              =   -2324.57123797 Ry
     Harris-Foulkes estimate   =   -2324.57123919 Ry
     estimated scf accuracy    <       0.00000224 Ry

     iteration # 15     ecut=   100.00 Ry     beta=0.50
     Davidson diagonalization with overlap
     ethr =  4.45E-10,  avg # of iterations =  4.0

     total cpu time spent up to now is     2700.5 secs

     total energy              =   -2324.57124061 Ry
     Harris-Foulkes estimate   =   -2324.57124248 Ry
     estimated scf accuracy    <       0.00000511 Ry

     iteration # 16     ecut=   100.00 Ry     beta=0.50
     Davidson diagonalization with overlap
     ethr =  4.45E-10,  avg # of iterations =  1.0

     total cpu time spent up to now is     2802.0 secs

     total energy              =   -2324.57124005 Ry
     Harris-Foulkes estimate   =   -2324.57124080 Ry
     estimated scf accuracy    <       0.00000181 Ry

     iteration # 17     ecut=   100.00 Ry     beta=0.50
     Davidson diagonalization with overlap
     ethr =  3.59E-10,  avg # of iterations =  4.0

     total cpu time spent up to now is     2994.3 secs

     total energy              =   -2324.57124101 Ry
     Harris-Foulkes estimate   =   -2324.57124108 Ry
     estimated scf accuracy    <       0.00000028 Ry

     iteration # 18     ecut=   100.00 Ry     beta=0.50
     Davidson diagonalization with overlap
     ethr =  5.52E-11,  avg # of iterations =  1.0

     total cpu time spent up to now is     3095.2 secs

     total energy              =   -2324.57124094 Ry
     Harris-Foulkes estimate   =   -2324.57124102 Ry
     estimated scf accuracy    <       0.00000016 Ry

     iteration # 19     ecut=   100.00 Ry     beta=0.50
     Davidson diagonalization with overlap
     ethr =  3.19E-11,  avg # of iterations =  4.0

     total cpu time spent up to now is     3261.6 secs

     total energy              =   -2324.57124100 Ry
     Harris-Foulkes estimate   =   -2324.57124101 Ry
     estimated scf accuracy    <       0.00000001 Ry

     iteration # 20     ecut=   100.00 Ry     beta=0.50
     Davidson diagonalization with overlap
     ethr =  2.32E-12,  avg # of iterations =  3.0

     total cpu time spent up to now is     3373.8 secs

     End of self-consistent calculation

          k = 0.0000 0.0000 0.0000 (194861 PWs)   bands (ev):

   -21.3153 -21.3149 -21.3144 -21.3141 -20.7979 -20.7977 -20.7967 -20.7966
   -20.7614 -20.7610 -20.7609 -20.7605 -15.8841 -15.8839 -15.8813 -15.8785
   -15.7977 -15.7960 -15.7900 -15.7881 -15.7474 -15.7465 -15.7112 -15.7101
   -13.9405 -13.9167 -13.8990 -13.8913 -13.8079 -13.8015 -13.7908 -13.7863
   -13.7502 -13.7388 -13.7368 -13.7345 -12.4279 -12.4182 -12.3793 -12.3727
   -12.3252 -12.3122 -12.2800 -12.2666 -12.2388 -12.2372 -12.2081 -12.2071
   -11.0300 -11.0227 -11.0017 -10.9918 -10.4459 -10.4390 -10.4179 -10.3876
   -10.3836 -10.3820 -10.3364 -10.3129  -9.4765  -9.4535  -9.4190  -9.3894
    -9.3888  -9.3784  -9.3688  -9.3562  -9.1379  -9.0956  -9.0829  -9.0709
    -8.7491  -8.7431  -8.6987  -8.6934  -8.2401  -8.1331  -8.1162  -8.0882
    -8.0792  -8.0786  -8.0709  -8.0645  -7.5784  -7.5589  -7.5318  -7.5101
    -7.4594  -7.4553  -7.4405  -7.4397  -7.1310  -7.0308  -6.9298  -6.9228
    -6.6542  -6.6459  -6.5714  -6.5684  -6.4926  -6.4634  -6.4410  -6.3950
    -6.3019  -6.2475  -6.2462  -6.2273  -6.2035  -6.1484  -6.1462  -6.0583
    -5.3204  -5.3010  -5.2494  -5.2415  -5.2174  -5.2063  -5.2006  -5.1700
    -5.1556  -5.1218  -5.0544  -5.0172  -5.0107  -5.0036  -4.9676  -4.9609
    -4.8019  -4.7579  -4.7574  -4.6745  -4.6614  -4.6140  -4.5405  -4.5179
    -4.4595  -4.4350  -4.3653  -4.3645  -4.3448  -4.2937  -4.2804  -4.2796
    -4.2471  -4.1862  -4.1539  -4.1059  -3.9817  -3.9620  -3.8795  -3.8270
    -3.8008  -3.7720  -3.7557  -3.7423  -3.7338  -3.6566  -3.5814  -3.5654
    -3.5620  -3.5019  -3.4932  -3.4490  -3.3438  -3.3120  -3.3052  -3.2895
    -3.2746  -3.2443  -3.2230  -3.1753  -3.0937  -3.0459  -2.9997  -2.9818
    -2.9622  -2.9509  -2.8010  -2.7627  -2.5370  -2.4951  -2.4609  -2.3630
    -2.3100  -2.2863  -2.2645  -2.2611  -2.2299  -2.1965  -2.1905  -2.1034
    -1.9963  -1.9478  -1.9384  -1.9263  -1.8331  -1.8270  -1.7969  -1.7944
    -1.7614  -1.7424  -1.7299  -1.7167  -1.6908  -1.6729  -1.6660  -1.6349
    -1.4022  -1.3583  -1.3195  -1.2978  -1.2577  -1.2544  -1.2497  -1.2040
    -0.6288  -0.5647  -0.5190  -0.5127  -0.4994  -0.4576  -0.4235  -0.4122
    -0.4004  -0.3884  -0.3080  -0.2706  -0.2700  -0.2392  -0.2252  -0.2228
    -0.1927  -0.1910  -0.1305  -0.1197  -0.0924  -0.0416   0.1011   0.1408
     0.1461   0.1540   0.2828   0.3431   0.3584   0.3654   0.4431   0.4605
     0.8063   0.8460   0.8595   0.8708   4.2866   4.2981   4.3653   4.3751
     4.3955   4.4037   4.4760   4.4888   4.5675   4.5836   4.6972   4.7087
     4.7653   4.8080   4.8958   4.9437   5.0082   5.0104   5.0170   5.0539
     5.0981   5.1008   5.2502   5.2971   5.9505   6.3267   6.6085   6.6321
     6.7671   6.9365   7.0797   7.1344   7.2179   7.2180   7.3684   7.3794
     7.4333   7.5101   7.5243   7.5318   7.6621   7.7105   7.7110   7.7217
     7.8088   7.8849   7.9005   7.9340   7.9754   8.0873

          k = 0.0000 0.0000-0.3268 (194728 PWs)   bands (ev):

   -21.3148 -21.3147 -21.3146 -21.3145 -20.7973 -20.7972 -20.7972 -20.7971
   -20.7612 -20.7612 -20.7607 -20.7607 -15.8832 -15.8829 -15.8809 -15.8806
   -15.8022 -15.8022 -15.7901 -15.7882 -15.7293 -15.7292 -15.7239 -15.7219
   -13.9206 -13.9205 -13.9046 -13.9046 -13.8090 -13.8080 -13.7746 -13.7743
   -13.7661 -13.7658 -13.7239 -13.7232 -12.4042 -12.4041 -12.3947 -12.3946
   -12.3160 -12.3150 -12.2869 -12.2863 -12.2203 -12.2195 -12.2161 -12.2151
   -11.0318 -11.0314 -10.9906 -10.9901 -10.4435 -10.4432 -10.4140 -10.4138
   -10.3659 -10.3657 -10.3304 -10.3301  -9.4387  -9.4385  -9.4301  -9.4301
    -9.3948  -9.3948  -9.3552  -9.3547  -9.1183  -9.1179  -9.0760  -9.0754
    -8.7558  -8.7556  -8.6843  -8.6842  -8.1859  -8.1857  -8.0953  -8.0951
    -8.0916  -8.0909  -8.0626  -8.0623  -7.5774  -7.5772  -7.5129  -7.5129
    -7.4627  -7.4622  -7.4310  -7.4304  -7.0314  -7.0309  -6.9914  -6.9909
    -6.6240  -6.6238  -6.5930  -6.5928  -6.4678  -6.4677  -6.4291  -6.4290
    -6.2762  -6.2762  -6.2338  -6.2337  -6.1588  -6.1587  -6.1356  -6.1355
    -5.3016  -5.3015  -5.2598  -5.2596  -5.1842  -5.1842  -5.1750  -5.1748
    -5.1043  -5.1039  -5.0858  -5.0854  -5.0265  -5.0261  -4.9544  -4.9539
    -4.7693  -4.7692  -4.7265  -4.7265  -4.5836  -4.5832  -4.5134  -4.5126
    -4.4285  -4.4284  -4.3353  -4.3350  -4.3346  -4.3342  -4.3145  -4.3138
    -4.2402  -4.2397  -4.1457  -4.1456  -3.9253  -3.9243  -3.8490  -3.8490
    -3.8045  -3.8040  -3.7667  -3.7667  -3.7004  -3.7001  -3.5825  -3.5814
    -3.5256  -3.5254  -3.4964  -3.4964  -3.3357  -3.3356  -3.2943  -3.2941
    -3.2535  -3.2534  -3.2413  -3.2413  -3.0847  -3.0844  -2.9920  -2.9917
    -2.9754  -2.9747  -2.8036  -2.8035  -2.4149  -2.4145  -2.3328  -2.3325
    -2.3265  -2.3257  -2.2763  -2.2756  -2.2548  -2.2546  -2.1349  -2.1348
    -1.9538  -1.9531  -1.9306  -1.9302  -1.8598  -1.8587  -1.8084  -1.8083
    -1.7434  -1.7421  -1.7189  -1.7185  -1.6813  -1.6806  -1.6468  -1.6465
    -1.3733  -1.3728  -1.3100  -1.3100  -1.2747  -1.2740  -1.2188  -1.2185
    -0.5888  -0.5886  -0.5226  -0.5220  -0.4820  -0.4819  -0.4286  -0.4282
    -0.3552  -0.3549  -0.3399  -0.3397  -0.2861  -0.2861  -0.2432  -0.2427
    -0.1887  -0.1880  -0.1365  -0.1363  -0.0120  -0.0119   0.0708   0.0713
     0.2233   0.2235   0.3329   0.3336   0.3782   0.3792   0.4472   0.4473
     0.7727   0.7728   0.8834   0.8835   4.3156   4.3161   4.3644   4.3646
     4.3924   4.3938   4.4489   4.4491   4.6126   4.6134   4.6712   4.6713
     4.8583   4.8586   4.9096   4.9103   5.0052   5.0065   5.0526   5.0534
     5.0785   5.0795   5.2259   5.2274   6.1722   6.1724   6.5215   6.5221
     6.8000   6.8001   7.2063   7.2065   7.2749   7.2749   7.4098   7.4099
     7.4618   7.4620   7.5753   7.5754   7.6865   7.6865   7.7436   7.7442
     7.8124   7.8130   7.9665   7.9670   7.9861   7.9873

          k = 0.3333 0.0000 0.0745 (194809 PWs)   bands (ev):

   -21.3148 -21.3145 -21.3143 -21.3141 -20.7977 -20.7976 -20.7971 -20.7970
   -20.7613 -20.7611 -20.7608 -20.7606 -15.8886 -15.8870 -15.8867 -15.8842
   -15.8083 -15.8079 -15.7798 -15.7779 -15.7417 -15.7410 -15.7249 -15.7238
   -13.9145 -13.9001 -13.8978 -13.8845 -13.8203 -13.8191 -13.7760 -13.7658
   -13.7557 -13.7492 -13.7164 -13.7086 -12.4110 -12.3992 -12.3878 -12.3761
   -12.3049 -12.2943 -12.2782 -12.2682 -12.2481 -12.2471 -12.2015 -12.2010
   -11.0475 -11.0425 -11.0087 -10.9817 -10.4285 -10.4266 -10.4169 -10.4098
   -10.3610 -10.3543 -10.3371 -10.3342  -9.4864  -9.4711  -9.4674  -9.4371
    -9.4233  -9.4202  -9.3840  -9.3721  -9.1730  -9.1507  -9.1259  -9.1210
    -8.7738  -8.7527  -8.7273  -8.6989  -8.1910  -8.1848  -8.1545  -8.1398
    -8.1370  -8.1080  -8.0732  -8.0486  -7.5411  -7.5088  -7.4938  -7.4918
    -7.4852  -7.4813  -7.4191  -7.4187  -6.9770  -6.9482  -6.9110  -6.8872
    -6.6199  -6.6021  -6.5823  -6.5603  -6.4945  -6.4907  -6.4386  -6.4361
    -6.2225  -6.1913  -6.1655  -6.1589  -6.1424  -6.1308  -6.1026  -6.0834
    -5.2836  -5.2583  -5.2579  -5.2480  -5.2101  -5.1917  -5.1738  -5.1697
    -5.0701  -5.0426  -5.0222  -4.9729  -4.9707  -4.9485  -4.9292  -4.9200
    -4.7953  -4.7354  -4.7191  -4.6969  -4.5654  -4.5568  -4.5459  -4.4865
    -4.4729  -4.4640  -4.4226  -4.4128  -4.4117  -4.3945  -4.3549  -4.3232
    -4.3135  -4.2624  -4.2239  -4.1362  -3.9191  -3.8874  -3.8813  -3.8769
    -3.8369  -3.7898  -3.7592  -3.7243  -3.7213  -3.7154  -3.6095  -3.5990
    -3.5688  -3.5284  -3.4981  -3.4880  -3.3776  -3.3533  -3.2949  -3.2648
    -3.2548  -3.2340  -3.2310  -3.2293  -3.0553  -3.0393  -2.9713  -2.9612
    -2.9326  -2.9251  -2.8164  -2.8051  -2.5132  -2.4590  -2.4446  -2.4181
    -2.4136  -2.3536  -2.3085  -2.2829  -2.2815  -2.2116  -2.1590  -2.1489
    -2.0016  -1.9763  -1.9502  -1.9356  -1.9055  -1.8899  -1.8460  -1.8276
    -1.8094  -1.7736  -1.7688  -1.7449  -1.7410  -1.7105  -1.6834  -1.6628
    -1.3491  -1.3397  -1.2950  -1.2925  -1.2538  -1.2242  -1.1905  -1.1838
    -0.5680  -0.5550  -0.5075  -0.5033  -0.4861  -0.4481  -0.4265  -0.4180
    -0.3899  -0.3737  -0.3253  -0.3160  -0.2915  -0.2611  -0.2528  -0.2342
    -0.1967  -0.1677  -0.1619  -0.1506  -0.1414  -0.1389   0.0369   0.0512
     0.2818   0.3109   0.3692   0.3885   0.4038   0.4216   0.4620   0.4744
     0.7700   0.7968   0.9371   0.9462   4.2552   4.2905   4.3253   4.3339
     4.3670   4.3881   4.4265   4.4480   4.6194   4.6312   4.7313   4.7434
     4.8142   4.8303   4.8597   4.8700   4.9356   4.9704   5.0815   5.0939
     5.2299   5.2350   5.4003   5.4168   6.2925   6.6127   6.6482   6.8681
     6.9155   6.9322   7.0414   7.1880   7.2094   7.2825   7.4024   7.4150
     7.5266   7.5309   7.5351   7.5701   7.6304   7.6566   7.6609   7.7411
     7.7653   7.7712   7.8500   7.8638   7.9132   7.9948

          k = 0.3333 0.0000-0.2524 (194786 PWs)   bands (ev):

   -21.3148 -21.3147 -21.3142 -21.3140 -20.7979 -20.7978 -20.7968 -20.7968
   -20.7614 -20.7610 -20.7609 -20.7606 -15.8897 -15.8869 -15.8858 -15.8845
   -15.8052 -15.8032 -15.7791 -15.7772 -15.7538 -15.7528 -15.7175 -15.7163
   -13.9118 -13.9009 -13.8929 -13.8906 -13.8217 -13.8172 -13.7789 -13.7709
   -13.7503 -13.7405 -13.7170 -13.7148 -12.4157 -12.4033 -12.3836 -12.3730
   -12.3147 -12.2981 -12.2713 -12.2636 -12.2352 -12.2299 -12.2154 -12.2143
   -11.0672 -11.0126 -11.0118 -10.9886 -10.4377 -10.4183 -10.4105 -10.3963
   -10.3827 -10.3593 -10.3451 -10.3171  -9.4930  -9.4732  -9.4612  -9.4312
    -9.4279  -9.4090  -9.3841  -9.3767  -9.1946  -9.1470  -9.1355  -9.1000
    -8.7692  -8.7497  -8.7230  -8.7125  -8.1969  -8.1633  -8.1616  -8.1485
    -8.1251  -8.1118  -8.0708  -8.0639  -7.5687  -7.5305  -7.4931  -7.4744
    -7.4572  -7.4565  -7.4368  -7.4209  -6.9991  -6.9402  -6.8996  -6.8586
    -6.6187  -6.6044  -6.5810  -6.5621  -6.5167  -6.4778  -6.4487  -6.4194
    -6.2235  -6.2102  -6.1671  -6.1439  -6.1362  -6.1259  -6.1007  -6.0860
    -5.2778  -5.2605  -5.2547  -5.2448  -5.2130  -5.1993  -5.1879  -5.1641
    -5.0525  -5.0260  -5.0169  -4.9918  -4.9626  -4.9620  -4.9332  -4.9326
    -4.7873  -4.7819  -4.7455  -4.6629  -4.6437  -4.6024  -4.5349  -4.4780
    -4.4613  -4.4476  -4.4462  -4.4162  -4.4147  -4.3631  -4.3585  -4.2929
    -4.2806  -4.2625  -4.1958  -4.1560  -3.9413  -3.9326  -3.8832  -3.8377
    -3.8024  -3.7921  -3.7757  -3.7517  -3.7146  -3.7060  -3.5996  -3.5657
    -3.5496  -3.5452  -3.5094  -3.4933  -3.3492  -3.3129  -3.2925  -3.2852
    -3.2667  -3.2410  -3.2206  -3.1752  -3.1014  -3.0031  -2.9929  -2.9505
    -2.9256  -2.9202  -2.7848  -2.7510  -2.5699  -2.5163  -2.4919  -2.3975
    -2.3953  -2.3762  -2.3572  -2.2494  -2.2323  -2.2264  -2.1980  -2.1843
    -2.0216  -1.9645  -1.9504  -1.9210  -1.9159  -1.8610  -1.8293  -1.8138
    -1.7971  -1.7883  -1.7731  -1.7714  -1.7352  -1.6985  -1.6801  -1.6669
    -1.3401  -1.3326  -1.2914  -1.2785  -1.2495  -1.2111  -1.2057  -1.2008
    -0.5633  -0.5524  -0.5068  -0.5053  -0.4845  -0.4715  -0.4330  -0.4072
    -0.3983  -0.3792  -0.3466  -0.2824  -0.2795  -0.2683  -0.2419  -0.2417
    -0.1981  -0.1772  -0.1510  -0.1400  -0.0676  -0.0563  -0.0215  -0.0101
     0.2022   0.2426   0.2944   0.3346   0.4313   0.4664   0.5012   0.5388
     0.7906   0.8100   0.9441   0.9644   4.2489   4.2542   4.3047   4.3177
     4.3974   4.4298   4.4952   4.5205   4.5887   4.5927   4.6666   4.7374
     4.8067   4.8159   4.8628   4.8856   4.9102   4.9579   5.1294   5.1394
     5.1834   5.2355   5.3924   5.4061   6.2761   6.6215   6.6442   6.8330
     6.8686   6.9136   7.0967   7.1864   7.2875   7.3226   7.3981   7.4198
     7.4564   7.4833   7.5410   7.6235   7.6247   7.6610   7.6681   7.7011
     7.7627   7.8278   7.8604   7.8680   7.9253   7.9637

     highest occupied, lowest unoccupied level (ev):     0.9644    4.2489

!    total energy              =   -2324.57124100 Ry
     Harris-Foulkes estimate   =   -2324.57124100 Ry
     estimated scf accuracy    <          4.7E-09 Ry

     total all-electron energy =     -9176.087477 Ry

     The total energy is the sum of the following terms:

     one-electron contribution =   -1495.16118553 Ry
     hartree contribution      =     935.13713454 Ry
     xc contribution           =    -518.75457194 Ry
     ewald contribution        =    -491.96403993 Ry
     Dispersion Correction     =      -0.71729035 Ry
     one-center paw contrib.   =    -753.11128780 Ry

     convergence has been achieved in  20 iterations

     Forces acting on atoms (cartesian axes, Ry/au):

     atom    1 type  4   force =     0.00056622   -0.00014162    0.00017077
     atom    2 type  4   force =    -0.00056152   -0.00015907   -0.00012700
     atom    3 type  4   force =    -0.00056622    0.00014162   -0.00017077
     atom    4 type  4   force =     0.00056152    0.00015907    0.00012700
     atom    5 type  4   force =     0.00094132    0.00117661   -0.00173142
     atom    6 type  4   force =    -0.00094263    0.00116391    0.00169926
     atom    7 type  4   force =    -0.00094132   -0.00117661    0.00173142
     atom    8 type  4   force =     0.00094263   -0.00116391   -0.00169926
     atom    9 type  4   force =     0.00089205   -0.00220846    0.00013886
     atom   10 type  4   force =    -0.00087251   -0.00217318   -0.00015616
     atom   11 type  4   force =    -0.00089205    0.00220846   -0.00013886
     atom   12 type  4   force =     0.00087251    0.00217318    0.00015616
     atom   13 type  1   force =    -0.00067219    0.00007796   -0.00012438
     atom   14 type  1   force =     0.00070684    0.00016183    0.00015952
     atom   15 type  1   force =     0.00067219   -0.00007796    0.00012438
     atom   16 type  1   force =    -0.00070684   -0.00016183   -0.00015952
     atom   17 type  1   force =     0.00146563   -0.00324760    0.00145895
     atom   18 type  1   force =    -0.00158661   -0.00312004   -0.00150067
     atom   19 type  1   force =    -0.00146563    0.00324760   -0.00145895
     atom   20 type  1   force =     0.00158661    0.00312004    0.00150067
     atom   21 type  1   force =    -0.00124122    0.00243206    0.00208298
     atom   22 type  1   force =     0.00115897    0.00214210   -0.00210514
     atom   23 type  1   force =     0.00124122   -0.00243206   -0.00208298
     atom   24 type  1   force =    -0.00115897   -0.00214210    0.00210514
     atom   25 type  1   force =     0.00105806    0.00073019    0.00016862
     atom   26 type  1   force =    -0.00100316    0.00102198   -0.00015347
     atom   27 type  1   force =    -0.00105806   -0.00073019   -0.00016862
     atom   28 type  1   force =     0.00100316   -0.00102198    0.00015347
     atom   29 type  1   force =    -0.00139783   -0.00064487   -0.00062826
     atom   30 type  1   force =     0.00147730   -0.00085431    0.00065213
     atom   31 type  1   force =     0.00139783    0.00064487    0.00062826
     atom   32 type  1   force =    -0.00147730    0.00085431   -0.00065213
     atom   33 type  1   force =     0.00108249   -0.00140694   -0.00096227
     atom   34 type  1   force =    -0.00102059   -0.00088915    0.00094580
     atom   35 type  1   force =    -0.00108249    0.00140694    0.00096227
     atom   36 type  1   force =     0.00102059    0.00088915   -0.00094580
     atom   37 type  1   force =     0.00072243    0.00221857   -0.00152161
     atom   38 type  1   force =    -0.00077652    0.00169347    0.00150805
     atom   39 type  1   force =    -0.00072243   -0.00221857    0.00152161
     atom   40 type  1   force =     0.00077652   -0.00169347   -0.00150805
     atom   41 type  1   force =    -0.00150948   -0.00014778   -0.00009960
     atom   42 type  1   force =     0.00155771   -0.00005594    0.00012256
     atom   43 type  1   force =     0.00150948    0.00014778    0.00009960
     atom   44 type  1   force =    -0.00155771    0.00005594   -0.00012256
     atom   45 type  1   force =     0.00029478   -0.00017166    0.00115424
     atom   46 type  1   force =    -0.00023817   -0.00026764   -0.00095306
     atom   47 type  1   force =    -0.00029478    0.00017166   -0.00115424
     atom   48 type  1   force =     0.00023817    0.00026764    0.00095306
     atom   49 type  1   force =     0.00086972   -0.00306494    0.00016824
     atom   50 type  1   force =    -0.00110874   -0.00216662   -0.00010428
     atom   51 type  1   force =    -0.00086972    0.00306494   -0.00016824
     atom   52 type  1   force =     0.00110874    0.00216662    0.00010428
     atom   53 type  1   force =     0.00048617    0.00187838    0.00058113
     atom   54 type  1   force =    -0.00043874    0.00112689   -0.00091008
     atom   55 type  1   force =    -0.00048617   -0.00187838   -0.00058113
     atom   56 type  1   force =     0.00043874   -0.00112689    0.00091008
     atom   57 type  1   force =    -0.00041339    0.00098859    0.00058136
     atom   58 type  1   force =     0.00051243    0.00155510   -0.00005994
     atom   59 type  1   force =     0.00041339   -0.00098859   -0.00058136
     atom   60 type  1   force =    -0.00051243   -0.00155510    0.00005994
     atom   61 type  1   force =    -0.00127428   -0.00025088    0.00102101
     atom   62 type  1   force =     0.00130061   -0.00090724   -0.00141992
     atom   63 type  1   force =     0.00127428    0.00025088   -0.00102101
     atom   64 type  1   force =    -0.00130061    0.00090724    0.00141992
     atom   65 type  1   force =     0.00074577    0.00064803    0.00228347
     atom   66 type  1   force =    -0.00063337    0.00120066   -0.00161844
     atom   67 type  1   force =    -0.00074577   -0.00064803   -0.00228347
     atom   68 type  1   force =     0.00063337   -0.00120066    0.00161844
     atom   69 type  1   force =     0.00064614    0.00118028   -0.00309849
     atom   70 type  1   force =    -0.00095631    0.00081121    0.00220338
     atom   71 type  1   force =    -0.00064614   -0.00118028    0.00309849
     atom   72 type  1   force =     0.00095631   -0.00081121   -0.00220338
     atom   73 type  1   force =     0.00066418    0.00099795    0.00016941
     atom   74 type  1   force =    -0.00057066    0.00080425   -0.00001339
     atom   75 type  1   force =    -0.00066418   -0.00099795   -0.00016941
     atom   76 type  1   force =     0.00057066   -0.00080425    0.00001339
     atom   77 type  1   force =    -0.00160604   -0.00039385    0.00009687
     atom   78 type  1   force =     0.00158145   -0.00036452   -0.00009885
     atom   79 type  1   force =     0.00160604    0.00039385   -0.00009687
     atom   80 type  1   force =    -0.00158145    0.00036452    0.00009885
     atom   81 type  1   force =     0.00100555   -0.00212109    0.00124864
     atom   82 type  1   force =    -0.00107547   -0.00206185   -0.00114422
     atom   83 type  1   force =    -0.00100555    0.00212109   -0.00124864
     atom   84 type  1   force =     0.00107547    0.00206185    0.00114422
     atom   85 type  1   force =     0.00065437   -0.00037529   -0.00150295
     atom   86 type  1   force =    -0.00059259   -0.00045971    0.00129393
     atom   87 type  1   force =    -0.00065437    0.00037529    0.00150295
     atom   88 type  1   force =     0.00059259    0.00045971   -0.00129393
     atom   89 type  1   force =    -0.00138559    0.00016335   -0.00084682
     atom   90 type  1   force =     0.00132775    0.00021319    0.00092200
     atom   91 type  1   force =     0.00138559   -0.00016335    0.00084682
     atom   92 type  1   force =    -0.00132775   -0.00021319   -0.00092200
     atom   93 type  1   force =     0.00105554   -0.00023172    0.00039719
     atom   94 type  1   force =    -0.00090952   -0.00027442   -0.00040769
     atom   95 type  1   force =    -0.00105554    0.00023172   -0.00039719
     atom   96 type  1   force =     0.00090952    0.00027442    0.00040769
     atom   97 type  1   force =    -0.00145645    0.00083498    0.00258570
     atom   98 type  1   force =     0.00124875    0.00089216   -0.00253532
     atom   99 type  1   force =     0.00145645   -0.00083498   -0.00258570
     atom  100 type  1   force =    -0.00124875   -0.00089216    0.00253532
     atom  101 type  1   force =     0.00168618    0.00296329   -0.00246279
     atom  102 type  1   force =    -0.00153776    0.00289538    0.00240658
     atom  103 type  1   force =    -0.00168618   -0.00296329    0.00246279
     atom  104 type  1   force =     0.00153776   -0.00289538   -0.00240658
     atom  105 type  1   force =    -0.00068895    0.00025973    0.00013949
     atom  106 type  1   force =     0.00071928    0.00022098   -0.00015592
     atom  107 type  1   force =     0.00068895   -0.00025973   -0.00013949
     atom  108 type  1   force =    -0.00071928   -0.00022098    0.00015592
     atom  109 type  3   force =    -0.00129665   -0.00135855    0.00028022
     atom  110 type  3   force =     0.00131312   -0.00135309   -0.00028677
     atom  111 type  3   force =     0.00129665    0.00135855   -0.00028022
     atom  112 type  3   force =    -0.00131312    0.00135309    0.00028677
     atom  113 type  3   force =    -0.00083744    0.00060098    0.00026979
     atom  114 type  3   force =     0.00081435    0.00058068   -0.00027773
     atom  115 type  3   force =     0.00083744   -0.00060098   -0.00026979
     atom  116 type  3   force =    -0.00081435   -0.00058068    0.00027773
     atom  117 type  3   force =    -0.00004380   -0.00066736   -0.00015689
     atom  118 type  3   force =     0.00003919   -0.00055487    0.00017489
     atom  119 type  3   force =     0.00004380    0.00066736    0.00015689
     atom  120 type  3   force =    -0.00003919    0.00055487   -0.00017489
     atom  121 type  3   force =     0.00037170    0.00055433    0.00005966
     atom  122 type  3   force =    -0.00030264    0.00046765   -0.00002484
     atom  123 type  3   force =    -0.00037170   -0.00055433   -0.00005966
     atom  124 type  3   force =     0.00030264   -0.00046765    0.00002484
     atom  125 type  3   force =     0.00000255   -0.00000433    0.00027328
     atom  126 type  3   force =    -0.00000948    0.00022803   -0.00012371
     atom  127 type  3   force =    -0.00000255    0.00000433   -0.00027328
     atom  128 type  3   force =     0.00000948   -0.00022803    0.00012371
     atom  129 type  3   force =    -0.00055224    0.00042205    0.00051740
     atom  130 type  3   force =     0.00059671    0.00034687   -0.00053721
     atom  131 type  3   force =     0.00055224   -0.00042205   -0.00051740
     atom  132 type  3   force =    -0.00059671   -0.00034687    0.00053721
     atom  133 type  3   force =    -0.00036088    0.00024434    0.00045678
     atom  134 type  3   force =     0.00041981    0.00028387   -0.00037187
     atom  135 type  3   force =     0.00036088   -0.00024434   -0.00045678
     atom  136 type  3   force =    -0.00041981   -0.00028387    0.00037187
     atom  137 type  3   force =     0.00006814    0.00000881    0.00008861
     atom  138 type  3   force =    -0.00009231   -0.00021441   -0.00027944
     atom  139 type  3   force =    -0.00006814   -0.00000881   -0.00008861
     atom  140 type  3   force =     0.00009231    0.00021441    0.00027944
     atom  141 type  3   force =     0.00057481   -0.00019173   -0.00013793
     atom  142 type  3   force =    -0.00059969   -0.00019313    0.00013006
     atom  143 type  3   force =    -0.00057481    0.00019173    0.00013793
     atom  144 type  3   force =     0.00059969    0.00019313   -0.00013006
     atom  145 type  3   force =    -0.00059181   -0.00015635   -0.00079353
     atom  146 type  3   force =     0.00060583   -0.00017264    0.00074372
     atom  147 type  3   force =     0.00059181    0.00015635    0.00079353
     atom  148 type  3   force =    -0.00060583    0.00017264   -0.00074372
     atom  149 type  3   force =    -0.00012092   -0.00025701    0.00105846
     atom  150 type  3   force =     0.00012832   -0.00024821   -0.00105058
     atom  151 type  3   force =     0.00012092    0.00025701   -0.00105846
     atom  152 type  3   force =    -0.00012832    0.00024821    0.00105058
     atom  153 type  3   force =    -0.00106350    0.00073467   -0.00095740
     atom  154 type  3   force =     0.00115697    0.00074594    0.00102418
     atom  155 type  3   force =     0.00106350   -0.00073467    0.00095740
     atom  156 type  3   force =    -0.00115697   -0.00074594   -0.00102418

     Total force =     0.023959     Total SCF correction =     0.000206


     Computing stress (Cartesian axis) and pressure

          total   stress  (Ry/bohr**3)                   (kbar)     P=   -3.80
  -0.00001395   0.00000019   0.00000354         -2.05      0.03      0.52
   0.00000019  -0.00003274   0.00000034          0.03     -4.82      0.05
   0.00000354   0.00000034  -0.00003085          0.52      0.05     -4.54


     Writing output data file scf.save
 
     init_run     :     82.94s CPU     85.57s WALL (       1 calls)
     electrons    :   3181.91s CPU   3287.97s WALL (       1 calls)
     forces       :     41.01s CPU     41.51s WALL (       1 calls)
     stress       :    312.89s CPU    313.50s WALL (       1 calls)

     Called by init_run:
     wfcinit      :     64.43s CPU     66.74s WALL (       1 calls)
     potinit      :      6.45s CPU      6.50s WALL (       1 calls)

     Called by electrons:
     c_bands      :   2876.44s CPU   2966.17s WALL (      20 calls)
     sum_band     :    275.92s CPU    288.34s WALL (      20 calls)
     v_of_rho     :      4.60s CPU      4.92s WALL (      21 calls)
     newd         :     12.04s CPU     15.57s WALL (      21 calls)
     PAW_pot      :     11.73s CPU     11.74s WALL (      21 calls)
     mix_rho      :      1.40s CPU      1.48s WALL (      20 calls)

     Called by c_bands:
     init_us_2    :     15.54s CPU     15.67s WALL (     172 calls)
     cegterg      :   2812.18s CPU   2901.35s WALL (      80 calls)

     Called by sum_band:
     sum_band:bec :      0.13s CPU      0.13s WALL (      80 calls)
     addusdens    :     13.01s CPU     16.32s WALL (      20 calls)

     Called by *egterg:
     h_psi        :   1494.98s CPU   1560.32s WALL (     380 calls)
     s_psi        :    331.63s CPU    331.78s WALL (     380 calls)
     g_psi        :      7.71s CPU      7.71s WALL (     296 calls)
     cdiaghg      :    129.47s CPU    129.54s WALL (     376 calls)

     Called by h_psi:
     h_psi:pot    :   1484.36s CPU   1549.37s WALL (     380 calls)
     h_psi:calbec :    336.65s CPU    337.52s WALL (     380 calls)
     vloc_psi     :    816.40s CPU    880.48s WALL (     380 calls)
     add_vuspsi   :    331.32s CPU    331.38s WALL (     380 calls)

     General routines
     calbec       :    486.48s CPU    487.71s WALL (     480 calls)
     fft          :      9.59s CPU     10.16s WALL (     297 calls)
     fftw         :    866.23s CPU    938.53s WALL (  171456 calls)
 
     Parallel routines
     fft_scatter  :    253.34s CPU    325.93s WALL (  171753 calls)
 
     PWSCF        :     1h 0m CPU        1h 2m WALL

 
   This run was terminated on:  11:44:27  19Dec2017            

=------------------------------------------------------------------------------=
   JOB DONE.
=------------------------------------------------------------------------------=
