
     Program PWSCF v.6.1 (svn rev. 13369) starts on 20Dec2017 at 12: 9:33 

     This program is part of the open-source Quantum ESPRESSO suite
     for quantum simulation of materials; please cite
         "P. Giannozzi et al., J. Phys.:Condens. Matter 21 395502 (2009);
          URL http://www.quantum-espresso.org", 
     in publications or presentations arising from this work. More details at
     http://www.quantum-espresso.org/quote

     Parallel version (MPI), running on     8 processors
     R & G space division:  proc/nbgrp/npool/nimage =       8
     Waiting for input...
     Reading input from standard input

     Current dimensions of program PWSCF are:
     Max number of different atomic species (ntypx) = 10
     Max number of k-points (npk) =  40000
     Max angular momentum in pseudopotentials (lmaxx) =  3
               file C.pbe-n-kjpaw_psl.0.1.UPF: wavefunction(s)  2P renormalized
               file N.pbe-n-kjpaw_psl.0.1.UPF: wavefunction(s)  2P renormalized
               file H.pbe-kjpaw_psl.0.1.UPF: wavefunction(s)  1S renormalized
               file O.pbe-n-kjpaw_psl.0.1.UPF: wavefunction(s)  2P renormalized

     -------------------------------------
     Parameters for Dispersion Correction:
     -------------------------------------
       atom      VdW radius       C_6     

        C          2.744         60.710
        N          2.640         42.670
        H          1.892          4.857
        O          2.536         24.284

     Subspace diagonalization in iterative solution of the eigenvalue problem:
     a serial algorithm will be used

 
     Parallelization info
     --------------------
     sticks:   dense  smooth     PW     G-vecs:    dense   smooth      PW
     Min        1023    1023    266               152071   152071   20356
     Max        1024    1024    267               152080   152080   20365
     Sum        8191    8191   2135              1216609  1216609  162891
 


     bravais-lattice index     =            0
     lattice parameter (alat)  =      16.3943  a.u.
     unit-cell volume          =    9006.4446 (a.u.)^3
     number of atoms/cell      =          144
     number of atomic types    =            4
     number of electrons       =       504.00
     number of Kohn-Sham states=          302
     kinetic-energy cutoff     =     100.0000  Ry
     charge density cutoff     =     400.0000  Ry
     convergence threshold     =      1.0E-08
     mixing beta               =       0.5000
     number of iterations used =            8  plain     mixing
     Exchange-correlation      =  SLA  PW   PBX  PBC ( 1  4  3  4 0 0)

     celldm(1)=  16.394319  celldm(2)=   0.000000  celldm(3)=   0.000000
     celldm(4)=   0.000000  celldm(5)=   0.000000  celldm(6)=   0.000000

     crystal axes: (cart. coord. in units of alat)
               a(1) = (   1.000000   0.000000   0.000000 )  
               a(2) = (   0.000000   0.957939   0.000000 )  
               a(3) = (   0.000000   0.000000   2.133710 )  

     reciprocal axes: (cart. coord. in units 2 pi/alat)
               b(1) = (  1.000000  0.000000  0.000000 )  
               b(2) = (  0.000000  1.043908  0.000000 )  
               b(3) = (  0.000000  0.000000  0.468667 )  


     PseudoPot. # 1 for  C read from file:
     /scratch/ahofstet/pseudo/C.pbe-n-kjpaw_psl.0.1.UPF
     MD5 check sum: 430fe95172b1e11ef3f8ed03bac87931
     Pseudo is Projector augmented-wave + core cor, Zval =  4.0
     Generated using "atomic" code by A. Dal Corso  v.5.0.99 svn rev. 10869
     Shape of augmentation charge: BESSEL
     Using radial grid of 1073 points,  4 beta functions with: 
                l(1) =   0
                l(2) =   0
                l(3) =   1
                l(4) =   1
     Q(r) pseudized with 0 coefficients 


     PseudoPot. # 2 for  N read from file:
     /scratch/ahofstet/pseudo/N.pbe-n-kjpaw_psl.0.1.UPF
     MD5 check sum: f73187c8b701007e77325f868c9291d7
     Pseudo is Projector augmented-wave + core cor, Zval =  5.0
     Generated using "atomic" code by A. Dal Corso  v.5.0.99 svn rev. 10869
     Shape of augmentation charge: PSQ
     Using radial grid of 1085 points,  4 beta functions with: 
                l(1) =   0
                l(2) =   0
                l(3) =   1
                l(4) =   1
     Q(r) pseudized with 0 coefficients 


     PseudoPot. # 3 for  H read from file:
     /scratch/ahofstet/pseudo/H.pbe-kjpaw_psl.0.1.UPF
     MD5 check sum: 94e484f906d9e9773b2f6e52662335b2
     Pseudo is Projector augmented-wave, Zval =  1.0
     Generated using "atomic" code by A. Dal Corso  v.5.0.99 svn rev. 10869
     Shape of augmentation charge: PSQ
     Using radial grid of  929 points,  2 beta functions with: 
                l(1) =   0
                l(2) =   0
     Q(r) pseudized with 0 coefficients 


     PseudoPot. # 4 for  O read from file:
     /scratch/ahofstet/pseudo/O.pbe-n-kjpaw_psl.0.1.UPF
     MD5 check sum: 3f94a2996a3169367d6eb21d9b593f20
     Pseudo is Projector augmented-wave + core cor, Zval =  6.0
     Generated using "atomic" code by A. Dal Corso  v.5.0.99 svn rev. 10869
     Shape of augmentation charge: BESSEL
     Using radial grid of 1095 points,  4 beta functions with: 
                l(1) =   0
                l(2) =   0
                l(3) =   1
                l(4) =   1
     Q(r) pseudized with 0 coefficients 


     atomic species   valence    mass     pseudopotential
        C              4.00    12.01070      C( 1.00)
        N              5.00    14.00670      N( 1.00)
        H              1.00     1.00794      H( 1.00)
        O              6.00    15.99940      O( 1.00)

     No symmetry found
          (note:  1 additional sym.ops. were found but ignored
           their fractional translations are incommensurate with FFT grid)


   Cartesian axes

     site n.     atom                  positions (alat units)
         1           O   tau(   1) = (   0.3330187   0.6311066   0.3523967  )
         2           O   tau(   2) = (   0.6669813   0.3268324   1.4192517  )
         3           O   tau(   3) = (   0.1670347   0.1521209   1.4192496  )
         4           O   tau(   4) = (   0.8329653   0.8058182   0.3523946  )
         5           O   tau(   5) = (   0.0321041   0.5343838   0.2489083  )
         6           O   tau(   6) = (   0.9678959   0.4235552   1.3157632  )
         7           O   tau(   7) = (   0.4679688   0.0554326   1.3157791  )
         8           O   tau(   8) = (   0.5320312   0.9025064   0.2489242  )
         9           O   tau(   9) = (   0.3112170   0.3656557   0.3053413  )
        10           O   tau(  10) = (   0.6887830   0.5922834   1.3721962  )
        11           O   tau(  11) = (   0.1888658   0.8446172   1.3721949  )
        12           O   tau(  12) = (   0.8111342   0.1133218   0.3053399  )
        13           O   tau(  13) = (   0.1061615   0.3172858   0.6759860  )
        14           O   tau(  14) = (   0.8938385   0.6406533   1.7428409  )
        15           O   tau(  15) = (   0.3939254   0.7962646   1.7428370  )
        16           O   tau(  16) = (   0.6060746   0.1616744   0.6759821  )
        17           O   tau(  17) = (   0.4700655   0.4559534   0.5023026  )
        18           O   tau(  18) = (   0.5299345   0.5019856   1.5691575  )
        19           O   tau(  19) = (   0.0300081   0.9348906   1.5691621  )
        20           O   tau(  20) = (   0.9699919   0.0230484   0.5023072  )
        21           O   tau(  21) = (   0.1273082   0.5826896   0.7221453  )
        22           O   tau(  22) = (   0.8726918   0.3752494   1.7890002  )
        23           O   tau(  23) = (   0.3727482   0.1037312   1.7889927  )
        24           O   tau(  24) = (   0.6272518   0.8542078   0.7221378  )
        25           O   tau(  25) = (   0.7885920   0.4650523   0.3253555  )
        26           O   tau(  26) = (   0.2114080   0.4928867   1.3922104  )
        27           O   tau(  27) = (   0.7114873   0.9440458   1.3921775  )
        28           O   tau(  28) = (   0.2885127   0.0138932   0.3253226  )
        29           O   tau(  29) = (   0.8494672   0.5372895   0.0792999  )
        30           O   tau(  30) = (   0.1505328   0.4206495   1.1461548  )
        31           O   tau(  31) = (   0.6505450   0.0583753   1.1461477  )
        32           O   tau(  32) = (   0.3494550   0.8995637   0.0792928  )
        33           O   tau(  33) = (   0.9338053   0.4436105   0.8172230  )
        34           O   tau(  34) = (   0.0661947   0.5143285   1.8840780  )
        35           O   tau(  35) = (   0.5662678   0.9226157   1.8840516  )
        36           O   tau(  36) = (   0.4337322   0.0353233   0.8171966  )
        37           C   tau(  37) = (   0.1997901   0.6308019   0.4519515  )
        38           C   tau(  38) = (   0.8002099   0.3271371   1.5188064  )
        39           C   tau(  39) = (   0.3002709   0.1518321   1.5188033  )
        40           C   tau(  40) = (   0.6997291   0.8061069   0.4519483  )
        41           H   tau(  41) = (   0.1482347   0.7459211   0.4442078  )
        42           H   tau(  42) = (   0.8517653   0.2120179   1.5110627  )
        43           H   tau(  43) = (   0.3518003   0.2669608   1.5110552  )
        44           H   tau(  44) = (   0.6481997   0.6909782   0.4442003  )
        45           C   tau(  45) = (   0.0882146   0.5040343   0.4017731  )
        46           C   tau(  46) = (   0.9117854   0.4539047   1.4686280  )
        47           C   tau(  47) = (   0.4118642   0.0250744   1.4686340  )
        48           C   tau(  48) = (   0.5881358   0.9328646   0.4017791  )
        49           H   tau(  49) = (   0.9882822   0.4989701   0.4791573  )
        50           H   tau(  50) = (   0.0117178   0.4589689   1.5460122  )
        51           H   tau(  51) = (   0.5117864   0.0200177   1.5460298  )
        52           H   tau(  52) = (   0.4882136   0.9379214   0.4791749  )
        53           C   tau(  53) = (   0.1777988   0.3518607   0.4039605  )
        54           C   tau(  54) = (   0.8222012   0.6060784   1.4708154  )
        55           C   tau(  55) = (   0.3222884   0.8308317   1.4708113  )
        56           C   tau(  56) = (   0.6777116   0.1271074   0.4039564  )
        57           H   tau(  57) = (   0.1092119   0.2556866   0.3594522  )
        58           H   tau(  58) = (   0.8907881   0.7022524   1.4263071  )
        59           H   tau(  59) = (   0.3908756   0.7346625   1.4262959  )
        60           H   tau(  60) = (   0.6091244   0.2232765   0.3594409  )
        61           C   tau(  61) = (   0.2352376   0.3191366   0.5689568  )
        62           C   tau(  62) = (   0.7647624   0.6388024   1.6358117  )
        63           C   tau(  63) = (   0.2648505   0.7980999   1.6358065  )
        64           C   tau(  64) = (   0.7351495   0.1598391   0.5689516  )
        65           H   tau(  65) = (   0.2859600   0.2038902   0.5755205  )
        66           H   tau(  66) = (   0.7140400   0.7540488   1.6423754  )
        67           H   tau(  67) = (   0.2141233   0.6828547   1.6423682  )
        68           H   tau(  68) = (   0.7858767   0.2750843   0.5755132  )
        69           C   tau(  69) = (   0.3489030   0.4454700   0.6147015  )
        70           C   tau(  70) = (   0.6510970   0.5124690   1.6815565  )
        71           C   tau(  71) = (   0.1511804   0.9244222   1.6815547  )
        72           C   tau(  72) = (   0.8488196   0.0335168   0.6146998  )
        73           H   tau(  73) = (   0.4030593   0.4215858   0.7264180  )
        74           H   tau(  74) = (   0.5969407   0.5363532   1.7932729  )
        75           H   tau(  75) = (   0.0970305   0.9005333   1.7932742  )
        76           H   tau(  76) = (   0.9029695   0.0574057   0.7264193  )
        77           C   tau(  77) = (   0.2571222   0.5958586   0.6172218  )
        78           C   tau(  78) = (   0.7428778   0.3620804   1.6840767  )
        79           C   tau(  79) = (   0.2429234   0.1168863   1.6840704  )
        80           C   tau(  80) = (   0.7570766   0.8410527   0.6172155  )
        81           H   tau(  81) = (   0.3262803   0.6919840   0.6613843  )
        82           H   tau(  82) = (   0.6737197   0.2659550   1.7282392  )
        83           H   tau(  83) = (   0.1737466   0.2129995   1.7282312  )
        84           H   tau(  84) = (   0.8262534   0.7449395   0.6613762  )
        85           C   tau(  85) = (   0.4083568   0.4866284   0.3536722  )
        86           C   tau(  86) = (   0.5916432   0.4713106   1.4205271  )
        87           C   tau(  87) = (   0.0917085   0.0076359   1.4205297  )
        88           C   tau(  88) = (   0.9082915   0.9503031   0.3536748  )
        89           H   tau(  89) = (   0.5055197   0.4928551   0.2732876  )
        90           H   tau(  90) = (   0.4944803   0.4650839   1.3401425  )
        91           H   tau(  91) = (  -0.0054634   0.0138515   1.3401535  )
        92           H   tau(  92) = (   1.0054634   0.9440876   0.2732985  )
        93           C   tau(  93) = (   0.8802076   0.5075974   0.2284828  )
        94           C   tau(  94) = (   0.1197924   0.4503416   1.2953377  )
        95           C   tau(  95) = (   0.6198778   0.0286556   1.2953461  )
        96           C   tau(  96) = (   0.3801222   0.9292835   0.2284912  )
        97           C   tau(  97) = (   0.7005862   0.4991430   0.0265440  )
        98           C   tau(  98) = (   0.2994138   0.4587960   1.0933989  )
        99           C   tau(  99) = (   0.7993835   0.0201938   1.0933432  )
       100           C   tau( 100) = (   0.2006165   0.9377452   0.0264883  )
       101           C   tau( 101) = (   0.6030669   0.6179489   2.1154092  )
       102           C   tau( 102) = (   0.3969331   0.3399901   1.0485542  )
       103           C   tau( 103) = (   0.8969573   0.1389752   1.0485297  )
       104           C   tau( 104) = (   0.1030427   0.8189638   2.1153847  )
       105           H   tau( 105) = (   0.6371114   0.7377805   2.1295443  )
       106           H   tau( 106) = (   0.3628886   0.2201585   1.0626894  )
       107           H   tau( 107) = (   0.8629559   0.2588176   1.0626925  )
       108           H   tau( 108) = (   0.1370441   0.6991214   2.1295474  )
       109           C   tau( 109) = (   0.4600011   0.5790181   2.0520931  )
       110           C   tau( 110) = (   0.5399989   0.3789210   0.9852382  )
       111           C   tau( 111) = (   0.0400268   0.1000149   0.9852492  )
       112           C   tau( 112) = (   0.9599732   0.8579241   2.0521042  )
       113           H   tau( 113) = (   0.3822946   0.6701561   2.0158798  )
       114           H   tau( 114) = (   0.6177054   0.2877829   0.9490248  )
       115           H   tau( 115) = (   0.1177787   0.1911337   0.9490706  )
       116           H   tau( 116) = (   0.8822213   0.7668054   2.0159255  )
       117           C   tau( 117) = (   0.4174578   0.4249430   2.0337596  )
       118           C   tau( 118) = (   0.5825422   0.5329960   0.9669047  )
       119           C   tau( 119) = (   0.0825216   0.9038659   0.9669005  )
       120           C   tau( 120) = (   0.9174784   0.0540731   2.0337555  )
       121           H   tau( 121) = (   0.3059339   0.3972977   1.9832000  )
       122           H   tau( 122) = (   0.6940661   0.5606413   0.9163451  )
       123           H   tau( 123) = (   0.1940522   0.8761943   0.9163812  )
       124           H   tau( 124) = (   0.8059478   0.0817447   1.9832361  )
       125           C   tau( 125) = (   0.5174937   0.3078507   2.0813929  )
       126           C   tau( 126) = (   0.4825063   0.6500884   1.0145379  )
       127           C   tau( 127) = (   0.9824310   0.7867986   1.0145026  )
       128           C   tau( 128) = (   0.0175690   0.1711405   2.0813575  )
       129           H   tau( 129) = (   0.4863257   0.1872422   2.0668708  )
       130           H   tau( 130) = (   0.5136743   0.7706968   1.0000158  )
       131           H   tau( 131) = (   0.0135972   0.6661844   0.9999975  )
       132           H   tau( 132) = (   0.9864028   0.2917546   2.0668525  )
       133           C   tau( 133) = (   0.6598875   0.3444372   0.0124032  )
       134           C   tau( 134) = (   0.3401125   0.6135019   1.0792581  )
       135           C   tau( 135) = (   0.8400483   0.8234184   1.0791980  )
       136           C   tau( 136) = (   0.1599517   0.1345206   0.0123431  )
       137           H   tau( 137) = (   0.7385239   0.2549339   0.0516422  )
       138           H   tau( 138) = (   0.2614761   0.7030051   1.1184972  )
       139           H   tau( 139) = (   0.7614045   0.7339256   1.1184517  )
       140           H   tau( 140) = (   0.2385955   0.2240134   0.0515968  )
       141           C   tau( 141) = (   0.0508500   0.4476590   0.7413546  )
       142           C   tau( 142) = (   0.9491500   0.5102800   1.8082095  )
       143           C   tau( 143) = (   0.4492457   0.9266504   1.8082016  )
       144           C   tau( 144) = (   0.5507543   0.0312886   0.7413466  )

     number of k points=     4
                       cart. coord. in units 2pi/alat
        k(    1) = (   0.0000000   0.0000000   0.0000000), wk =   0.3333333
        k(    2) = (   0.0000000   0.3479693   0.0000000), wk =   0.6666667
        k(    3) = (  -0.5000000   0.0000000   0.0000000), wk =   0.3333333
        k(    4) = (  -0.5000000   0.3479693   0.0000000), wk =   0.6666667

     Dense  grid:  1216609 G-vectors     FFT dimensions: ( 108, 100, 225)

     Estimated max dynamical RAM per process >    1527.40MB

     Estimated total allocated dynamical RAM >   12219.21MB

     Check: negative/imaginary core charge=   -0.000003    0.000000

     Initial potential from superposition of free atoms

     starting charge  503.99699, renormalised to  504.00000
     Starting wfc are  432 randomized atomic wfcs
     Checking if some PAW data can be deallocated... 

     total cpu time spent up to now is       57.6 secs

     per-process dynamical memory:   841.9 Mb

     Self-consistent Calculation

     iteration #  1     ecut=   100.00 Ry     beta=0.50
     Davidson diagonalization with overlap
     ethr =  1.00E-02,  avg # of iterations =  4.2

     total cpu time spent up to now is      236.5 secs

     total energy              =   -2660.27522903 Ry
     Harris-Foulkes estimate   =   -2667.28665279 Ry
     estimated scf accuracy    <      13.57947380 Ry

     iteration #  2     ecut=   100.00 Ry     beta=0.50
     Davidson diagonalization with overlap
     ethr =  2.69E-03,  avg # of iterations =  3.2

     total cpu time spent up to now is      332.6 secs

     total energy              =   -2661.42872808 Ry
     Harris-Foulkes estimate   =   -2662.43837004 Ry
     estimated scf accuracy    <       2.17150739 Ry

     iteration #  3     ecut=   100.00 Ry     beta=0.50
     Davidson diagonalization with overlap
     ethr =  4.31E-04,  avg # of iterations =  6.5

     total cpu time spent up to now is      526.7 secs

     total energy              =   -2662.48735102 Ry
     Harris-Foulkes estimate   =   -2662.94947588 Ry
     estimated scf accuracy    <       1.10936075 Ry

     iteration #  4     ecut=   100.00 Ry     beta=0.50
     Davidson diagonalization with overlap
     ethr =  2.20E-04,  avg # of iterations =  2.8

     total cpu time spent up to now is      617.1 secs

     total energy              =   -2662.50019178 Ry
     Harris-Foulkes estimate   =   -2662.61074711 Ry
     estimated scf accuracy    <       0.20700695 Ry

     iteration #  5     ecut=   100.00 Ry     beta=0.50
     Davidson diagonalization with overlap
     ethr =  4.11E-05,  avg # of iterations =  7.5

     total cpu time spent up to now is      819.3 secs

     total energy              =   -2662.63405926 Ry
     Harris-Foulkes estimate   =   -2662.71004284 Ry
     estimated scf accuracy    <       0.20594815 Ry

     iteration #  6     ecut=   100.00 Ry     beta=0.50
     Davidson diagonalization with overlap
     ethr =  4.09E-05,  avg # of iterations =  2.0

     total cpu time spent up to now is      905.9 secs

     total energy              =   -2662.60021056 Ry
     Harris-Foulkes estimate   =   -2662.64264930 Ry
     estimated scf accuracy    <       0.06888207 Ry

     iteration #  7     ecut=   100.00 Ry     beta=0.50
     Davidson diagonalization with overlap
     ethr =  1.37E-05,  avg # of iterations =  7.5

     total cpu time spent up to now is     1096.4 secs

     total energy              =   -2662.64396368 Ry
     Harris-Foulkes estimate   =   -2662.65298090 Ry
     estimated scf accuracy    <       0.03082971 Ry

     iteration #  8     ecut=   100.00 Ry     beta=0.50
     Davidson diagonalization with overlap
     ethr =  6.12E-06,  avg # of iterations =  1.0

     total cpu time spent up to now is     1180.2 secs

     total energy              =   -2662.63696200 Ry
     Harris-Foulkes estimate   =   -2662.64473905 Ry
     estimated scf accuracy    <       0.01480968 Ry

     iteration #  9     ecut=   100.00 Ry     beta=0.50
     Davidson diagonalization with overlap
     ethr =  2.94E-06,  avg # of iterations =  7.0

     total cpu time spent up to now is     1333.9 secs

     total energy              =   -2662.64315483 Ry
     Harris-Foulkes estimate   =   -2662.64356615 Ry
     estimated scf accuracy    <       0.00138024 Ry

     iteration # 10     ecut=   100.00 Ry     beta=0.50
     Davidson diagonalization with overlap
     ethr =  2.74E-07,  avg # of iterations =  2.5

     total cpu time spent up to now is     1422.4 secs

     total energy              =   -2662.64290634 Ry
     Harris-Foulkes estimate   =   -2662.64323738 Ry
     estimated scf accuracy    <       0.00057231 Ry

     iteration # 11     ecut=   100.00 Ry     beta=0.50
     Davidson diagonalization with overlap
     ethr =  1.14E-07,  avg # of iterations =  4.0

     total cpu time spent up to now is     1559.5 secs

     total energy              =   -2662.64319234 Ry
     Harris-Foulkes estimate   =   -2662.64321894 Ry
     estimated scf accuracy    <       0.00011492 Ry

     iteration # 12     ecut=   100.00 Ry     beta=0.50
     Davidson diagonalization with overlap
     ethr =  2.28E-08,  avg # of iterations =  1.5

     total cpu time spent up to now is     1645.2 secs

     total energy              =   -2662.64316433 Ry
     Harris-Foulkes estimate   =   -2662.64319637 Ry
     estimated scf accuracy    <       0.00006238 Ry

     iteration # 13     ecut=   100.00 Ry     beta=0.50
     Davidson diagonalization with overlap
     ethr =  1.24E-08,  avg # of iterations =  3.5

     total cpu time spent up to now is     1767.3 secs

     total energy              =   -2662.64318607 Ry
     Harris-Foulkes estimate   =   -2662.64318750 Ry
     estimated scf accuracy    <       0.00000438 Ry

     iteration # 14     ecut=   100.00 Ry     beta=0.50
     Davidson diagonalization with overlap
     ethr =  8.70E-10,  avg # of iterations =  3.0

     total cpu time spent up to now is     1866.8 secs

     total energy              =   -2662.64318609 Ry
     Harris-Foulkes estimate   =   -2662.64318667 Ry
     estimated scf accuracy    <       0.00000146 Ry

     iteration # 15     ecut=   100.00 Ry     beta=0.50
     Davidson diagonalization with overlap
     ethr =  2.89E-10,  avg # of iterations =  4.0

     total cpu time spent up to now is     2000.5 secs

     total energy              =   -2662.64318659 Ry
     Harris-Foulkes estimate   =   -2662.64318662 Ry
     estimated scf accuracy    <       0.00000009 Ry

     iteration # 16     ecut=   100.00 Ry     beta=0.50
     Davidson diagonalization with overlap
     ethr =  1.74E-11,  avg # of iterations =  4.8

     total cpu time spent up to now is     2131.2 secs

     total energy              =   -2662.64318660 Ry
     Harris-Foulkes estimate   =   -2662.64318662 Ry
     estimated scf accuracy    <       0.00000003 Ry

     iteration # 17     ecut=   100.00 Ry     beta=0.50
     Davidson diagonalization with overlap
     ethr =  6.79E-12,  avg # of iterations =  4.2

     total cpu time spent up to now is     2259.6 secs

     End of self-consistent calculation

          k = 0.0000 0.0000 0.0000 (151955 PWs)   bands (ev):

   -21.6988 -21.6929 -21.6751 -21.6704 -21.6029 -21.5957 -21.5941 -21.5886
   -20.9905 -20.9898 -20.9788 -20.9775 -19.5068 -19.5061 -19.5016 -19.5014
   -19.4030 -19.4029 -19.3935 -19.3932 -18.6259 -18.6230 -18.6188 -18.6167
   -18.5640 -18.5595 -18.5133 -18.5091 -18.4912 -18.4911 -18.4784 -18.4783
   -18.3914 -18.3897 -18.3569 -18.3558 -14.1188 -14.1095 -14.1067 -14.0961
   -13.9067 -13.8861 -13.8774 -13.8574 -12.1211 -12.1078 -12.0911 -12.0770
   -11.7192 -11.7173 -11.6833 -11.6829 -11.2074 -11.2018 -11.1988 -11.1691
   -11.1098 -11.0685 -11.0407 -11.0389 -10.2083 -10.2069 -10.1796 -10.1768
    -9.6366  -9.6237  -9.6067  -9.6017  -9.4054  -9.4023  -9.2678  -9.2673
    -8.9956  -8.9876  -8.9870  -8.9505  -7.9802  -7.9528  -7.8938  -7.8747
    -7.7881  -7.7360  -7.5136  -7.5041  -6.9512  -6.9465  -6.9422  -6.9294
    -6.9008  -6.8981  -6.8977  -6.8899  -6.6425  -6.6215  -6.5054  -6.4581
    -6.3964  -6.3563  -6.2911  -6.2666  -5.8128  -5.8101  -5.7971  -5.7921
    -5.7481  -5.7346  -5.7133  -5.7110  -5.4408  -5.4274  -5.3947  -5.3517
    -5.2649  -5.2080  -5.1914  -5.1446  -5.1122  -5.0971  -5.0533  -5.0208
    -4.8810  -4.8622  -4.8176  -4.7946  -4.5145  -4.4929  -4.4556  -4.3742
    -4.1511  -4.1500  -4.1275  -4.1055  -4.0787  -4.0694  -4.0618  -4.0383
    -3.9800  -3.9591  -3.9548  -3.9239  -3.8138  -3.8049  -3.7742  -3.7188
    -3.6826  -3.6418  -3.6163  -3.6131  -3.6090  -3.6066  -3.3863  -3.3772
    -3.3609  -3.3330  -3.2879  -3.2794  -3.2308  -3.2067  -3.1525  -3.0951
    -2.9692  -2.9682  -2.8949  -2.8791  -2.8429  -2.8045  -2.6196  -2.6111
    -2.5991  -2.5890  -2.5278  -2.5040  -2.4339  -2.4236  -2.3414  -2.3338
    -2.3258  -2.3232  -2.2902  -2.2896  -2.1941  -2.1739  -1.8665  -1.8518
    -1.6749  -1.6434  -1.5449  -1.5157  -1.4684  -1.4453  -1.4202  -1.3354
    -1.3268  -1.3114  -1.2605  -1.2417  -1.2189  -1.2108  -1.1773  -1.1555
    -1.1380  -1.0908  -1.0709  -1.0577  -0.9372  -0.9323  -0.9206  -0.9022
    -0.6428  -0.6350  -0.5851  -0.5841  -0.5434  -0.5314  -0.5266  -0.5175
    -0.4985  -0.4723  -0.4131  -0.3724  -0.3483  -0.3385  -0.1664  -0.1363
     0.0992   0.1716   0.1841   0.2080   0.2124   0.2240   0.2786   0.3009
     0.3872   0.3934   0.5746   0.5790   0.7035   0.7158   0.8202   0.8208
     1.0824   1.0854   1.0909   1.0973   1.1404   1.1518   1.1690   1.1851
     1.2438   1.2554   1.2942   1.2978   6.0139   6.0241   6.0598   6.0916
     6.1520   6.1715   6.2636   6.2844   6.5264   6.5398   6.5731   6.6142
     6.8434   6.8639   6.9348   6.9905   7.0717   7.1025   7.1852   7.2313
     7.4697   7.4705   7.6426   7.8183   8.1585   8.1755   8.2107   8.2856
     8.3071   8.3388   8.5378   8.6209   8.7046   8.7645   8.9067   8.9287
     8.9528   9.0413   9.1625   9.1958   9.3132   9.3842   9.3843   9.3896
     9.4239   9.4773   9.4967   9.5896   9.6077   9.6280

          k = 0.0000 0.3480 0.0000 (152044 PWs)   bands (ev):

   -21.6927 -21.6871 -21.6809 -21.6758 -21.6009 -21.5972 -21.5928 -21.5899
   -20.9886 -20.9878 -20.9816 -20.9806 -19.5060 -19.5056 -19.5023 -19.5020
   -19.4013 -19.4013 -19.3954 -19.3953 -18.6259 -18.6242 -18.6186 -18.6172
   -18.5607 -18.5568 -18.5378 -18.5345 -18.4884 -18.4884 -18.4655 -18.4651
   -18.3786 -18.3772 -18.3613 -18.3601 -14.1163 -14.1117 -14.1036 -14.0983
   -13.9029 -13.8933 -13.8713 -13.8620 -12.1200 -12.1139 -12.0870 -12.0804
   -11.7099 -11.7080 -11.6916 -11.6908 -11.2051 -11.1927 -11.1669 -11.1590
   -11.1126 -11.0912 -11.0586 -11.0574 -10.2028 -10.2011 -10.1857 -10.1833
    -9.6332  -9.6267  -9.6055  -9.6031  -9.3701  -9.3695  -9.3020  -9.3015
    -8.9949  -8.9884  -8.9795  -8.9640  -7.9374  -7.9199  -7.8918  -7.8861
    -7.7452  -7.7064  -7.5953  -7.5785  -6.9788  -6.9763  -6.9221  -6.9194
    -6.9158  -6.9117  -6.8705  -6.8674  -6.5775  -6.5684  -6.4977  -6.4776
    -6.4352  -6.4062  -6.3242  -6.3097  -5.7930  -5.7921  -5.7822  -5.7787
    -5.7243  -5.7202  -5.7041  -5.7018  -5.4210  -5.4112  -5.3607  -5.3315
    -5.2587  -5.2525  -5.2110  -5.1992  -5.1618  -5.1585  -4.9524  -4.9201
    -4.8654  -4.8533  -4.8121  -4.7937  -4.5444  -4.5290  -4.4715  -4.4390
    -4.1660  -4.1645  -4.1342  -4.1253  -4.0879  -4.0780  -4.0318  -4.0304
    -3.9285  -3.8997  -3.8772  -3.8646  -3.8636  -3.8113  -3.7666  -3.6869
    -3.6829  -3.6720  -3.6464  -3.6152  -3.5795  -3.5323  -3.4469  -3.3960
    -3.3653  -3.3628  -3.3158  -3.2939  -3.2508  -3.2026  -3.1844  -3.1654
    -3.0368  -3.0076  -2.9248  -2.9016  -2.7548  -2.7261  -2.6558  -2.6510
    -2.5785  -2.5703  -2.5359  -2.4784  -2.4307  -2.3959  -2.3789  -2.3771
    -2.3153  -2.3066  -2.2539  -2.2526  -2.1266  -2.1085  -1.9416  -1.9335
    -1.6764  -1.6479  -1.5265  -1.5175  -1.4640  -1.4308  -1.4252  -1.3909
    -1.3403  -1.3256  -1.2492  -1.2358  -1.1967  -1.1959  -1.1668  -1.1435
    -1.0955  -1.0936  -1.0445  -1.0223  -0.9963  -0.9581  -0.9176  -0.8749
    -0.6345  -0.6288  -0.6099  -0.5620  -0.5594  -0.5360  -0.5325  -0.5312
    -0.5031  -0.4899  -0.4135  -0.3809  -0.3146  -0.3019  -0.2085  -0.1807
     0.1619   0.1731   0.1905   0.2008   0.2286   0.2400   0.2576   0.2690
     0.5085   0.5107   0.6034   0.6109   0.6715   0.6854   0.7605   0.7651
     1.0555   1.0642   1.0885   1.0904   1.1014   1.1038   1.1316   1.1390
     1.2579   1.2642   1.2965   1.3000   6.0307   6.0310   6.1092   6.1320
     6.1806   6.1809   6.1942   6.2078   6.5256   6.5339   6.5953   6.6159
     6.8674   6.8804   6.9279   6.9519   7.2049   7.2304   7.3171   7.3442
     7.5717   7.6832   7.8158   7.9500   8.0351   8.0465   8.1654   8.2096
     8.3945   8.4209   8.5774   8.6069   8.6891   8.7804   8.8582   8.9558
     9.0199   9.0311   9.0932   9.1156   9.1884   9.2217   9.2932   9.2970
     9.4018   9.4567   9.5131   9.5676   9.6202   9.6675

          k =-0.5000 0.0000 0.0000 (152052 PWs)   bands (ev):

   -21.6857 -21.6855 -21.6805 -21.6802 -21.5986 -21.5980 -21.5923 -21.5917
   -20.9884 -20.9878 -20.9874 -20.9868 -19.5036 -19.5032 -19.5031 -19.5027
   -19.3990 -19.3990 -19.3975 -19.3975 -18.6224 -18.6209 -18.6192 -18.6176
   -18.5248 -18.5227 -18.5208 -18.5187 -18.4844 -18.4843 -18.4835 -18.4834
   -18.3896 -18.3884 -18.3878 -18.3865 -14.1390 -14.1384 -14.1287 -14.1281
   -13.8673 -13.8668 -13.8504 -13.8499 -12.1008 -12.1005 -12.0803 -12.0799
   -11.7011 -11.7007 -11.7002 -11.6998 -11.1808 -11.1803 -11.1709 -11.1704
   -11.0956 -11.0955 -11.0844 -11.0843 -10.2046 -10.2037 -10.1960 -10.1952
    -9.6375  -9.6371  -9.6168  -9.6164  -9.3382  -9.3378  -9.3370  -9.3365
    -8.9786  -8.9783  -8.9525  -8.9522  -7.9195  -7.9188  -7.8936  -7.8928
    -7.6662  -7.6660  -7.6573  -7.6573  -6.9410  -6.9408  -6.9355  -6.9353
    -6.8951  -6.8948  -6.8869  -6.8866  -6.5666  -6.5664  -6.5459  -6.5456
    -6.3785  -6.3783  -6.3368  -6.3367  -5.7987  -5.7985  -5.7907  -5.7904
    -5.7338  -5.7336  -5.7227  -5.7224  -5.3354  -5.3353  -5.3090  -5.3088
    -5.2454  -5.2451  -5.1860  -5.1859  -5.0660  -5.0660  -5.0204  -5.0203
    -4.8537  -4.8536  -4.8077  -4.8077  -4.5479  -4.5472  -4.5161  -4.5155
    -4.1794  -4.1792  -4.1290  -4.1288  -4.0943  -4.0942  -4.0382  -4.0382
    -3.9191  -3.9185  -3.8981  -3.8977  -3.7843  -3.7839  -3.7762  -3.7759
    -3.6709  -3.6708  -3.6412  -3.6412  -3.5541  -3.5539  -3.4777  -3.4776
    -3.3480  -3.3478  -3.3082  -3.3082  -3.2535  -3.2533  -3.1661  -3.1658
    -2.9422  -2.9420  -2.8995  -2.8992  -2.8463  -2.8461  -2.7461  -2.7460
    -2.5480  -2.5479  -2.4655  -2.4655  -2.4193  -2.4191  -2.3553  -2.3553
    -2.1824  -2.1822  -2.1662  -2.1659  -2.0630  -2.0629  -2.0544  -2.0543
    -1.6502  -1.6500  -1.5767  -1.5765  -1.4136  -1.4135  -1.3959  -1.3957
    -1.3342  -1.3342  -1.2744  -1.2741  -1.1818  -1.1815  -1.1322  -1.1319
    -1.1057  -1.1057  -1.0957  -1.0956  -1.0402  -1.0401  -0.9620  -0.9617
    -0.6339  -0.6336  -0.5699  -0.5693  -0.5477  -0.5470  -0.5248  -0.5240
    -0.4579  -0.4578  -0.4101  -0.4099  -0.2195  -0.2192  -0.1999  -0.1996
     0.1855   0.1863   0.2048   0.2057   0.2433   0.2440   0.2690   0.2697
     0.5978   0.5979   0.6188   0.6189   0.6522   0.6527   0.6696   0.6701
     1.0732   1.0737   1.0786   1.0790   1.1233   1.1233   1.1322   1.1324
     1.2794   1.2800   1.2936   1.2941   6.1406   6.1408   6.1424   6.1426
     6.1692   6.1694   6.1788   6.1790   6.5288   6.5291   6.5371   6.5374
     6.8846   6.8850   6.9513   6.9519   7.0439   7.0439   7.1001   7.1003
     7.7226   7.7228   7.8373   7.8374   8.0674   8.0675   8.2032   8.2033
     8.4519   8.4522   8.6557   8.6560   8.6865   8.6867   8.8268   8.8269
     8.9659   8.9662   9.1430   9.1434   9.2309   9.2313   9.3158   9.3163
     9.4180   9.4183   9.4652   9.4652   9.5452   9.5453

          k =-0.5000 0.3480 0.0000 (152072 PWs)   bands (ev):

   -21.6853 -21.6850 -21.6801 -21.6798 -21.5985 -21.5979 -21.5923 -21.5917
   -20.9890 -20.9884 -20.9881 -20.9874 -19.5038 -19.5034 -19.5033 -19.5029
   -19.3990 -19.3989 -19.3975 -19.3974 -18.6224 -18.6205 -18.6194 -18.6174
   -18.5365 -18.5342 -18.5334 -18.5310 -18.4753 -18.4747 -18.4745 -18.4738
   -18.3864 -18.3851 -18.3845 -18.3831 -14.1390 -14.1385 -14.1287 -14.1281
   -13.8673 -13.8668 -13.8504 -13.8499 -12.1008 -12.1005 -12.0804 -12.0801
   -11.7015 -11.7012 -11.7007 -11.7004 -11.1931 -11.1925 -11.1887 -11.1882
   -11.0811 -11.0810 -11.0677 -11.0675 -10.2057 -10.2048 -10.1978 -10.1969
    -9.6375  -9.6370  -9.6197  -9.6192  -9.3363  -9.3358  -9.3356  -9.3351
    -8.9754  -8.9750  -8.9567  -8.9563  -7.9215  -7.9208  -7.8991  -7.8984
    -7.6709  -7.6709  -7.6664  -7.6664  -6.9712  -6.9711  -6.9491  -6.9489
    -6.8899  -6.8897  -6.8506  -6.8505  -6.5474  -6.5471  -6.5280  -6.5278
    -6.3537  -6.3534  -6.3194  -6.3192  -5.8061  -5.8058  -5.8025  -5.8021
    -5.7298  -5.7294  -5.7187  -5.7183  -5.3241  -5.3240  -5.3034  -5.3032
    -5.2204  -5.2203  -5.1829  -5.1828  -5.0965  -5.0960  -5.0427  -5.0423
    -4.8480  -4.8479  -4.8279  -4.8278  -4.5657  -4.5650  -4.5321  -4.5315
    -4.1683  -4.1683  -4.1265  -4.1264  -4.0898  -4.0897  -4.0610  -4.0609
    -3.9741  -3.9738  -3.9364  -3.9362  -3.7277  -3.7275  -3.6994  -3.6993
    -3.6407  -3.6405  -3.6238  -3.6236  -3.5660  -3.5658  -3.5226  -3.5223
    -3.3883  -3.3881  -3.3403  -3.3401  -3.3031  -3.3028  -3.1972  -3.1970
    -2.9936  -2.9934  -2.9352  -2.9349  -2.7350  -2.7348  -2.7171  -2.7169
    -2.5288  -2.5283  -2.4499  -2.4497  -2.4110  -2.4106  -2.3562  -2.3560
    -2.1488  -2.1485  -2.1457  -2.1454  -2.0282  -2.0281  -2.0115  -2.0114
    -1.6517  -1.6514  -1.5989  -1.5986  -1.4299  -1.4296  -1.3712  -1.3709
    -1.3026  -1.3020  -1.2646  -1.2639  -1.1672  -1.1669  -1.1414  -1.1411
    -1.1027  -1.1026  -1.0761  -1.0759  -1.0466  -1.0465  -0.9944  -0.9943
    -0.6151  -0.6147  -0.5968  -0.5961  -0.5375  -0.5369  -0.5268  -0.5261
    -0.4762  -0.4760  -0.4535  -0.4533  -0.2414  -0.2409  -0.2329  -0.2327
     0.1966   0.1972   0.2215   0.2220   0.2400   0.2405   0.2612   0.2618
     0.5354   0.5355   0.5447   0.5449   0.7251   0.7254   0.7313   0.7316
     1.0625   1.0631   1.0722   1.0726   1.1008   1.1010   1.1110   1.1111
     1.2864   1.2869   1.2966   1.2971   6.1216   6.1222   6.1315   6.1320
     6.1878   6.1879   6.2049   6.2051   6.5338   6.5345   6.5450   6.5457
     6.9001   6.9007   6.9378   6.9384   7.1461   7.1462   7.2244   7.2245
     7.7751   7.7753   7.9229   7.9230   8.0264   8.0266   8.1634   8.1637
     8.5490   8.5493   8.7315   8.7318   8.7969   8.7969   8.9226   8.9230
     8.9617   8.9619   9.1561   9.1563   9.2293   9.2298   9.3021   9.3024
     9.4002   9.4004   9.4169   9.4171   9.6192   9.6193

     highest occupied, lowest unoccupied level (ev):     1.3000    6.0139

!    total energy              =   -2662.64318661 Ry
     Harris-Foulkes estimate   =   -2662.64318661 Ry
     estimated scf accuracy    <          4.6E-09 Ry

     total all-electron energy =    -10046.977190 Ry

     The total energy is the sum of the following terms:

     one-electron contribution =   -1570.50262308 Ry
     hartree contribution      =     997.42365822 Ry
     xc contribution           =    -549.88910488 Ry
     ewald contribution        =    -797.33123545 Ry
     Dispersion Correction     =      -0.71694059 Ry
     one-center paw contrib.   =    -741.62694083 Ry

     convergence has been achieved in  17 iterations

     Forces acting on atoms (cartesian axes, Ry/au):

     atom    1 type  4   force =    -0.00090278    0.00106242   -0.00034890
     atom    2 type  4   force =     0.00090252   -0.00106245   -0.00035142
     atom    3 type  4   force =     0.00090997    0.00106196   -0.00036419
     atom    4 type  4   force =    -0.00091049   -0.00106162   -0.00036151
     atom    5 type  4   force =    -0.00056147   -0.00030567   -0.00049698
     atom    6 type  4   force =     0.00056322    0.00030549   -0.00049974
     atom    7 type  4   force =     0.00063135   -0.00032095   -0.00046467
     atom    8 type  4   force =    -0.00063010    0.00032133   -0.00046177
     atom    9 type  4   force =     0.00017663   -0.00064962    0.00030304
     atom   10 type  4   force =    -0.00017722    0.00064973    0.00030393
     atom   11 type  4   force =    -0.00018126   -0.00063975    0.00029716
     atom   12 type  4   force =     0.00018054    0.00063949    0.00029635
     atom   13 type  4   force =     0.00007908   -0.00036254    0.00005257
     atom   14 type  4   force =    -0.00007926    0.00036211    0.00005164
     atom   15 type  4   force =    -0.00002486   -0.00035982    0.00007467
     atom   16 type  4   force =     0.00002524    0.00035883    0.00007546
     atom   17 type  4   force =     0.00055279   -0.00002749    0.00029359
     atom   18 type  4   force =    -0.00055198    0.00002746    0.00029312
     atom   19 type  4   force =    -0.00055379   -0.00002981    0.00028380
     atom   20 type  4   force =     0.00055456    0.00002986    0.00028424
     atom   21 type  4   force =    -0.00010900    0.00008845    0.00006893
     atom   22 type  4   force =     0.00010877   -0.00008780    0.00006793
     atom   23 type  4   force =     0.00014177    0.00009111    0.00009563
     atom   24 type  4   force =    -0.00014165   -0.00009055    0.00009607
     atom   25 type  4   force =    -0.00000626   -0.00072189    0.00023830
     atom   26 type  4   force =     0.00000659    0.00072218    0.00023635
     atom   27 type  4   force =     0.00047335   -0.00091933    0.00068346
     atom   28 type  4   force =    -0.00047307    0.00091907    0.00068565
     atom   29 type  4   force =     0.00005492   -0.00025445   -0.00054869
     atom   30 type  4   force =    -0.00005350    0.00025413   -0.00054993
     atom   31 type  4   force =    -0.00000556   -0.00028127   -0.00051599
     atom   32 type  4   force =     0.00000760    0.00028110   -0.00051557
     atom   33 type  4   force =     0.00005449    0.00011922    0.00023653
     atom   34 type  4   force =    -0.00005411   -0.00011910    0.00023383
     atom   35 type  4   force =     0.00052702    0.00010549    0.00059635
     atom   36 type  4   force =    -0.00052766   -0.00010547    0.00059985
     atom   37 type  1   force =     0.00028764    0.00040889   -0.00061591
     atom   38 type  1   force =    -0.00028753   -0.00040896   -0.00060489
     atom   39 type  1   force =    -0.00040820    0.00040597   -0.00057124
     atom   40 type  1   force =     0.00040839   -0.00040592   -0.00058213
     atom   41 type  3   force =     0.00030237   -0.00065731   -0.00024491
     atom   42 type  3   force =    -0.00030238    0.00065728   -0.00024512
     atom   43 type  3   force =    -0.00028587   -0.00065502   -0.00023945
     atom   44 type  3   force =     0.00028583    0.00065501   -0.00023922
     atom   45 type  1   force =    -0.00070399   -0.00038816    0.00030948
     atom   46 type  1   force =     0.00070264    0.00038904    0.00028350
     atom   47 type  1   force =     0.00062505   -0.00038522    0.00026566
     atom   48 type  1   force =    -0.00062646    0.00038440    0.00029167
     atom   49 type  3   force =     0.00127694   -0.00007429   -0.00063343
     atom   50 type  3   force =    -0.00127702    0.00007430   -0.00063337
     atom   51 type  3   force =    -0.00126333   -0.00007141   -0.00063239
     atom   52 type  3   force =     0.00126330    0.00007144   -0.00063246
     atom   53 type  1   force =    -0.00025778   -0.00029010   -0.00030364
     atom   54 type  1   force =     0.00025715    0.00029029   -0.00030162
     atom   55 type  1   force =     0.00021109   -0.00028927   -0.00027517
     atom   56 type  1   force =    -0.00021159    0.00028902   -0.00027720
     atom   57 type  3   force =     0.00047596    0.00039823   -0.00005601
     atom   58 type  3   force =    -0.00047601   -0.00039823   -0.00005607
     atom   59 type  3   force =    -0.00046206    0.00039591   -0.00005552
     atom   60 type  3   force =     0.00046201   -0.00039589   -0.00005550
     atom   61 type  1   force =    -0.00058995    0.00077321    0.00001071
     atom   62 type  1   force =     0.00059118   -0.00077334    0.00000108
     atom   63 type  1   force =     0.00061200    0.00079835    0.00000948
     atom   64 type  1   force =    -0.00061084   -0.00079837    0.00001918
     atom   65 type  3   force =     0.00041926   -0.00044902    0.00002350
     atom   66 type  3   force =    -0.00041925    0.00044907    0.00002318
     atom   67 type  3   force =    -0.00039277   -0.00045537    0.00002695
     atom   68 type  3   force =     0.00039274    0.00045533    0.00002726
     atom   69 type  1   force =    -0.00033128   -0.00009702    0.00006589
     atom   70 type  1   force =     0.00033065    0.00009656    0.00008378
     atom   71 type  1   force =     0.00023735   -0.00009201    0.00008666
     atom   72 type  1   force =    -0.00023799    0.00009254    0.00006876
     atom   73 type  3   force =     0.00000143    0.00001340   -0.00028334
     atom   74 type  3   force =    -0.00000186   -0.00001321   -0.00028304
     atom   75 type  3   force =    -0.00000097    0.00000819   -0.00028279
     atom   76 type  3   force =     0.00000055   -0.00000835   -0.00028315
     atom   77 type  1   force =    -0.00070076   -0.00043912   -0.00014962
     atom   78 type  1   force =     0.00069946    0.00043993   -0.00016902
     atom   79 type  1   force =     0.00085082   -0.00046604   -0.00016754
     atom   80 type  1   force =    -0.00085217    0.00046543   -0.00014810
     atom   81 type  3   force =     0.00026264    0.00031552   -0.00016933
     atom   82 type  3   force =    -0.00026260   -0.00031547   -0.00016965
     atom   83 type  3   force =    -0.00024479    0.00031581   -0.00016660
     atom   84 type  3   force =     0.00024482   -0.00031585   -0.00016631
     atom   85 type  1   force =     0.00107680   -0.00088500    0.00018171
     atom   86 type  1   force =    -0.00107658    0.00088517    0.00015488
     atom   87 type  1   force =    -0.00104535   -0.00088344    0.00016220
     atom   88 type  1   force =     0.00104545    0.00088317    0.00018900
     atom   89 type  3   force =    -0.00064966   -0.00008823    0.00021977
     atom   90 type  3   force =     0.00064933    0.00008821    0.00021975
     atom   91 type  3   force =     0.00067085   -0.00008702    0.00021017
     atom   92 type  3   force =    -0.00067109    0.00008706    0.00021015
     atom   93 type  1   force =     0.00099479    0.00060644    0.00027366
     atom   94 type  1   force =    -0.00099583   -0.00060633    0.00024884
     atom   95 type  1   force =    -0.00171832    0.00084311   -0.00028472
     atom   96 type  1   force =     0.00171790   -0.00084323   -0.00025935
     atom   97 type  1   force =     0.00029187   -0.00035031    0.00038397
     atom   98 type  1   force =    -0.00029178    0.00035030    0.00039417
     atom   99 type  1   force =    -0.00007699   -0.00029035    0.00035618
     atom  100 type  1   force =     0.00007709    0.00029050    0.00034571
     atom  101 type  1   force =    -0.00027514   -0.00035862   -0.00009674
     atom  102 type  1   force =     0.00027543    0.00035872   -0.00010294
     atom  103 type  1   force =     0.00019129   -0.00035061   -0.00004746
     atom  104 type  1   force =    -0.00019072    0.00035081   -0.00004129
     atom  105 type  3   force =     0.00012532    0.00036769    0.00030012
     atom  106 type  3   force =    -0.00012535   -0.00036759    0.00030002
     atom  107 type  3   force =    -0.00013388    0.00035011    0.00028676
     atom  108 type  3   force =     0.00013387   -0.00035022    0.00028688
     atom  109 type  1   force =     0.00042518   -0.00162299    0.00021695
     atom  110 type  1   force =    -0.00042546    0.00162287    0.00021101
     atom  111 type  1   force =    -0.00038686   -0.00165278    0.00014262
     atom  112 type  1   force =     0.00038660    0.00165275    0.00014848
     atom  113 type  3   force =    -0.00084790    0.00102975   -0.00038361
     atom  114 type  3   force =     0.00084795   -0.00102974   -0.00038374
     atom  115 type  3   force =     0.00081041    0.00100549   -0.00036961
     atom  116 type  3   force =    -0.00081045   -0.00100562   -0.00036952
     atom  117 type  1   force =     0.00089933    0.00135069    0.00076883
     atom  118 type  1   force =    -0.00089935   -0.00135048    0.00076608
     atom  119 type  1   force =    -0.00098706    0.00135114    0.00082322
     atom  120 type  1   force =     0.00098690   -0.00135116    0.00082594
     atom  121 type  3   force =    -0.00010775   -0.00029606   -0.00027385
     atom  122 type  3   force =     0.00010795    0.00029609   -0.00027345
     atom  123 type  3   force =     0.00013655   -0.00031821   -0.00030080
     atom  124 type  3   force =    -0.00013654    0.00031820   -0.00030126
     atom  125 type  1   force =    -0.00004446    0.00010921   -0.00022167
     atom  126 type  1   force =     0.00004511   -0.00010924   -0.00022323
     atom  127 type  1   force =     0.00031535    0.00009592   -0.00030424
     atom  128 type  1   force =    -0.00031456   -0.00009588   -0.00030229
     atom  129 type  3   force =    -0.00042316   -0.00097756   -0.00010630
     atom  130 type  3   force =     0.00042316    0.00097736   -0.00010627
     atom  131 type  3   force =     0.00038428   -0.00095871   -0.00010853
     atom  132 type  3   force =    -0.00038426    0.00095896   -0.00010852
     atom  133 type  1   force =     0.00006231    0.00043734    0.00025223
     atom  134 type  1   force =    -0.00006281   -0.00043759    0.00024125
     atom  135 type  1   force =    -0.00017829    0.00041770    0.00030983
     atom  136 type  1   force =     0.00017779   -0.00041775    0.00032097
     atom  137 type  3   force =     0.00019565   -0.00051210    0.00055372
     atom  138 type  3   force =    -0.00019557    0.00051192    0.00055373
     atom  139 type  3   force =    -0.00019605   -0.00048287    0.00053713
     atom  140 type  3   force =     0.00019608    0.00048297    0.00053709
     atom  141 type  1   force =     0.00033293   -0.00018602    0.00025232
     atom  142 type  1   force =    -0.00033311    0.00018637    0.00024186
     atom  143 type  1   force =    -0.00107581   -0.00017161   -0.00017002
     atom  144 type  1   force =     0.00107642    0.00017131   -0.00015994

     Total force =     0.010869     Total SCF correction =     0.000184


     Computing stress (Cartesian axis) and pressure

          total   stress  (Ry/bohr**3)                   (kbar)     P=   -2.21
  -0.00002167  -0.00000012  -0.00000000         -3.19     -0.02     -0.00
  -0.00000012  -0.00000658   0.00000000         -0.02     -0.97      0.00
  -0.00000000   0.00000000  -0.00001672         -0.00      0.00     -2.46


     Writing output data file scf.save
 
     init_run     :     54.73s CPU     56.99s WALL (       1 calls)
     electrons    :   2121.73s CPU   2202.15s WALL (       1 calls)
     forces       :     29.17s CPU     29.54s WALL (       1 calls)
     stress       :    231.20s CPU    231.71s WALL (       1 calls)

     Called by init_run:
     wfcinit      :     44.87s CPU     46.92s WALL (       1 calls)
     potinit      :      3.44s CPU      3.48s WALL (       1 calls)

     Called by electrons:
     c_bands      :   1915.25s CPU   1981.50s WALL (      17 calls)
     sum_band     :    182.87s CPU    194.57s WALL (      17 calls)
     v_of_rho     :      3.19s CPU      3.45s WALL (      18 calls)
     newd         :      7.88s CPU     10.00s WALL (      18 calls)
     PAW_pot      :     11.52s CPU     11.53s WALL (      18 calls)
     mix_rho      :      0.86s CPU      1.00s WALL (      17 calls)

     Called by c_bands:
     init_us_2    :     10.26s CPU     10.35s WALL (     148 calls)
     cegterg      :   1869.53s CPU   1935.69s WALL (      68 calls)

     Called by sum_band:
     sum_band:bec :      0.10s CPU      0.10s WALL (      68 calls)
     addusdens    :      8.08s CPU     10.10s WALL (      17 calls)

     Called by *egterg:
     h_psi        :    953.69s CPU   1005.74s WALL (     349 calls)
     s_psi        :    220.18s CPU    220.19s WALL (     349 calls)
     g_psi        :      5.93s CPU      5.93s WALL (     277 calls)
     cdiaghg      :    155.10s CPU    155.22s WALL (     345 calls)

     Called by h_psi:
     h_psi:pot    :    947.52s CPU    999.47s WALL (     349 calls)
     h_psi:calbec :    216.26s CPU    216.71s WALL (     349 calls)
     vloc_psi     :    511.15s CPU    562.62s WALL (     349 calls)
     add_vuspsi   :    220.12s CPU    220.14s WALL (     349 calls)

     General routines
     calbec       :    317.65s CPU    318.28s WALL (     437 calls)
     fft          :      2.61s CPU      3.04s WALL (     258 calls)
     fftw         :    548.80s CPU    609.63s WALL (  138542 calls)
 
     Parallel routines
     fft_scatter  :     92.03s CPU    148.83s WALL (  138800 calls)
 
     PWSCF        : 40m49.35s CPU    43m 5.69s WALL

 
   This run was terminated on:  12:52:39  20Dec2017            

=------------------------------------------------------------------------------=
   JOB DONE.
=------------------------------------------------------------------------------=
