
     Program PWSCF v.6.1 (svn rev. 13369) starts on 18Dec2017 at 11:10:46 

     This program is part of the open-source Quantum ESPRESSO suite
     for quantum simulation of materials; please cite
         "P. Giannozzi et al., J. Phys.:Condens. Matter 21 395502 (2009);
          URL http://www.quantum-espresso.org", 
     in publications or presentations arising from this work. More details at
     http://www.quantum-espresso.org/quote

     Parallel version (MPI), running on     8 processors
     R & G space division:  proc/nbgrp/npool/nimage =       8
     Waiting for input...
     Reading input from standard input

     Current dimensions of program PWSCF are:
     Max number of different atomic species (ntypx) = 10
     Max number of k-points (npk) =  40000
     Max angular momentum in pseudopotentials (lmaxx) =  3
               file C.pbe-n-kjpaw_psl.0.1.UPF: wavefunction(s)  2P renormalized
               file N.pbe-n-kjpaw_psl.0.1.UPF: wavefunction(s)  2P renormalized
               file H.pbe-kjpaw_psl.0.1.UPF: wavefunction(s)  1S renormalized
               file O.pbe-n-kjpaw_psl.0.1.UPF: wavefunction(s)  2P renormalized

     -------------------------------------
     Parameters for Dispersion Correction:
     -------------------------------------
       atom      VdW radius       C_6     

        C          2.744         60.710
        N          2.640         42.670
        H          1.892          4.857
        O          2.536         24.284

     Subspace diagonalization in iterative solution of the eigenvalue problem:
     a serial algorithm will be used

 
     Parallelization info
     --------------------
     sticks:   dense  smooth     PW     G-vecs:    dense   smooth      PW
     Min        1471    1471    391               122184   122184   16765
     Max        1472    1472    392               122186   122186   16768
     Sum       11769   11769   3133               977477   977477  134129
 


     bravais-lattice index     =            0
     lattice parameter (alat)  =      20.4260  a.u.
     unit-cell volume          =    7235.5513 (a.u.)^3
     number of atoms/cell      =          104
     number of atomic types    =            4
     number of electrons       =       376.00
     number of Kohn-Sham states=          225
     kinetic-energy cutoff     =     100.0000  Ry
     charge density cutoff     =     400.0000  Ry
     convergence threshold     =      1.0E-08
     mixing beta               =       0.5000
     number of iterations used =            8  plain     mixing
     Exchange-correlation      =  SLA  PW   PBX  PBC ( 1  4  3  4 0 0)

     celldm(1)=  20.426050  celldm(2)=   0.000000  celldm(3)=   0.000000
     celldm(4)=   0.000000  celldm(5)=   0.000000  celldm(6)=   0.000000

     crystal axes: (cart. coord. in units of alat)
               a(1) = (   1.000000   0.000000   0.000000 )  
               a(2) = (   0.000000   0.886391   0.000000 )  
               a(3) = (  -0.339942   0.000000   0.957840 )  

     reciprocal axes: (cart. coord. in units 2 pi/alat)
               b(1) = (  1.000000  0.000000  0.354904 )  
               b(2) = (  0.000000  1.128170  0.000000 )  
               b(3) = (  0.000000  0.000000  1.044015 )  


     PseudoPot. # 1 for  C read from file:
     /scratch/ahofstet/pseudo/C.pbe-n-kjpaw_psl.0.1.UPF
     MD5 check sum: 430fe95172b1e11ef3f8ed03bac87931
     Pseudo is Projector augmented-wave + core cor, Zval =  4.0
     Generated using "atomic" code by A. Dal Corso  v.5.0.99 svn rev. 10869
     Shape of augmentation charge: BESSEL
     Using radial grid of 1073 points,  4 beta functions with: 
                l(1) =   0
                l(2) =   0
                l(3) =   1
                l(4) =   1
     Q(r) pseudized with 0 coefficients 


     PseudoPot. # 2 for  N read from file:
     /scratch/ahofstet/pseudo/N.pbe-n-kjpaw_psl.0.1.UPF
     MD5 check sum: f73187c8b701007e77325f868c9291d7
     Pseudo is Projector augmented-wave + core cor, Zval =  5.0
     Generated using "atomic" code by A. Dal Corso  v.5.0.99 svn rev. 10869
     Shape of augmentation charge: PSQ
     Using radial grid of 1085 points,  4 beta functions with: 
                l(1) =   0
                l(2) =   0
                l(3) =   1
                l(4) =   1
     Q(r) pseudized with 0 coefficients 


     PseudoPot. # 3 for  H read from file:
     /scratch/ahofstet/pseudo/H.pbe-kjpaw_psl.0.1.UPF
     MD5 check sum: 94e484f906d9e9773b2f6e52662335b2
     Pseudo is Projector augmented-wave, Zval =  1.0
     Generated using "atomic" code by A. Dal Corso  v.5.0.99 svn rev. 10869
     Shape of augmentation charge: PSQ
     Using radial grid of  929 points,  2 beta functions with: 
                l(1) =   0
                l(2) =   0
     Q(r) pseudized with 0 coefficients 


     PseudoPot. # 4 for  O read from file:
     /scratch/ahofstet/pseudo/O.pbe-n-kjpaw_psl.0.1.UPF
     MD5 check sum: 3f94a2996a3169367d6eb21d9b593f20
     Pseudo is Projector augmented-wave + core cor, Zval =  6.0
     Generated using "atomic" code by A. Dal Corso  v.5.0.99 svn rev. 10869
     Shape of augmentation charge: BESSEL
     Using radial grid of 1095 points,  4 beta functions with: 
                l(1) =   0
                l(2) =   0
                l(3) =   1
                l(4) =   1
     Q(r) pseudized with 0 coefficients 


     atomic species   valence    mass     pseudopotential
        C              4.00    12.01070      C( 1.00)
        N              5.00    14.00670      N( 1.00)
        H              1.00     1.00794      H( 1.00)
        O              6.00    15.99940      O( 1.00)

      2 Sym. Ops., with inversion, found
          (note:  2 additional sym.ops. were found but ignored
           their fractional translations are incommensurate with FFT grid)


   Cartesian axes

     site n.     atom                  positions (alat units)
         1           O   tau(   1) = (   0.2545917   0.2450061   0.5874148  )
         2           O   tau(   2) = (   0.2354956   0.6882016   0.8493458  )
         3           O   tau(   3) = (   0.4054665   0.6413849   0.3704256  )
         4           O   tau(   4) = (   0.4245626   0.1981894   0.1084946  )
         5           O   tau(   5) = (   0.2673031   0.0787081   0.7040442  )
         6           O   tau(   6) = (   0.2227841   0.5219036   0.7327164  )
         7           O   tau(   7) = (   0.3927550   0.8076829   0.2537962  )
         8           O   tau(   8) = (   0.4372740   0.3644874   0.2251240  )
         9           O   tau(   9) = (  -0.0474327   0.5155403   0.4815391  )
        10           O   tau(  10) = (   0.5375200   0.0723448   0.9552214  )
        11           O   tau(  11) = (   0.7074909   0.3708507   0.4763013  )
        12           O   tau(  12) = (   0.1225382   0.8140462   0.0026189  )
        13           O   tau(  13) = (  -0.1363552   0.5575025   0.6591504  )
        14           O   tau(  14) = (   0.6264425   0.1143070   0.7776102  )
        15           O   tau(  15) = (   0.7964134   0.3288885   0.2986900  )
        16           O   tau(  16) = (   0.0336157   0.7720840   0.1802302  )
        17           N   tau(  17) = (   0.4794268   0.0040154   0.5670988  )
        18           N   tau(  18) = (   0.0106605   0.4472108   0.8696617  )
        19           N   tau(  19) = (   0.1806314   0.8823756   0.3907415  )
        20           N   tau(  20) = (   0.6493977   0.4391801   0.0881787  )
        21           N   tau(  21) = (   0.5729062   0.1207597   0.4215495  )
        22           N   tau(  22) = (   0.2571229   0.5639552   0.0573707  )
        23           N   tau(  23) = (   0.0871520   0.7656313   0.5362909  )
        24           N   tau(  24) = (   0.4029353   0.3224358   0.9004697  )
        25           N   tau(  25) = (   0.3064531   0.1474230   0.6200603  )
        26           N   tau(  26) = (   0.1836342   0.5906185   0.8167002  )
        27           N   tau(  27) = (   0.3536051   0.7389680   0.3377800  )
        28           N   tau(  28) = (   0.4764240   0.2957725   0.1411401  )
        29           N   tau(  29) = (   0.7319098   0.7965467   0.3522479  )
        30           N   tau(  30) = (   0.0981193   0.3533512   0.1266723  )
        31           N   tau(  31) = (  -0.0718516   0.0898443   0.6055925  )
        32           N   tau(  32) = (   0.5619389   0.5330398   0.8311681  )
        33           N   tau(  33) = (   0.7130640   0.7278797   0.5476298  )
        34           N   tau(  34) = (  -0.2229767   0.2846843   0.8891308  )
        35           N   tau(  35) = (  -0.0530058   0.1585112   0.4102106  )
        36           N   tau(  36) = (   0.8830349   0.6017067   0.0687096  )
        37           N   tau(  37) = (  -0.1223347   0.5736789   0.5462741  )
        38           N   tau(  38) = (   0.6124219   0.1304834   0.8904865  )
        39           N   tau(  39) = (   0.7823928   0.3127121   0.4115663  )
        40           N   tau(  40) = (   0.0476362   0.7559075   0.0673539  )
        41           C   tau(  41) = (   0.4544811   0.7879571   0.6520011  )
        42           C   tau(  42) = (   0.0356061   0.3447617   0.7847595  )
        43           C   tau(  43) = (   0.2055771   0.0984338   0.3058393  )
        44           C   tau(  44) = (   0.6244520   0.5416293   0.1730809  )
        45           C   tau(  45) = (   0.5744675   0.0130989   0.4842815  )
        46           C   tau(  46) = (  -0.0843802   0.4562944   0.9524791  )
        47           C   tau(  47) = (   0.0855907   0.8732921   0.4735589  )
        48           C   tau(  48) = (   0.7444384   0.4300966   0.0053613  )
        49           C   tau(  49) = (   0.4748876   0.1839960   0.4648554  )
        50           C   tau(  50) = (   0.3551415   0.6271915   0.0140648  )
        51           C   tau(  51) = (   0.1851706   0.7023949   0.4929850  )
        52           C   tau(  52) = (   0.3049167   0.2591995   0.9437756  )
        53           C   tau(  53) = (   0.4152782   0.1143588   0.5551226  )
        54           C   tau(  54) = (   0.0748091   0.5575543   0.8816380  )
        55           C   tau(  55) = (   0.2447800   0.7720322   0.4027178  )
        56           C   tau(  56) = (   0.5852491   0.3288367   0.0762024  )
        57           C   tau(  57) = (   0.7134021   0.8664589   0.2376930  )
        58           C   tau(  58) = (   0.1166270   0.4232634   0.2412272  )
        59           C   tau(  59) = (  -0.0533439   0.0199321   0.7201474  )
        60           C   tau(  60) = (   0.5434312   0.4631276   0.7166132  )
        61           C   tau(  61) = (   0.6693437   0.8071841   0.4642608  )
        62           C   tau(  62) = (   0.1606854   0.3639886   0.0146594  )
        63           C   tau(  63) = (  -0.0092855   0.0792069   0.4935796  )
        64           C   tau(  64) = (   0.4993728   0.5224024   0.9431810  )
        65           C   tau(  65) = (   0.8037745   0.6656760   0.4869286  )
        66           C   tau(  66) = (  -0.3136872   0.2224805   0.9498320  )
        67           C   tau(  67) = (  -0.1437163   0.2207150   0.4709118  )
        68           C   tau(  68) = (   0.9737454   0.6639105   0.0080084  )
        69           C   tau(  69) = (   0.8171093   0.7056502   0.3658639  )
        70           C   tau(  70) = (   0.0129198   0.2624547   0.1130563  )
        71           C   tau(  71) = (  -0.1570511   0.1807408   0.5919765  )
        72           C   tau(  72) = (   0.6471384   0.6239363   0.8447841  )
        73           H   tau(  73) = (   0.4499737   0.2753244   0.4315702  )
        74           H   tau(  74) = (   0.3800553   0.7185198   0.0473499  )
        75           H   tau(  75) = (   0.2100844   0.6110666   0.5262701  )
        76           H   tau(  76) = (   0.2800028   0.1678711   0.9104904  )
        77           H   tau(  77) = (   0.8778726   0.6781949   0.2908569  )
        78           H   tau(  78) = (  -0.0478435   0.2349994   0.1880633  )
        79           H   tau(  79) = (  -0.2178144   0.2081961   0.6669835  )
        80           H   tau(  80) = (   0.7079017   0.6513915   0.7697771  )
        81           H   tau(  81) = (   0.5022729   0.7063655   0.6163894  )
        82           H   tau(  82) = (  -0.0121856   0.2631700   0.8203712  )
        83           H   tau(  83) = (   0.1577853   0.1800255   0.3414510  )
        84           H   tau(  84) = (   0.6722438   0.6232210   0.1374692  )
        85           H   tau(  85) = (   0.3549862   0.7717846   0.6579157  )
        86           H   tau(  86) = (   0.1351011   0.3285891   0.7788449  )
        87           H   tau(  87) = (   0.3050720   0.1146064   0.2999247  )
        88           H   tau(  88) = (   0.5249571   0.5578019   0.1789955  )
        89           H   tau(  89) = (   0.4896041   0.8123706   0.7440468  )
        90           H   tau(  90) = (   0.0004831   0.3691751   0.6927138  )
        91           H   tau(  91) = (   0.1704540   0.0740204   0.2137936  )
        92           H   tau(  92) = (   0.6595750   0.5172159   0.2651266  )
        93           H   tau(  93) = (   0.7647589   0.8193722   0.1642287  )
        94           H   tau(  94) = (   0.0652702   0.3761768   0.3146915  )
        95           H   tau(  95) = (  -0.1047007   0.0670187   0.7936117  )
        96           H   tau(  96) = (   0.5947880   0.5102142   0.6431489  )
        97           H   tau(  97) = (   0.6144027   0.8696420   0.2161747  )
        98           H   tau(  98) = (   0.2156264   0.4264465   0.2627455  )
        99           H   tau(  99) = (   0.0456555   0.0167490   0.7416657  )
       100           H   tau( 100) = (   0.4444318   0.4599445   0.6950948  )
       101           H   tau( 101) = (   0.7485181   0.0744609   0.2490620  )
       102           H   tau( 102) = (   0.0815110   0.5176563   0.2298582  )
       103           H   tau( 103) = (  -0.0884600   0.8119301   0.7087783  )
       104           H   tau( 104) = (   0.5785472   0.3687346   0.7279822  )

     number of k points=     8
                       cart. coord. in units 2pi/alat
        k(    1) = (   0.0000000   0.0000000   0.0000000), wk =   0.2500000
        k(    2) = (   0.0000000   0.0000000  -0.5220076), wk =   0.2500000
        k(    3) = (   0.0000000  -0.5640852   0.0000000), wk =   0.2500000
        k(    4) = (   0.0000000  -0.5640852  -0.5220076), wk =   0.2500000
        k(    5) = (  -0.5000000   0.0000000  -0.1774522), wk =   0.2500000
        k(    6) = (  -0.5000000   0.0000000  -0.6994599), wk =   0.2500000
        k(    7) = (  -0.5000000  -0.5640852  -0.1774522), wk =   0.2500000
        k(    8) = (  -0.5000000  -0.5640852  -0.6994599), wk =   0.2500000

     Dense  grid:   977477 G-vectors     FFT dimensions: ( 135, 120, 135)

     Estimated max dynamical RAM per process >    1140.92MB

     Estimated total allocated dynamical RAM >    9127.34MB

     Check: negative/imaginary core charge=   -0.000002    0.000000

     Initial potential from superposition of free atoms

     starting charge  375.99816, renormalised to  376.00000
     Starting wfc are  320 randomized atomic wfcs
     Checking if some PAW data can be deallocated... 

     total cpu time spent up to now is       78.1 secs

     per-process dynamical memory:   759.4 Mb

     Self-consistent Calculation

     iteration #  1     ecut=   100.00 Ry     beta=0.50
     Davidson diagonalization with overlap
     ethr =  1.00E-02,  avg # of iterations =  3.5

     total cpu time spent up to now is      307.2 secs

     total energy              =   -1968.21441095 Ry
     Harris-Foulkes estimate   =   -1973.70464522 Ry
     estimated scf accuracy    <      10.25844703 Ry

     iteration #  2     ecut=   100.00 Ry     beta=0.50
     Davidson diagonalization with overlap
     ethr =  2.73E-03,  avg # of iterations =  3.0

     total cpu time spent up to now is      449.8 secs

     total energy              =   -1969.49393462 Ry
     Harris-Foulkes estimate   =   -1970.58227778 Ry
     estimated scf accuracy    <       2.27783551 Ry

     iteration #  3     ecut=   100.00 Ry     beta=0.50
     Davidson diagonalization with overlap
     ethr =  6.06E-04,  avg # of iterations =  7.2

     total cpu time spent up to now is      666.7 secs

     total energy              =   -1970.23785838 Ry
     Harris-Foulkes estimate   =   -1970.47724800 Ry
     estimated scf accuracy    <       0.57766263 Ry

     iteration #  4     ecut=   100.00 Ry     beta=0.50
     Davidson diagonalization with overlap
     ethr =  1.54E-04,  avg # of iterations =  2.9

     total cpu time spent up to now is      791.2 secs

     total energy              =   -1970.27412254 Ry
     Harris-Foulkes estimate   =   -1970.31696689 Ry
     estimated scf accuracy    <       0.09828916 Ry

     iteration #  5     ecut=   100.00 Ry     beta=0.50
     Davidson diagonalization with overlap
     ethr =  2.61E-05,  avg # of iterations =  7.5

     total cpu time spent up to now is     1040.9 secs

     total energy              =   -1970.32187735 Ry
     Harris-Foulkes estimate   =   -1970.35334400 Ry
     estimated scf accuracy    <       0.09300088 Ry

     iteration #  6     ecut=   100.00 Ry     beta=0.50
     Davidson diagonalization with overlap
     ethr =  2.47E-05,  avg # of iterations =  2.0

     total cpu time spent up to now is     1162.7 secs

     total energy              =   -1970.32679883 Ry
     Harris-Foulkes estimate   =   -1970.33559647 Ry
     estimated scf accuracy    <       0.02569238 Ry

     iteration #  7     ecut=   100.00 Ry     beta=0.50
     Davidson diagonalization with overlap
     ethr =  6.83E-06,  avg # of iterations =  5.1

     total cpu time spent up to now is     1315.5 secs

     total energy              =   -1970.33156040 Ry
     Harris-Foulkes estimate   =   -1970.33243936 Ry
     estimated scf accuracy    <       0.00206940 Ry

     iteration #  8     ecut=   100.00 Ry     beta=0.50
     Davidson diagonalization with overlap
     ethr =  5.50E-07,  avg # of iterations =  8.2

     total cpu time spent up to now is     1551.1 secs

     total energy              =   -1970.33238308 Ry
     Harris-Foulkes estimate   =   -1970.33254922 Ry
     estimated scf accuracy    <       0.00054074 Ry

     iteration #  9     ecut=   100.00 Ry     beta=0.50
     Davidson diagonalization with overlap
     ethr =  1.44E-07,  avg # of iterations =  2.2

     total cpu time spent up to now is     1675.6 secs

     total energy              =   -1970.33239118 Ry
     Harris-Foulkes estimate   =   -1970.33249735 Ry
     estimated scf accuracy    <       0.00030198 Ry

     iteration # 10     ecut=   100.00 Ry     beta=0.50
     Davidson diagonalization with overlap
     ethr =  8.03E-08,  avg # of iterations =  3.0

     total cpu time spent up to now is     1814.7 secs

     total energy              =   -1970.33245452 Ry
     Harris-Foulkes estimate   =   -1970.33246139 Ry
     estimated scf accuracy    <       0.00001833 Ry

     iteration # 11     ecut=   100.00 Ry     beta=0.50
     Davidson diagonalization with overlap
     ethr =  4.87E-09,  avg # of iterations =  4.0

     total cpu time spent up to now is     2038.9 secs

     total energy              =   -1970.33246354 Ry
     Harris-Foulkes estimate   =   -1970.33246691 Ry
     estimated scf accuracy    <       0.00000886 Ry

     iteration # 12     ecut=   100.00 Ry     beta=0.50
     Davidson diagonalization with overlap
     ethr =  2.36E-09,  avg # of iterations =  2.0

     total cpu time spent up to now is     2159.2 secs

     total energy              =   -1970.33246422 Ry
     Harris-Foulkes estimate   =   -1970.33246480 Ry
     estimated scf accuracy    <       0.00000196 Ry

     iteration # 13     ecut=   100.00 Ry     beta=0.50
     Davidson diagonalization with overlap
     ethr =  5.22E-10,  avg # of iterations =  4.0

     total cpu time spent up to now is     2340.7 secs

     total energy              =   -1970.33246501 Ry
     Harris-Foulkes estimate   =   -1970.33246514 Ry
     estimated scf accuracy    <       0.00000040 Ry

     iteration # 14     ecut=   100.00 Ry     beta=0.50
     Davidson diagonalization with overlap
     ethr =  1.07E-10,  avg # of iterations =  2.8

     total cpu time spent up to now is     2468.9 secs

     total energy              =   -1970.33246507 Ry
     Harris-Foulkes estimate   =   -1970.33246509 Ry
     estimated scf accuracy    <       0.00000009 Ry

     iteration # 15     ecut=   100.00 Ry     beta=0.50
     Davidson diagonalization with overlap
     ethr =  2.39E-11,  avg # of iterations =  3.9

     total cpu time spent up to now is     2633.0 secs

     total energy              =   -1970.33246508 Ry
     Harris-Foulkes estimate   =   -1970.33246509 Ry
     estimated scf accuracy    <       0.00000003 Ry

     iteration # 16     ecut=   100.00 Ry     beta=0.50
     Davidson diagonalization with overlap
     ethr =  7.28E-12,  avg # of iterations =  3.0

     total cpu time spent up to now is     2757.6 secs

     End of self-consistent calculation

          k = 0.0000 0.0000 0.0000 (122183 PWs)   bands (ev):

   -23.9298 -23.9253 -23.9225 -23.9203 -23.9018 -23.9008 -23.8369 -23.8360
   -19.7866 -19.7816 -19.7505 -19.7421 -19.4698 -19.4600 -19.4558 -19.4414
   -19.4109 -19.4004 -19.3989 -19.3985 -19.3393 -19.3385 -19.3377 -19.3238
   -16.3095 -16.2944 -16.2778 -16.2490 -15.9697 -15.9633 -15.9611 -15.9551
   -14.1083 -14.0791 -14.0734 -14.0680 -13.3761 -13.3635 -13.3318 -13.3174
   -12.0147 -11.9870 -11.9740 -11.9677 -11.5089 -11.4279 -11.4173 -11.3988
   -11.2497 -11.2070 -11.1969 -11.1743 -10.1314 -10.0882 -10.0437 -10.0082
    -9.1095  -9.0968  -9.0474  -9.0404  -8.1213  -8.0335  -8.0089  -7.9621
    -7.8024  -7.7449  -7.6312  -7.6212  -7.4336  -7.3770  -7.3671  -7.3207
    -7.0169  -6.9746  -6.9333  -6.8222  -6.8109  -6.8021  -6.7927  -6.7151
    -6.6391  -6.6240  -6.5578  -6.5383  -6.4094  -6.3942  -6.1287  -6.1224
    -6.0991  -6.0553  -5.9196  -5.9038  -5.7555  -5.7246  -5.7076  -5.6987
    -5.6307  -5.6043  -5.5252  -5.4974  -5.3929  -5.3642  -5.3332  -5.2462
    -5.1196  -5.0378  -5.0134  -4.9012  -4.8262  -4.7355  -4.6671  -4.6585
    -4.4189  -4.4105  -4.3723  -4.3594  -4.3268  -4.2989  -4.0165  -3.9872
    -3.8686  -3.8203  -3.7962  -3.7440  -3.5151  -3.4830  -3.4321  -3.3649
    -3.2266  -3.1590  -3.1394  -3.1118  -3.1058  -3.0424  -3.0406  -3.0097
    -2.9497  -2.8246  -2.7556  -2.7415  -0.9887  -0.9756  -0.9639  -0.9024
    -0.8674  -0.8479  -0.8102  -0.7951  -0.7880  -0.7808  -0.7637  -0.7220
    -0.7154  -0.7062  -0.6455  -0.6322  -0.6163  -0.5866  -0.5860  -0.5555
    -0.5127  -0.5055  -0.4525  -0.4182  -0.4164  -0.4138  -0.3983  -0.3027
    -0.2646  -0.2533  -0.2335  -0.2127  -0.1622  -0.1541  -0.1137  -0.0894
     0.0802   0.1139   0.1160   0.1230   0.1257   0.1471   0.1833   0.1916
     0.8637   0.9451   1.0092   1.0276   3.1791   3.2729   3.3635   3.4074
     3.5268   3.5468   3.6205   3.7755   4.9664   4.9918   5.0120   5.0698
     6.6679   6.7325   6.9262   6.9500   6.9892   7.0775   7.0842   7.1183
     7.2285   7.2447   7.2473   7.4704   7.6199   7.7398   7.8917   8.0176
     8.0633   8.1277   8.1737   8.3018   8.3021   8.3842   8.6338   8.6961
     8.7027

          k = 0.0000 0.0000-0.5220 (122176 PWs)   bands (ev):

   -23.9279 -23.9278 -23.9212 -23.9212 -23.9012 -23.9012 -23.8365 -23.8365
   -19.7843 -19.7843 -19.7464 -19.7463 -19.4667 -19.4667 -19.4465 -19.4465
   -19.4079 -19.4079 -19.3953 -19.3953 -19.3418 -19.3417 -19.3290 -19.3290
   -16.3025 -16.3025 -16.2631 -16.2631 -15.9653 -15.9653 -15.9590 -15.9590
   -14.0931 -14.0931 -14.0717 -14.0717 -13.3697 -13.3696 -13.3245 -13.3245
   -12.0081 -12.0080 -11.9629 -11.9629 -11.4711 -11.4710 -11.4083 -11.4083
   -11.2307 -11.2307 -11.1823 -11.1823 -10.0801 -10.0801 -10.0541 -10.0541
    -9.0812  -9.0811  -9.0685  -9.0685  -8.0693  -8.0693  -8.0045  -8.0045
    -7.7021  -7.7021  -7.6934  -7.6934  -7.4197  -7.4197  -7.3271  -7.3271
    -6.9629  -6.9629  -6.8745  -6.8745  -6.8272  -6.8272  -6.7331  -6.7331
    -6.6886  -6.6886  -6.5465  -6.5465  -6.3911  -6.3911  -6.1296  -6.1296
    -6.0201  -6.0201  -5.9631  -5.9631  -5.7306  -5.7306  -5.7049  -5.7049
    -5.6290  -5.6290  -5.5251  -5.5251  -5.3745  -5.3745  -5.2359  -5.2358
    -5.0449  -5.0449  -5.0053  -5.0053  -4.7964  -4.7964  -4.6862  -4.6862
    -4.4096  -4.4096  -4.3693  -4.3693  -4.1713  -4.1713  -4.1394  -4.1394
    -3.8434  -3.8434  -3.7746  -3.7746  -3.4865  -3.4864  -3.3717  -3.3717
    -3.2595  -3.2595  -3.1257  -3.1257  -3.0554  -3.0554  -2.9818  -2.9818
    -2.8850  -2.8850  -2.7638  -2.7638  -0.9517  -0.9517  -0.9084  -0.9084
    -0.8703  -0.8702  -0.7984  -0.7984  -0.7864  -0.7864  -0.7666  -0.7666
    -0.7066  -0.7065  -0.6797  -0.6797  -0.5935  -0.5935  -0.5512  -0.5512
    -0.4963  -0.4963  -0.4560  -0.4560  -0.4098  -0.4098  -0.3764  -0.3764
    -0.2526  -0.2526  -0.2074  -0.2074  -0.1704  -0.1704  -0.0984  -0.0984
     0.1096   0.1096   0.1188   0.1188   0.1527   0.1527   0.1654   0.1655
     0.8963   0.8963   1.0209   1.0209   3.2231   3.2231   3.3961   3.3961
     3.5289   3.5289   3.7032   3.7032   4.9786   4.9786   5.0400   5.0400
     6.6918   6.6919   7.0031   7.0031   7.0795   7.0795   7.1445   7.1445
     7.1764   7.1764   7.2406   7.2406   7.5627   7.5627   7.9395   7.9395
     8.0923   8.0923   8.3582   8.3583   8.6448   8.6448   8.7311   8.7311
     8.8953

          k = 0.0000-0.5641 0.0000 (122178 PWs)   bands (ev):

   -23.9276 -23.9276 -23.9214 -23.9214 -23.9012 -23.9012 -23.8366 -23.8366
   -19.7850 -19.7849 -19.7454 -19.7453 -19.4654 -19.4654 -19.4488 -19.4488
   -19.4049 -19.4049 -19.3998 -19.3998 -19.3384 -19.3383 -19.3304 -19.3303
   -16.3040 -16.3040 -16.2613 -16.2613 -15.9628 -15.9627 -15.9620 -15.9620
   -14.0845 -14.0845 -14.0793 -14.0793 -13.3532 -13.3532 -13.3441 -13.3441
   -11.9874 -11.9874 -11.9793 -11.9793 -11.4740 -11.4740 -11.4058 -11.4057
   -11.2175 -11.2174 -11.1966 -11.1966 -10.0920 -10.0920 -10.0446 -10.0446
    -9.0805  -9.0805  -9.0652  -9.0652  -8.0719  -8.0719  -8.0044  -8.0044
    -7.7565  -7.7565  -7.6492  -7.6492  -7.3826  -7.3826  -7.3200  -7.3200
    -7.0328  -7.0328  -6.8962  -6.8962  -6.8064  -6.8064  -6.6887  -6.6887
    -6.6528  -6.6528  -6.5563  -6.5563  -6.3910  -6.3909  -6.2142  -6.2142
    -6.0511  -6.0511  -5.9373  -5.9373  -5.7007  -5.7007  -5.6411  -5.6411
    -5.6160  -5.6160  -5.5889  -5.5889  -5.3282  -5.3282  -5.2968  -5.2968
    -5.0633  -5.0633  -4.9473  -4.9473  -4.7856  -4.7856  -4.6651  -4.6651
    -4.4136  -4.4136  -4.3744  -4.3744  -4.3125  -4.3125  -4.0047  -4.0047
    -3.8419  -3.8419  -3.7641  -3.7641  -3.5225  -3.5225  -3.3762  -3.3762
    -3.2237  -3.2237  -3.1579  -3.1579  -3.0585  -3.0584  -3.0012  -3.0012
    -2.8854  -2.8854  -2.7429  -2.7429  -0.9598  -0.9598  -0.9187  -0.9187
    -0.8469  -0.8469  -0.8321  -0.8321  -0.8150  -0.8150  -0.7859  -0.7859
    -0.6890  -0.6890  -0.6395  -0.6395  -0.5711  -0.5711  -0.5306  -0.5306
    -0.4779  -0.4779  -0.4399  -0.4399  -0.4088  -0.4087  -0.3947  -0.3947
    -0.3176  -0.3175  -0.1916  -0.1916  -0.1389  -0.1389  -0.1107  -0.1107
     0.0899   0.0899   0.1150   0.1150   0.1613   0.1613   0.1731   0.1731
     0.8529   0.8530   1.0550   1.0550   3.2650   3.2650   3.3463   3.3463
     3.5858   3.5858   3.6558   3.6558   4.9665   4.9665   5.0520   5.0520
     6.6803   6.6803   6.9900   6.9900   7.0602   7.0602   7.1120   7.1120
     7.1642   7.1642   7.3223   7.3223   7.5645   7.5645   7.8768   7.8768
     8.0272   8.0272   8.5076   8.5076   8.5506   8.5506   8.7641   8.7641
     8.8883

          k = 0.0000-0.5641-0.5220 (122244 PWs)   bands (ev):

   -23.9274 -23.9274 -23.9217 -23.9216 -23.9011 -23.9011 -23.8366 -23.8366
   -19.7847 -19.7847 -19.7459 -19.7458 -19.4650 -19.4650 -19.4490 -19.4490
   -19.4043 -19.4043 -19.3996 -19.3995 -19.3378 -19.3378 -19.3317 -19.3317
   -16.3006 -16.3006 -16.2650 -16.2650 -15.9627 -15.9627 -15.9617 -15.9617
   -14.0840 -14.0840 -14.0796 -14.0796 -13.3526 -13.3526 -13.3452 -13.3452
   -11.9846 -11.9846 -11.9820 -11.9820 -11.4726 -11.4725 -11.4079 -11.4079
   -11.2091 -11.2090 -11.2028 -11.2028 -10.0706 -10.0706 -10.0680 -10.0680
    -9.0786  -9.0786  -9.0674  -9.0674  -8.0686  -8.0686  -8.0037  -8.0037
    -7.7210  -7.7209  -7.6872  -7.6872  -7.4037  -7.4037  -7.3184  -7.3184
    -6.9590  -6.9590  -6.9335  -6.9334  -6.7931  -6.7931  -6.7315  -6.7315
    -6.6464  -6.6464  -6.5666  -6.5666  -6.3885  -6.3885  -6.2187  -6.2187
    -5.9844  -5.9844  -5.9687  -5.9687  -5.6811  -5.6811  -5.6741  -5.6741
    -5.6443  -5.6442  -5.6014  -5.6014  -5.3317  -5.3317  -5.2358  -5.2358
    -5.0303  -5.0303  -4.9968  -4.9968  -4.7848  -4.7847  -4.6876  -4.6876
    -4.3989  -4.3988  -4.3843  -4.3843  -4.1665  -4.1665  -4.1603  -4.1603
    -3.8256  -3.8256  -3.7912  -3.7912  -3.4715  -3.4715  -3.3808  -3.3808
    -3.2500  -3.2500  -3.1117  -3.1117  -3.1005  -3.1005  -2.9781  -2.9781
    -2.8963  -2.8963  -2.7543  -2.7543  -0.9623  -0.9623  -0.8829  -0.8829
    -0.8539  -0.8539  -0.8422  -0.8422  -0.7817  -0.7817  -0.7802  -0.7802
    -0.6895  -0.6895  -0.6455  -0.6455  -0.5408  -0.5408  -0.5268  -0.5268
    -0.4760  -0.4760  -0.4705  -0.4704  -0.4403  -0.4403  -0.3999  -0.3999
    -0.2988  -0.2988  -0.2142  -0.2142  -0.1346  -0.1346  -0.1253  -0.1253
     0.1020   0.1020   0.1167   0.1167   0.1580   0.1580   0.1596   0.1596
     0.8549   0.8549   1.0557   1.0557   3.2716   3.2716   3.3410   3.3410
     3.5996   3.5996   3.6472   3.6472   4.9894   4.9894   5.0230   5.0231
     6.6806   6.6806   7.0288   7.0288   7.1040   7.1040   7.1081   7.1081
     7.1828   7.1828   7.3853   7.3853   7.5625   7.5625   7.6394   7.6394
     8.0204   8.0204   8.4901   8.4901   8.7188   8.7189   8.7630   8.7630
     8.8510

          k =-0.5000 0.0000-0.1775 (122098 PWs)   bands (ev):

   -23.9295 -23.9252 -23.9227 -23.9206 -23.9018 -23.9007 -23.8369 -23.8360
   -19.7798 -19.7731 -19.7587 -19.7522 -19.4581 -19.4578 -19.4570 -19.4529
   -19.4097 -19.4013 -19.3986 -19.3953 -19.3458 -19.3376 -19.3301 -19.3276
   -16.3105 -16.2956 -16.2769 -16.2478 -15.9682 -15.9653 -15.9652 -15.9510
   -14.1149 -14.0935 -14.0727 -14.0452 -13.3574 -13.3556 -13.3522 -13.3274
   -11.9942 -11.9938 -11.9902 -11.9598 -11.4654 -11.4650 -11.4176 -11.4117
   -11.2361 -11.2137 -11.2073 -11.1704 -10.1145 -10.0987 -10.0342 -10.0205
    -9.1060  -9.0995  -9.0466  -9.0414  -8.0700  -8.0398  -8.0395  -7.9968
    -7.8291  -7.7134  -7.6270  -7.6258  -7.4471  -7.3658  -7.3531  -7.3162
    -7.0214  -6.9578  -6.9186  -6.8706  -6.7978  -6.7957  -6.7795  -6.7037
    -6.6691  -6.5845  -6.5808  -6.5759  -6.3973  -6.3812  -6.1256  -6.1254
    -6.1104  -6.0471  -5.9107  -5.9033  -5.7801  -5.7275  -5.6657  -5.6639
    -5.6348  -5.6271  -5.5448  -5.5133  -5.4601  -5.4176  -5.2401  -5.1943
    -5.1332  -5.0011  -4.9916  -4.9156  -4.7972  -4.7579  -4.7189  -4.6783
    -4.4180  -4.3918  -4.3564  -4.3508  -4.3262  -4.3011  -4.0182  -4.0027
    -3.8286  -3.8164  -3.7876  -3.7763  -3.5305  -3.4937  -3.4088  -3.2860
    -3.2729  -3.1896  -3.1721  -3.1598  -3.0435  -3.0407  -3.0243  -3.0172
    -2.9414  -2.8008  -2.7845  -2.7726  -1.1128  -0.9602  -0.9258  -0.9000
    -0.8656  -0.8623  -0.8521  -0.7884  -0.7833  -0.7672  -0.7635  -0.7343
    -0.7249  -0.7052  -0.6954  -0.6564  -0.6203  -0.6121  -0.5200  -0.5192
    -0.5123  -0.4975  -0.4448  -0.4359  -0.4268  -0.3647  -0.3617  -0.3524
    -0.3473  -0.2552  -0.1976  -0.1449  -0.1323  -0.0881  -0.0874  -0.0540
     0.0779   0.0899   0.1143   0.1252   0.1428   0.1666   0.1747   0.2024
     0.8739   0.9674   0.9720   0.9731   3.1500   3.2103   3.3309   3.4023
     3.5679   3.6317   3.6449   3.7307   4.9726   4.9753   5.0292   5.0385
     6.7819   6.8374   6.8613   6.8977   7.0066   7.0720   7.0753   7.1004
     7.1825   7.2379   7.3262   7.5033   7.6121   7.6456   7.6662   7.7825
     8.0975   8.1972   8.3400   8.4504   8.5593   8.6181   8.6673   8.6892
     8.7989

          k =-0.5000 0.0000-0.6995 (122142 PWs)   bands (ev):

   -23.9280 -23.9279 -23.9210 -23.9210 -23.9013 -23.9013 -23.8365 -23.8365
   -19.7766 -19.7766 -19.7555 -19.7555 -19.4584 -19.4584 -19.4544 -19.4543
   -19.4063 -19.4063 -19.3949 -19.3949 -19.3428 -19.3428 -19.3289 -19.3289
   -16.3035 -16.3035 -16.2621 -16.2621 -15.9674 -15.9674 -15.9573 -15.9573
   -14.1044 -14.1043 -14.0592 -14.0592 -13.3575 -13.3575 -13.3385 -13.3385
   -11.9974 -11.9974 -11.9716 -11.9716 -11.4455 -11.4455 -11.4356 -11.4356
   -11.2239 -11.2239 -11.1893 -11.1893 -10.0882 -10.0882 -10.0441 -10.0441
    -9.0767  -9.0767  -9.0728  -9.0728  -8.0736  -8.0736  -7.9979  -7.9979
    -7.7426  -7.7426  -7.6796  -7.6796  -7.3691  -7.3691  -7.3533  -7.3533
    -6.9889  -6.9889  -6.8733  -6.8733  -6.7695  -6.7695  -6.7288  -6.7288
    -6.6917  -6.6917  -6.5773  -6.5773  -6.3968  -6.3968  -6.1253  -6.1253
    -6.0060  -6.0060  -5.9821  -5.9821  -5.7291  -5.7291  -5.7159  -5.7159
    -5.6124  -5.6124  -5.5509  -5.5509  -5.4165  -5.4165  -5.1597  -5.1597
    -5.0554  -5.0554  -4.9644  -4.9644  -4.7890  -4.7890  -4.7377  -4.7377
    -4.4214  -4.4214  -4.3529  -4.3529  -4.1734  -4.1734  -4.1368  -4.1367
    -3.8368  -3.8368  -3.7771  -3.7770  -3.4780  -3.4779  -3.3945  -3.3945
    -3.2265  -3.2265  -3.1401  -3.1401  -3.0523  -3.0523  -2.9666  -2.9666
    -2.8839  -2.8839  -2.8000  -2.8000  -1.0117  -1.0117  -0.8910  -0.8910
    -0.8740  -0.8740  -0.8390  -0.8390  -0.7874  -0.7874  -0.7458  -0.7458
    -0.7223  -0.7223  -0.6671  -0.6671  -0.5850  -0.5849  -0.5694  -0.5694
    -0.5041  -0.5041  -0.4408  -0.4408  -0.3966  -0.3966  -0.3756  -0.3756
    -0.2828  -0.2828  -0.1691  -0.1691  -0.1152  -0.1152  -0.0657  -0.0657
     0.1086   0.1086   0.1167   0.1167   0.1396   0.1396   0.1898   0.1899
     0.9211   0.9211   0.9648   0.9648   3.1823   3.1824   3.3736   3.3736
     3.5759   3.5760   3.7136   3.7136   4.9797   4.9797   5.0273   5.0273
     6.7964   6.7964   6.9082   6.9082   7.0212   7.0212   7.0892   7.0892
     7.2438   7.2438   7.3569   7.3569   7.5637   7.5637   7.7828   7.7828
     8.1408   8.1408   8.4092   8.4092   8.5382   8.5384   8.7379   8.7380
     8.7984

          k =-0.5000-0.5641-0.1775 (122232 PWs)   bands (ev):

   -23.9274 -23.9274 -23.9216 -23.9216 -23.9011 -23.9011 -23.8366 -23.8366
   -19.7776 -19.7776 -19.7542 -19.7542 -19.4576 -19.4576 -19.4542 -19.4542
   -19.4060 -19.4060 -19.3994 -19.3994 -19.3368 -19.3368 -19.3321 -19.3321
   -16.3049 -16.3049 -16.2604 -16.2604 -15.9651 -15.9650 -15.9600 -15.9600
   -14.0981 -14.0981 -14.0655 -14.0654 -13.3674 -13.3674 -13.3282 -13.3282
   -12.0073 -12.0073 -11.9634 -11.9634 -11.4462 -11.4462 -11.4363 -11.4363
   -11.2157 -11.2157 -11.1933 -11.1933 -10.0890 -10.0889 -10.0464 -10.0464
    -9.0790  -9.0789  -9.0669  -9.0669  -8.0653  -8.0653  -8.0176  -8.0175
    -7.7612  -7.7612  -7.6497  -7.6497  -7.3612  -7.3612  -7.3341  -7.3341
    -7.0281  -7.0281  -6.9047  -6.9047  -6.7785  -6.7785  -6.6896  -6.6896
    -6.6676  -6.6676  -6.5446  -6.5446  -6.3918  -6.3918  -6.2370  -6.2370
    -6.0390  -6.0390  -5.9564  -5.9564  -5.7135  -5.7135  -5.6479  -5.6479
    -5.6332  -5.6332  -5.5441  -5.5441  -5.4014  -5.4014  -5.2063  -5.2063
    -5.0554  -5.0554  -4.9265  -4.9265  -4.7751  -4.7751  -4.7191  -4.7191
    -4.4187  -4.4187  -4.3539  -4.3539  -4.3132  -4.3132  -4.0081  -4.0081
    -3.8340  -3.8340  -3.7643  -3.7643  -3.5266  -3.5266  -3.3906  -3.3906
    -3.1890  -3.1890  -3.1541  -3.1541  -3.0953  -3.0953  -2.9947  -2.9947
    -2.8504  -2.8504  -2.7880  -2.7880  -1.0258  -1.0257  -0.8848  -0.8848
    -0.8557  -0.8557  -0.8462  -0.8462  -0.7945  -0.7945  -0.7660  -0.7660
    -0.7524  -0.7524  -0.6301  -0.6300  -0.5744  -0.5744  -0.5135  -0.5135
    -0.4812  -0.4812  -0.4692  -0.4691  -0.4096  -0.4096  -0.3759  -0.3759
    -0.2891  -0.2891  -0.1730  -0.1730  -0.1150  -0.1150  -0.0891  -0.0891
     0.0890   0.0890   0.1311   0.1311   0.1391   0.1392   0.1938   0.1938
     0.8759   0.8759   1.0161   1.0161   3.1427   3.1427   3.4557   3.4557
     3.5893   3.5893   3.6501   3.6502   4.9643   4.9643   5.0415   5.0415
     6.7553   6.7553   6.9071   6.9071   7.0340   7.0340   7.1258   7.1258
     7.1664   7.1664   7.5072   7.5073   7.5783   7.5783   7.8308   7.8308
     8.0645   8.0645   8.1961   8.1961   8.5681   8.5681   8.7268   8.7268
     8.8665

          k =-0.5000-0.5641-0.6995 (122224 PWs)   bands (ev):

   -23.9275 -23.9275 -23.9215 -23.9214 -23.9012 -23.9012 -23.8366 -23.8366
   -19.7771 -19.7770 -19.7551 -19.7551 -19.4575 -19.4574 -19.4541 -19.4540
   -19.4035 -19.4035 -19.4010 -19.4010 -19.3371 -19.3370 -19.3327 -19.3327
   -16.3016 -16.3016 -16.2640 -16.2640 -15.9648 -15.9648 -15.9600 -15.9600
   -14.0980 -14.0980 -14.0653 -14.0653 -13.3677 -13.3677 -13.3285 -13.3284
   -12.0066 -12.0066 -11.9637 -11.9637 -11.4424 -11.4423 -11.4422 -11.4422
   -11.2083 -11.2083 -11.1972 -11.1972 -10.0705 -10.0705 -10.0670 -10.0670
    -9.0752  -9.0752  -9.0711  -9.0711  -8.0624  -8.0624  -8.0212  -8.0212
    -7.7314  -7.7314  -7.6697  -7.6697  -7.3604  -7.3604  -7.3560  -7.3559
    -6.9485  -6.9485  -6.9399  -6.9399  -6.8361  -6.8361  -6.6980  -6.6980
    -6.6576  -6.6576  -6.5351  -6.5351  -6.3902  -6.3901  -6.2382  -6.2382
    -5.9898  -5.9898  -5.9649  -5.9649  -5.7026  -5.7026  -5.6872  -5.6872
    -5.6166  -5.6166  -5.5859  -5.5859  -5.3840  -5.3840  -5.1815  -5.1815
    -5.0161  -5.0161  -4.9898  -4.9897  -4.7752  -4.7752  -4.7279  -4.7279
    -4.3959  -4.3959  -4.3864  -4.3864  -4.1690  -4.1690  -4.1412  -4.1412
    -3.8190  -3.8190  -3.7916  -3.7916  -3.4691  -3.4691  -3.4040  -3.4040
    -3.2290  -3.2290  -3.1598  -3.1597  -3.0489  -3.0489  -2.9939  -2.9939
    -2.8580  -2.8580  -2.8032  -2.8032  -0.9951  -0.9950  -0.9250  -0.9250
    -0.8540  -0.8540  -0.8151  -0.8151  -0.8068  -0.8068  -0.7605  -0.7605
    -0.7162  -0.7162  -0.6325  -0.6325  -0.5573  -0.5573  -0.5010  -0.5010
    -0.4905  -0.4904  -0.4654  -0.4654  -0.4551  -0.4551  -0.3715  -0.3715
    -0.3147  -0.3147  -0.1778  -0.1778  -0.1126  -0.1126  -0.0990  -0.0990
     0.1071   0.1071   0.1167   0.1167   0.1481   0.1481   0.1846   0.1846
     0.8794   0.8794   1.0133   1.0133   3.1467   3.1467   3.4464   3.4464
     3.5873   3.5874   3.6708   3.6708   4.9961   4.9961   5.0059   5.0059
     6.8030   6.8030   6.8622   6.8622   7.0625   7.0626   7.0857   7.0857
     7.1864   7.1864   7.4956   7.4956   7.5137   7.5138   7.8600   7.8600
     8.0549   8.0549   8.1996   8.1996   8.6764   8.6764   8.7102   8.7102
     8.8649

     highest occupied, lowest unoccupied level (ev):     1.0557    3.1427

!    total energy              =   -1970.33246508 Ry
     Harris-Foulkes estimate   =   -1970.33246508 Ry
     estimated scf accuracy    <          5.1E-09 Ry

     total all-electron energy =     -7511.505077 Ry

     The total energy is the sum of the following terms:

     one-electron contribution =   -1187.91725926 Ry
     hartree contribution      =     739.87996435 Ry
     xc contribution           =    -403.16079587 Ry
     ewald contribution        =    -554.72416409 Ry
     Dispersion Correction     =      -0.49409794 Ry
     one-center paw contrib.   =    -563.91611227 Ry

     convergence has been achieved in  16 iterations

     Forces acting on atoms (cartesian axes, Ry/au):

     atom    1 type  4   force =    -0.00006366   -0.00054526    0.00039563
     atom    2 type  4   force =     0.00006249   -0.00054505   -0.00039448
     atom    3 type  4   force =     0.00006366    0.00054526   -0.00039563
     atom    4 type  4   force =    -0.00006249    0.00054505    0.00039448
     atom    5 type  4   force =     0.00035420    0.00020170   -0.00060697
     atom    6 type  4   force =    -0.00035317    0.00020186    0.00060509
     atom    7 type  4   force =    -0.00035420   -0.00020170    0.00060697
     atom    8 type  4   force =     0.00035317   -0.00020186   -0.00060509
     atom    9 type  4   force =    -0.00009374    0.00035316    0.00076310
     atom   10 type  4   force =     0.00008906    0.00034797   -0.00075844
     atom   11 type  4   force =     0.00009374   -0.00035316   -0.00076310
     atom   12 type  4   force =    -0.00008906   -0.00034797    0.00075844
     atom   13 type  4   force =     0.00047822    0.00006483   -0.00016296
     atom   14 type  4   force =    -0.00047822    0.00006676    0.00017127
     atom   15 type  4   force =    -0.00047822   -0.00006483    0.00016296
     atom   16 type  4   force =     0.00047822   -0.00006676   -0.00017127
     atom   17 type  2   force =     0.00042981   -0.00010474    0.00021792
     atom   18 type  2   force =    -0.00042833   -0.00010427   -0.00021674
     atom   19 type  2   force =    -0.00042981    0.00010474   -0.00021792
     atom   20 type  2   force =     0.00042833    0.00010427    0.00021674
     atom   21 type  2   force =    -0.00015308   -0.00029663   -0.00010789
     atom   22 type  2   force =     0.00015082   -0.00029870    0.00010966
     atom   23 type  2   force =     0.00015308    0.00029663    0.00010789
     atom   24 type  2   force =    -0.00015082    0.00029870   -0.00010966
     atom   25 type  2   force =    -0.00042483    0.00047496    0.00048229
     atom   26 type  2   force =     0.00042584    0.00048112   -0.00047871
     atom   27 type  2   force =     0.00042483   -0.00047496   -0.00048229
     atom   28 type  2   force =    -0.00042584   -0.00048112    0.00047871
     atom   29 type  2   force =     0.00013318   -0.00019597    0.00001801
     atom   30 type  2   force =    -0.00013077   -0.00019416   -0.00001976
     atom   31 type  2   force =    -0.00013318    0.00019597   -0.00001801
     atom   32 type  2   force =     0.00013077    0.00019416    0.00001976
     atom   33 type  2   force =     0.00063878   -0.00058832    0.00000107
     atom   34 type  2   force =    -0.00063980   -0.00059046   -0.00000325
     atom   35 type  2   force =    -0.00063878    0.00058832   -0.00000107
     atom   36 type  2   force =     0.00063980    0.00059046    0.00000325
     atom   37 type  2   force =     0.00042836   -0.00079878    0.00083225
     atom   38 type  2   force =    -0.00042442   -0.00079807   -0.00084415
     atom   39 type  2   force =    -0.00042836    0.00079878   -0.00083225
     atom   40 type  2   force =     0.00042442    0.00079807    0.00084415
     atom   41 type  1   force =     0.00008156    0.00023362   -0.00042441
     atom   42 type  1   force =    -0.00008193    0.00023289    0.00042942
     atom   43 type  1   force =    -0.00008156   -0.00023362    0.00042441
     atom   44 type  1   force =     0.00008193   -0.00023289   -0.00042942
     atom   45 type  1   force =     0.00047960    0.00035018   -0.00000725
     atom   46 type  1   force =    -0.00048251    0.00035056    0.00000233
     atom   47 type  1   force =    -0.00047960   -0.00035018    0.00000725
     atom   48 type  1   force =     0.00048251   -0.00035056   -0.00000233
     atom   49 type  1   force =    -0.00071286    0.00069025    0.00032310
     atom   50 type  1   force =     0.00071385    0.00068704   -0.00032664
     atom   51 type  1   force =     0.00071286   -0.00069025   -0.00032310
     atom   52 type  1   force =    -0.00071385   -0.00068704    0.00032664
     atom   53 type  1   force =     0.00023587   -0.00035811   -0.00017260
     atom   54 type  1   force =    -0.00023293   -0.00035761    0.00017014
     atom   55 type  1   force =    -0.00023587    0.00035811    0.00017260
     atom   56 type  1   force =     0.00023293    0.00035761   -0.00017014
     atom   57 type  1   force =    -0.00033392    0.00014870   -0.00056783
     atom   58 type  1   force =     0.00033701    0.00015023    0.00056705
     atom   59 type  1   force =     0.00033392   -0.00014870    0.00056783
     atom   60 type  1   force =    -0.00033701   -0.00015023   -0.00056705
     atom   61 type  1   force =     0.00172025    0.00102662    0.00060354
     atom   62 type  1   force =    -0.00171765    0.00102745   -0.00060353
     atom   63 type  1   force =    -0.00172025   -0.00102662   -0.00060354
     atom   64 type  1   force =     0.00171765   -0.00102745    0.00060353
     atom   65 type  1   force =    -0.00070859   -0.00061793    0.00044170
     atom   66 type  1   force =     0.00071210   -0.00061762   -0.00044745
     atom   67 type  1   force =     0.00070859    0.00061793   -0.00044170
     atom   68 type  1   force =    -0.00071210    0.00061762    0.00044745
     atom   69 type  1   force =     0.00033627    0.00020310   -0.00014063
     atom   70 type  1   force =    -0.00033505    0.00020318    0.00013646
     atom   71 type  1   force =    -0.00033627   -0.00020310    0.00014063
     atom   72 type  1   force =     0.00033505   -0.00020318   -0.00013646
     atom   73 type  3   force =    -0.00055638    0.00014907    0.00019293
     atom   74 type  3   force =     0.00055715    0.00015026   -0.00019243
     atom   75 type  3   force =     0.00055638   -0.00014907   -0.00019293
     atom   76 type  3   force =    -0.00055715   -0.00015026    0.00019243
     atom   77 type  3   force =     0.00024593   -0.00067650    0.00005243
     atom   78 type  3   force =    -0.00024631   -0.00067699   -0.00005206
     atom   79 type  3   force =    -0.00024593    0.00067650   -0.00005243
     atom   80 type  3   force =     0.00024631    0.00067699    0.00005206
     atom   81 type  3   force =    -0.00018891    0.00009483   -0.00001173
     atom   82 type  3   force =     0.00018881    0.00009451    0.00001160
     atom   83 type  3   force =     0.00018891   -0.00009483    0.00001173
     atom   84 type  3   force =    -0.00018881   -0.00009451   -0.00001160
     atom   85 type  3   force =     0.00070952   -0.00026018    0.00012225
     atom   86 type  3   force =    -0.00070974   -0.00026013   -0.00012187
     atom   87 type  3   force =    -0.00070952    0.00026018   -0.00012225
     atom   88 type  3   force =     0.00070974    0.00026013    0.00012187
     atom   89 type  3   force =    -0.00014981   -0.00039029    0.00011711
     atom   90 type  3   force =     0.00015006   -0.00039071   -0.00011691
     atom   91 type  3   force =     0.00014981    0.00039029   -0.00011711
     atom   92 type  3   force =    -0.00015006    0.00039071    0.00011691
     atom   93 type  3   force =     0.00048965   -0.00026619   -0.00016303
     atom   94 type  3   force =    -0.00048941   -0.00026610    0.00016289
     atom   95 type  3   force =    -0.00048965    0.00026619    0.00016303
     atom   96 type  3   force =     0.00048941    0.00026610   -0.00016289
     atom   97 type  3   force =    -0.00023021    0.00010351    0.00000573
     atom   98 type  3   force =     0.00022972    0.00010365   -0.00000585
     atom   99 type  3   force =     0.00023021   -0.00010351   -0.00000573
     atom  100 type  3   force =    -0.00022972   -0.00010365    0.00000585
     atom  101 type  3   force =     0.00000504   -0.00007651   -0.00022293
     atom  102 type  3   force =    -0.00000462   -0.00007628    0.00022266
     atom  103 type  3   force =    -0.00000504    0.00007651    0.00022293
     atom  104 type  3   force =     0.00000462    0.00007628   -0.00022266

     Total force =     0.007862     Total SCF correction =     0.000145


     Computing stress (Cartesian axis) and pressure

          total   stress  (Ry/bohr**3)                   (kbar)     P=   -3.40
  -0.00002493  -0.00000000   0.00000181         -3.67     -0.00      0.27
  -0.00000000  -0.00001942   0.00000000         -0.00     -2.86      0.00
   0.00000181   0.00000000  -0.00002501          0.27      0.00     -3.68


     Writing output data file scf.save
 
     init_run     :     75.26s CPU     77.40s WALL (       1 calls)
     electrons    :   2609.28s CPU   2679.71s WALL (       1 calls)
     forces       :     36.45s CPU     36.70s WALL (       1 calls)
     stress       :    166.34s CPU    166.78s WALL (       1 calls)

     Called by init_run:
     wfcinit      :     63.09s CPU     65.05s WALL (       1 calls)
     potinit      :      4.39s CPU      4.42s WALL (       1 calls)

     Called by electrons:
     c_bands      :   2353.80s CPU   2414.47s WALL (      16 calls)
     sum_band     :    239.25s CPU    247.56s WALL (      16 calls)
     v_of_rho     :      2.67s CPU      2.83s WALL (      17 calls)
     newd         :      6.22s CPU      7.53s WALL (      17 calls)
     PAW_pot      :      6.90s CPU      6.91s WALL (      17 calls)
     mix_rho      :      0.57s CPU      0.59s WALL (      16 calls)

     Called by c_bands:
     init_us_2    :      9.20s CPU      9.27s WALL (     280 calls)
     cegterg      :   2306.41s CPU   2367.02s WALL (     128 calls)

     Called by sum_band:
     sum_band:bec :      0.14s CPU      0.14s WALL (     128 calls)
     addusdens    :      6.35s CPU      7.56s WALL (      16 calls)

     Called by *egterg:
     h_psi        :   1222.49s CPU   1267.50s WALL (     651 calls)
     s_psi        :    270.56s CPU    270.56s WALL (     651 calls)
     g_psi        :      4.74s CPU      4.75s WALL (     515 calls)
     cdiaghg      :    140.07s CPU    140.15s WALL (     643 calls)

     Called by h_psi:
     h_psi:pot    :   1216.08s CPU   1260.95s WALL (     651 calls)
     h_psi:calbec :    280.72s CPU    281.17s WALL (     651 calls)
     vloc_psi     :    665.25s CPU    709.64s WALL (     651 calls)
     add_vuspsi   :    270.12s CPU    270.13s WALL (     651 calls)

     General routines
     calbec       :    422.88s CPU    423.59s WALL (     819 calls)
     fft          :      5.10s CPU      5.38s WALL (     245 calls)
     fftw         :    733.75s CPU    784.90s WALL (  189956 calls)
 
     Parallel routines
     fft_scatter  :    207.05s CPU    257.82s WALL (  190201 calls)
 
     PWSCF        : 48m21.90s CPU    50m37.21s WALL

 
   This run was terminated on:  12: 1:23  18Dec2017            

=------------------------------------------------------------------------------=
   JOB DONE.
=------------------------------------------------------------------------------=
