
     Program PWSCF v.6.1 (svn rev. 13369) starts on  4Nov2017 at  5:57:33 

     This program is part of the open-source Quantum ESPRESSO suite
     for quantum simulation of materials; please cite
         "P. Giannozzi et al., J. Phys.:Condens. Matter 21 395502 (2009);
          URL http://www.quantum-espresso.org", 
     in publications or presentations arising from this work. More details at
     http://www.quantum-espresso.org/quote

     Parallel version (MPI), running on     8 processors
     R & G space division:  proc/nbgrp/npool/nimage =       8
     Waiting for input...
     Reading input from standard input

     Current dimensions of program PWSCF are:
     Max number of different atomic species (ntypx) = 10
     Max number of k-points (npk) =  40000
     Max angular momentum in pseudopotentials (lmaxx) =  3
               file C.pbe-n-kjpaw_psl.0.1.UPF: wavefunction(s)  2P renormalized
               file N.pbe-n-kjpaw_psl.0.1.UPF: wavefunction(s)  2P renormalized
               file H.pbe-kjpaw_psl.0.1.UPF: wavefunction(s)  1S renormalized
               file O.pbe-n-kjpaw_psl.0.1.UPF: wavefunction(s)  2P renormalized

     -------------------------------------
     Parameters for Dispersion Correction:
     -------------------------------------
       atom      VdW radius       C_6     

        C          2.744         60.710
        N          2.640         42.670
        H          1.892          4.857
        O          2.536         24.284

     Subspace diagonalization in iterative solution of the eigenvalue problem:
     a serial algorithm will be used

 
     Parallelization info
     --------------------
     sticks:   dense  smooth     PW     G-vecs:    dense   smooth      PW
     Min         913     913    240               108581   108581   14678
     Max         914     914    241               108584   108584   14683
     Sum        7309    7309   1921               868655   868655  117431
 


     bravais-lattice index     =            0
     lattice parameter (alat)  =      18.6913  a.u.
     unit-cell volume          =    6430.5663 (a.u.)^3
     number of atoms/cell      =          104
     number of atomic types    =            4
     number of electrons       =       352.00
     number of Kohn-Sham states=          211
     kinetic-energy cutoff     =     100.0000  Ry
     charge density cutoff     =     400.0000  Ry
     convergence threshold     =      1.0E-08
     mixing beta               =       0.5000
     number of iterations used =            8  plain     mixing
     Exchange-correlation      =  SLA  PW   PBX  PBC ( 1  4  3  4 0 0)

     celldm(1)=  18.691281  celldm(2)=   0.000000  celldm(3)=   0.000000
     celldm(4)=   0.000000  celldm(5)=   0.000000  celldm(6)=   0.000000

     crystal axes: (cart. coord. in units of alat)
               a(1) = (   1.000000   0.000000   0.000000 )  
               a(2) = (   0.000000   0.656354   0.000000 )  
               a(3) = (   0.000000   0.000000   1.500354 )  

     reciprocal axes: (cart. coord. in units 2 pi/alat)
               b(1) = (  1.000000  0.000000  0.000000 )  
               b(2) = (  0.000000  1.523567  0.000000 )  
               b(3) = (  0.000000  0.000000  0.666509 )  


     PseudoPot. # 1 for  C read from file:
     /scratch/ahofstet/pseudo/C.pbe-n-kjpaw_psl.0.1.UPF
     MD5 check sum: 430fe95172b1e11ef3f8ed03bac87931
     Pseudo is Projector augmented-wave + core cor, Zval =  4.0
     Generated using "atomic" code by A. Dal Corso  v.5.0.99 svn rev. 10869
     Shape of augmentation charge: BESSEL
     Using radial grid of 1073 points,  4 beta functions with: 
                l(1) =   0
                l(2) =   0
                l(3) =   1
                l(4) =   1
     Q(r) pseudized with 0 coefficients 


     PseudoPot. # 2 for  N read from file:
     /scratch/ahofstet/pseudo/N.pbe-n-kjpaw_psl.0.1.UPF
     MD5 check sum: f73187c8b701007e77325f868c9291d7
     Pseudo is Projector augmented-wave + core cor, Zval =  5.0
     Generated using "atomic" code by A. Dal Corso  v.5.0.99 svn rev. 10869
     Shape of augmentation charge: PSQ
     Using radial grid of 1085 points,  4 beta functions with: 
                l(1) =   0
                l(2) =   0
                l(3) =   1
                l(4) =   1
     Q(r) pseudized with 0 coefficients 


     PseudoPot. # 3 for  H read from file:
     /scratch/ahofstet/pseudo/H.pbe-kjpaw_psl.0.1.UPF
     MD5 check sum: 94e484f906d9e9773b2f6e52662335b2
     Pseudo is Projector augmented-wave, Zval =  1.0
     Generated using "atomic" code by A. Dal Corso  v.5.0.99 svn rev. 10869
     Shape of augmentation charge: PSQ
     Using radial grid of  929 points,  2 beta functions with: 
                l(1) =   0
                l(2) =   0
     Q(r) pseudized with 0 coefficients 


     PseudoPot. # 4 for  O read from file:
     /scratch/ahofstet/pseudo/O.pbe-n-kjpaw_psl.0.1.UPF
     MD5 check sum: 3f94a2996a3169367d6eb21d9b593f20
     Pseudo is Projector augmented-wave + core cor, Zval =  6.0
     Generated using "atomic" code by A. Dal Corso  v.5.0.99 svn rev. 10869
     Shape of augmentation charge: BESSEL
     Using radial grid of 1095 points,  4 beta functions with: 
                l(1) =   0
                l(2) =   0
                l(3) =   1
                l(4) =   1
     Q(r) pseudized with 0 coefficients 


     atomic species   valence    mass     pseudopotential
        C              4.00    12.01070      C( 1.00)
        N              5.00    14.00670      N( 1.00)
        H              1.00     1.00794      H( 1.00)
        O              6.00    15.99940      O( 1.00)

      8 Sym. Ops., with inversion, found ( 6 have fractional translation)



   Cartesian axes

     site n.     atom                  positions (alat units)
         1           N   tau(   1) = (   0.4767578   0.1922844   0.3655226  )
         2           N   tau(   2) = (   0.0232422   0.4640699   1.1156995  )
         3           N   tau(   3) = (   0.9767578   0.1358928   1.1348313  )
         4           N   tau(   4) = (   0.5232422   0.5204615   0.3846543  )
         5           N   tau(   5) = (   0.5232422   0.4640699   1.1348313  )
         6           N   tau(   6) = (   0.9767578   0.1922844   0.3846543  )
         7           N   tau(   7) = (   0.0232422   0.5204615   0.3655226  )
         8           N   tau(   8) = (   0.4767578   0.1358928   1.1156995  )
         9           N   tau(   9) = (   0.3417504   0.1488921   0.3670115  )
        10           N   tau(  10) = (   0.1582496   0.5074622   1.1171884  )
        11           N   tau(  11) = (   0.8417504   0.1792850   1.1333424  )
        12           N   tau(  12) = (   0.6582496   0.4770692   0.3831654  )
        13           N   tau(  13) = (   0.6582496   0.5074622   1.1333424  )
        14           N   tau(  14) = (   0.8417504   0.1488921   0.3831654  )
        15           N   tau(  15) = (   0.1582496   0.4770692   0.3670115  )
        16           N   tau(  16) = (   0.3417504   0.1792850   1.1171884  )
        17           C   tau(  17) = (   0.2971010   0.1391408   0.2369567  )
        18           C   tau(  18) = (   0.2028990   0.5172135   0.9871336  )
        19           C   tau(  19) = (   0.7971010   0.1890363   1.2633972  )
        20           C   tau(  20) = (   0.7028990   0.4673179   0.5132202  )
        21           C   tau(  21) = (   0.7028990   0.5172135   1.2633972  )
        22           C   tau(  22) = (   0.7971010   0.1391408   0.5132202  )
        23           C   tau(  23) = (   0.2028990   0.4673179   0.2369567  )
        24           C   tau(  24) = (   0.2971010   0.1890363   0.9871336  )
        25           N   tau(  25) = (   0.4105690   0.1543525   0.1556970  )
        26           N   tau(  26) = (   0.0894310   0.5020018   0.9058739  )
        27           N   tau(  27) = (   0.9105690   0.1738246   1.3446569  )
        28           N   tau(  28) = (   0.5894310   0.4825296   0.5944800  )
        29           N   tau(  29) = (   0.5894310   0.5020018   1.3446569  )
        30           N   tau(  30) = (   0.9105690   0.1543525   0.5944800  )
        31           N   tau(  31) = (   0.0894310   0.4825296   0.1556970  )
        32           N   tau(  32) = (   0.4105690   0.1738246   0.9058739  )
        33           C   tau(  33) = (   0.5225019   0.1836943   0.2346056  )
        34           C   tau(  34) = (   0.9774981   0.4726600   0.9847826  )
        35           C   tau(  35) = (   0.0225019   0.1444828   1.2657482  )
        36           C   tau(  36) = (   0.4774981   0.5118714   0.5155713  )
        37           C   tau(  37) = (   0.4774981   0.4726600   1.2657482  )
        38           C   tau(  38) = (   0.0225019   0.1836943   0.5155713  )
        39           C   tau(  39) = (   0.9774981   0.5118714   0.2346056  )
        40           C   tau(  40) = (   0.5225019   0.1444828   0.9847826  )
        41           O   tau(  41) = (   0.1793890   0.1202641   0.1977808  )
        42           O   tau(  42) = (   0.3206110   0.5360901   0.9479577  )
        43           O   tau(  43) = (   0.6793890   0.2079130   1.3025731  )
        44           O   tau(  44) = (   0.8206110   0.4484413   0.5523961  )
        45           O   tau(  45) = (   0.8206110   0.5360901   1.3025731  )
        46           O   tau(  46) = (   0.6793890   0.1202641   0.5523961  )
        47           O   tau(  47) = (   0.3206110   0.4484413   0.1977808  )
        48           O   tau(  48) = (   0.1793890   0.2079130   0.9479577  )
        49           O   tau(  49) = (   0.6403676   0.1980036   0.1943759  )
        50           O   tau(  50) = (   0.8596324   0.4583506   0.9445528  )
        51           O   tau(  51) = (   0.1403676   0.1301735   1.3059780  )
        52           O   tau(  52) = (   0.3596324   0.5261808   0.5558011  )
        53           O   tau(  53) = (   0.3596324   0.4583506   1.3059780  )
        54           O   tau(  54) = (   0.1403676   0.1980036   0.5558011  )
        55           O   tau(  55) = (   0.8596324   0.5261808   0.1943759  )
        56           O   tau(  56) = (   0.6403676   0.1301735   0.9445528  )
        57           C   tau(  57) = (   0.4091799   0.1524229   0.0091148  )
        58           C   tau(  58) = (   0.0908201   0.5039313   0.7592917  )
        59           C   tau(  59) = (   0.9091799   0.1757542   1.4912391  )
        60           C   tau(  60) = (   0.5908201   0.4806001   0.7410621  )
        61           C   tau(  61) = (   0.5908201   0.5039313   1.4912391  )
        62           C   tau(  62) = (   0.9091799   0.1524229   0.7410621  )
        63           C   tau(  63) = (   0.0908201   0.4806001   0.0091148  )
        64           C   tau(  64) = (   0.4091799   0.1757542   0.7592917  )
        65           H   tau(  65) = (   0.5415479   0.1589710   0.4418730  )
        66           H   tau(  66) = (   0.9584521   0.4973833   1.1920499  )
        67           H   tau(  67) = (   0.0415479   0.1692061   1.0584809  )
        68           H   tau(  68) = (   0.4584521   0.4871481   0.3083040  )
        69           H   tau(  69) = (   0.4584521   0.4973833   1.0584809  )
        70           H   tau(  70) = (   0.0415479   0.1589710   0.3083040  )
        71           H   tau(  71) = (   0.9584521   0.4871481   0.4418730  )
        72           H   tau(  72) = (   0.5415479   0.1692061   1.1920499  )
        73           H   tau(  73) = (   0.2760418   0.1786515   0.4441088  )
        74           H   tau(  74) = (   0.2239582   0.4777027   1.1942857  )
        75           H   tau(  75) = (   0.7760418   0.1495256   1.0562450  )
        76           H   tau(  76) = (   0.7239582   0.5068287   0.3060681  )
        77           H   tau(  77) = (   0.7239582   0.4777027   1.0562450  )
        78           H   tau(  78) = (   0.7760418   0.1786515   0.3060681  )
        79           H   tau(  79) = (   0.2239582   0.5068287   0.4441088  )
        80           H   tau(  80) = (   0.2760418   0.1495256   1.1942857  )
        81           H   tau(  81) = (   0.5146009   0.1564345   1.4751640  )
        82           H   tau(  82) = (  -0.0146009   0.4999198   0.7249871  )
        83           H   tau(  83) = (   1.0146009   0.1717427   0.0251898  )
        84           H   tau(  84) = (   0.4853991   0.4846116   0.7753668  )
        85           H   tau(  85) = (   0.4853991   0.4999198   0.0251898  )
        86           H   tau(  86) = (   1.0146009   0.1564345   0.7753668  )
        87           H   tau(  87) = (  -0.0146009   0.4846116   1.4751640  )
        88           H   tau(  88) = (   0.5146009   0.1717427   0.7249871  )
        89           H   tau(  89) = (   0.3600880   0.0595137   1.4737963  )
        90           H   tau(  90) = (   0.1399120   0.5968405   0.7236193  )
        91           H   tau(  91) = (   0.8600880   0.2686634   0.0265576  )
        92           H   tau(  92) = (   0.6399120   0.3876909   0.7767345  )
        93           H   tau(  93) = (   0.6399120   0.5968405   0.0265576  )
        94           H   tau(  94) = (   0.8600880   0.0595137   0.7767345  )
        95           H   tau(  95) = (   0.1399120   0.3876909   1.4737963  )
        96           H   tau(  96) = (   0.3600880   0.2686634   0.7236193  )
        97           H   tau(  97) = (   0.3540840   0.2405872   1.4704387  )
        98           H   tau(  98) = (   0.1459160   0.4157670   0.7202618  )
        99           H   tau(  99) = (   0.8540840   0.0875899   0.0299152  )
       100           H   tau( 100) = (   0.6459160   0.5687644   0.7800921  )
       101           H   tau( 101) = (   0.6459160   0.4157670   0.0299152  )
       102           H   tau( 102) = (   0.8540840   0.2405872   0.7800921  )
       103           H   tau( 103) = (   0.1459160   0.5687644   1.4704387  )
       104           H   tau( 104) = (   0.3540840   0.0875899   0.7202618  )

     number of k points=     8
                       cart. coord. in units 2pi/alat
        k(    1) = (   0.0000000   0.0000000   0.0000000), wk =   0.1666667
        k(    2) = (   0.0000000   0.0000000  -0.3332547), wk =   0.1666667
        k(    3) = (   0.0000000   0.5078558   0.0000000), wk =   0.3333333
        k(    4) = (   0.0000000   0.5078558  -0.3332547), wk =   0.3333333
        k(    5) = (  -0.5000000   0.0000000   0.0000000), wk =   0.1666667
        k(    6) = (  -0.5000000   0.0000000  -0.3332547), wk =   0.1666667
        k(    7) = (  -0.5000000   0.5078558   0.0000000), wk =   0.3333333
        k(    8) = (  -0.5000000   0.5078558  -0.3332547), wk =   0.3333333

     Dense  grid:   868655 G-vectors     FFT dimensions: ( 120,  80, 180)

     Estimated max dynamical RAM per process >     952.84MB

     Estimated total allocated dynamical RAM >    7622.68MB

     Check: negative/imaginary core charge=   -0.000002    0.000000

     Initial potential from superposition of free atoms

     starting charge  351.99842, renormalised to  352.00000
     Starting wfc are  296 randomized atomic wfcs
     Checking if some PAW data can be deallocated... 

     total cpu time spent up to now is       44.7 secs

     per-process dynamical memory:   650.4 Mb

     Self-consistent Calculation

     iteration #  1     ecut=   100.00 Ry     beta=0.50
     Davidson diagonalization with overlap
     ethr =  1.00E-02,  avg # of iterations =  3.6

     total cpu time spent up to now is      179.2 secs

     total energy              =   -1832.32630480 Ry
     Harris-Foulkes estimate   =   -1837.77974020 Ry
     estimated scf accuracy    <      10.24064933 Ry

     iteration #  2     ecut=   100.00 Ry     beta=0.50
     Davidson diagonalization with overlap
     ethr =  2.91E-03,  avg # of iterations =  3.0

     total cpu time spent up to now is      264.3 secs

     total energy              =   -1833.83550110 Ry
     Harris-Foulkes estimate   =   -1834.64840055 Ry
     estimated scf accuracy    <       1.69294423 Ry

     iteration #  3     ecut=   100.00 Ry     beta=0.50
     Davidson diagonalization with overlap
     ethr =  4.81E-04,  avg # of iterations =  7.2

     total cpu time spent up to now is      396.7 secs

     total energy              =   -1834.36068355 Ry
     Harris-Foulkes estimate   =   -1834.65363339 Ry
     estimated scf accuracy    <       0.72806864 Ry

     iteration #  4     ecut=   100.00 Ry     beta=0.50
     Davidson diagonalization with overlap
     ethr =  2.07E-04,  avg # of iterations =  2.0

     total cpu time spent up to now is      472.4 secs

     total energy              =   -1834.44351455 Ry
     Harris-Foulkes estimate   =   -1834.47540042 Ry
     estimated scf accuracy    <       0.09217509 Ry

     iteration #  5     ecut=   100.00 Ry     beta=0.50
     Davidson diagonalization with overlap
     ethr =  2.62E-05,  avg # of iterations =  7.0

     total cpu time spent up to now is      610.1 secs

     total energy              =   -1834.47538697 Ry
     Harris-Foulkes estimate   =   -1834.49314356 Ry
     estimated scf accuracy    <       0.04846477 Ry

     iteration #  6     ecut=   100.00 Ry     beta=0.50
     Davidson diagonalization with overlap
     ethr =  1.38E-05,  avg # of iterations =  2.1

     total cpu time spent up to now is      680.1 secs

     total energy              =   -1834.47359063 Ry
     Harris-Foulkes estimate   =   -1834.47903670 Ry
     estimated scf accuracy    <       0.01293379 Ry

     iteration #  7     ecut=   100.00 Ry     beta=0.50
     Davidson diagonalization with overlap
     ethr =  3.67E-06,  avg # of iterations =  8.4

     total cpu time spent up to now is      807.4 secs

     total energy              =   -1834.47979938 Ry
     Harris-Foulkes estimate   =   -1834.48024230 Ry
     estimated scf accuracy    <       0.00159717 Ry

     iteration #  8     ecut=   100.00 Ry     beta=0.50
     Davidson diagonalization with overlap
     ethr =  4.54E-07,  avg # of iterations =  2.0

     total cpu time spent up to now is      879.3 secs

     total energy              =   -1834.47959390 Ry
     Harris-Foulkes estimate   =   -1834.47992026 Ry
     estimated scf accuracy    <       0.00066581 Ry

     iteration #  9     ecut=   100.00 Ry     beta=0.50
     Davidson diagonalization with overlap
     ethr =  1.89E-07,  avg # of iterations =  4.0

     total cpu time spent up to now is      983.5 secs

     total energy              =   -1834.47988547 Ry
     Harris-Foulkes estimate   =   -1834.47992000 Ry
     estimated scf accuracy    <       0.00013043 Ry

     iteration # 10     ecut=   100.00 Ry     beta=0.50
     Davidson diagonalization with overlap
     ethr =  3.71E-08,  avg # of iterations =  1.5

     total cpu time spent up to now is     1051.8 secs

     total energy              =   -1834.47984894 Ry
     Harris-Foulkes estimate   =   -1834.47989071 Ry
     estimated scf accuracy    <       0.00006871 Ry

     iteration # 11     ecut=   100.00 Ry     beta=0.50
     Davidson diagonalization with overlap
     ethr =  1.95E-08,  avg # of iterations =  4.0

     total cpu time spent up to now is     1163.0 secs

     total energy              =   -1834.47987882 Ry
     Harris-Foulkes estimate   =   -1834.47988937 Ry
     estimated scf accuracy    <       0.00002718 Ry

     iteration # 12     ecut=   100.00 Ry     beta=0.50
     Davidson diagonalization with overlap
     ethr =  7.72E-09,  avg # of iterations =  1.9

     total cpu time spent up to now is     1232.7 secs

     total energy              =   -1834.47987604 Ry
     Harris-Foulkes estimate   =   -1834.47988026 Ry
     estimated scf accuracy    <       0.00000776 Ry

     iteration # 13     ecut=   100.00 Ry     beta=0.50
     Davidson diagonalization with overlap
     ethr =  2.20E-09,  avg # of iterations =  4.0

     total cpu time spent up to now is     1348.6 secs

     total energy              =   -1834.47988087 Ry
     Harris-Foulkes estimate   =   -1834.47988182 Ry
     estimated scf accuracy    <       0.00000265 Ry

     iteration # 14     ecut=   100.00 Ry     beta=0.50
     Davidson diagonalization with overlap
     ethr =  7.53E-10,  avg # of iterations =  1.8

     total cpu time spent up to now is     1417.7 secs

     total energy              =   -1834.47988065 Ry
     Harris-Foulkes estimate   =   -1834.47988099 Ry
     estimated scf accuracy    <       0.00000081 Ry

     iteration # 15     ecut=   100.00 Ry     beta=0.50
     Davidson diagonalization with overlap
     ethr =  2.30E-10,  avg # of iterations =  4.0

     total cpu time spent up to now is     1523.1 secs

     total energy              =   -1834.47988103 Ry
     Harris-Foulkes estimate   =   -1834.47988104 Ry
     estimated scf accuracy    <       0.00000003 Ry

     iteration # 16     ecut=   100.00 Ry     beta=0.50
     Davidson diagonalization with overlap
     ethr =  9.71E-12,  avg # of iterations =  2.2

     total cpu time spent up to now is     1594.3 secs

     total energy              =   -1834.47988103 Ry
     Harris-Foulkes estimate   =   -1834.47988104 Ry
     estimated scf accuracy    <       0.00000002 Ry

     iteration # 17     ecut=   100.00 Ry     beta=0.50
     Davidson diagonalization with overlap
     ethr =  6.23E-12,  avg # of iterations =  4.0

     total cpu time spent up to now is     1684.4 secs

     End of self-consistent calculation

          k = 0.0000 0.0000 0.0000 (108629 PWs)   bands (ev):

   -20.7892 -20.7838 -20.6653 -20.6644 -20.6361 -20.6314 -20.6167 -20.6163
   -19.2667 -19.2618 -19.2145 -19.2099 -19.1604 -19.1550 -19.1154 -19.1104
   -18.4175 -18.4155 -18.4111 -18.4107 -18.2551 -18.2513 -18.2493 -18.2434
   -16.5363 -16.5315 -16.5313 -16.5100 -16.4228 -16.4057 -16.3805 -16.3718
   -13.8182 -13.8169 -13.7461 -13.7451 -13.6137 -13.6127 -13.6115 -13.6111
   -11.4243 -11.3249 -11.3149 -11.3088 -11.2900 -11.2354 -11.2203 -11.1656
    -9.2553  -9.2238  -9.2045  -9.1758  -8.7040  -8.6949  -8.6840  -8.6766
    -8.2459  -8.2012  -8.1780  -8.0695  -8.0639  -8.0346  -8.0335  -8.0272
    -7.2575  -7.1914  -7.1351  -7.0942  -6.9984  -6.9826  -6.9489  -6.9044
    -6.3980  -6.3700  -6.1051  -6.0905  -6.0837  -6.0625  -6.0498  -6.0007
    -5.4402  -5.3480  -5.2623  -5.0674  -5.0436  -5.0401  -4.9923  -4.9422
    -4.9224  -4.7841  -4.7337  -4.6818  -4.5427  -4.5391  -4.5342  -4.4510
    -4.2963  -4.2373  -4.1450  -4.0476  -3.9748  -3.9055  -3.8286  -3.8129
    -3.7403  -3.7251  -3.7107  -3.7033  -3.5888  -3.5801  -3.5575  -3.5531
    -3.5258  -3.4291  -3.4138  -3.3067  -3.1984  -3.0868  -3.0543  -3.0286
    -3.0183  -2.8954  -2.8552  -2.8292  -2.5962  -2.5576  -2.5549  -2.5428
    -2.5231  -2.5122  -2.5121  -2.4541  -2.4126  -2.3736  -2.2725  -2.2193
    -1.5754  -1.4676  -1.3935  -1.3746  -1.2944  -1.2362  -1.1751  -1.1167
    -0.3184  -0.2865  -0.2857  -0.2685  -0.2504  -0.2463  -0.1911  -0.1713
    -0.1609  -0.1598  -0.1393  -0.0522   0.2152   0.2163   0.2421   0.3133
     0.3192   0.4116   0.5749   0.6035   0.6443   0.6953   0.7345   0.7832
     1.2388   1.2862   1.4256   1.4511   1.4803   1.4930   1.6015   1.6357
     6.1235   6.1560   6.1876   6.1996   6.4132   6.4585   6.5253   6.5287
     6.9201   6.9622   7.0513   7.0943   7.1290   7.1339   7.1431   7.2949
     7.2964   7.3691   7.4715   7.7933   7.8009   7.9528   8.0082   8.0955
     8.4732   8.7220   8.7242   8.7861   8.9269   8.9600   9.1065   9.1876
     9.1918   9.2093   9.2842

          k = 0.0000 0.0000-0.3333 (108570 PWs)   bands (ev):

   -20.7865 -20.7865 -20.6648 -20.6648 -20.6337 -20.6337 -20.6165 -20.6165
   -19.2643 -19.2643 -19.2122 -19.2122 -19.1577 -19.1577 -19.1128 -19.1128
   -18.4142 -18.4142 -18.4133 -18.4133 -18.2532 -18.2532 -18.2463 -18.2463
   -16.5314 -16.5314 -16.5243 -16.5243 -16.4132 -16.4132 -16.3762 -16.3762
   -13.8175 -13.8175 -13.7456 -13.7456 -13.6126 -13.6126 -13.6119 -13.6119
   -11.3784 -11.3784 -11.3226 -11.3226 -11.2248 -11.2248 -11.2180 -11.2180
    -9.2400  -9.2400  -9.1905  -9.1905  -8.6936  -8.6936  -8.6853  -8.6853
    -8.1585  -8.1585  -8.1369  -8.1369  -8.1028  -8.1028  -8.0241  -8.0241
    -7.2152  -7.2152  -7.1518  -7.1518  -6.9770  -6.9770  -6.9251  -6.9251
    -6.3850  -6.3850  -6.0786  -6.0786  -6.0718  -6.0718  -6.0459  -6.0459
    -5.4082  -5.4082  -5.1542  -5.1542  -5.0461  -5.0461  -4.8664  -4.8664
    -4.8440  -4.8440  -4.7716  -4.7716  -4.5782  -4.5782  -4.5426  -4.5426
    -4.1167  -4.1167  -4.0635  -4.0635  -4.0121  -4.0121  -3.9592  -3.9592
    -3.7008  -3.7008  -3.6800  -3.6800  -3.5618  -3.5618  -3.5462  -3.5462
    -3.5183  -3.5183  -3.2690  -3.2690  -3.2434  -3.2434  -2.9795  -2.9795
    -2.9463  -2.9463  -2.8748  -2.8748  -2.5594  -2.5594  -2.5461  -2.5461
    -2.5241  -2.5241  -2.4889  -2.4889  -2.3969  -2.3969  -2.2443  -2.2443
    -1.5422  -1.5422  -1.3395  -1.3395  -1.2939  -1.2939  -1.1401  -1.1401
    -0.3087  -0.3087  -0.2856  -0.2856  -0.2147  -0.2147  -0.1983  -0.1983
    -0.1451  -0.1451  -0.1166  -0.1166   0.2344   0.2344   0.2938   0.2938
     0.3003   0.3003   0.6533   0.6533   0.6753   0.6753   0.7228   0.7228
     1.2619   1.2619   1.4371   1.4371   1.4871   1.4871   1.6198   1.6198
     6.1390   6.1390   6.1931   6.1931   6.4352   6.4352   6.5274   6.5274
     6.9215   6.9215   7.0549   7.0549   7.1331   7.1331   7.3214   7.3214
     7.3324   7.3324   7.6525   7.6525   7.9076   7.9076   7.9191   7.9191
     8.6760   8.6760   8.7616   8.7616   8.8869   8.8869   9.0050   9.0050
     9.1245   9.1245   9.5486

          k = 0.0000 0.5079 0.0000 (108603 PWs)   bands (ev):

   -20.7587 -20.7543 -20.6967 -20.6946 -20.6299 -20.6265 -20.6200 -20.6191
   -19.2554 -19.2504 -19.2293 -19.2245 -19.1491 -19.1438 -19.1266 -19.1215
   -18.4175 -18.4165 -18.4113 -18.4112 -18.2534 -18.2505 -18.2492 -18.2452
   -16.5365 -16.5351 -16.5250 -16.5154 -16.4112 -16.3980 -16.3896 -16.3814
   -13.8008 -13.7997 -13.7648 -13.7638 -13.6144 -13.6138 -13.6122 -13.6120
   -11.3955 -11.3360 -11.2964 -11.2959 -11.2804 -11.2440 -11.2407 -11.2016
    -9.2440  -9.2186  -9.2126  -9.1886  -8.7026  -8.6980  -8.6807  -8.6770
    -8.2387  -8.2165  -8.1554  -8.0996  -8.0592  -8.0402  -8.0322  -8.0287
    -7.2500  -7.2179  -7.1298  -7.1090  -6.9913  -6.9791  -6.9755  -6.9381
    -6.2844  -6.2527  -6.1306  -6.1089  -6.0892  -6.0730  -6.0072  -5.9835
    -5.3622  -5.2564  -5.1792  -5.1675  -5.0496  -5.0311  -5.0170  -4.9889
    -4.8852  -4.7970  -4.7220  -4.7017  -4.5255  -4.5138  -4.5137  -4.4792
    -4.2713  -4.2518  -4.1528  -4.1269  -3.9419  -3.9234  -3.8275  -3.8250
    -3.7989  -3.7913  -3.7064  -3.6842  -3.5780  -3.5685  -3.5295  -3.5052
    -3.4723  -3.3061  -3.2450  -3.2399  -3.2213  -3.0651  -3.0583  -3.0042
    -2.9889  -2.9061  -2.8893  -2.8083  -2.7437  -2.7121  -2.6586  -2.6312
    -2.5983  -2.5729  -2.5398  -2.5242  -2.3465  -2.2988  -2.2670  -2.2335
    -1.5702  -1.4452  -1.3999  -1.3966  -1.3580  -1.2522  -1.2419  -1.1891
    -0.3240  -0.3071  -0.2749  -0.2651  -0.2567  -0.2553  -0.1885  -0.1788
    -0.1667  -0.1566  -0.0820  -0.0476   0.2073   0.2074   0.2945   0.3501
     0.4014   0.4362   0.4590   0.6234   0.6424   0.6437   0.7392   0.7596
     1.2962   1.3306   1.4292   1.4488   1.4532   1.4660   1.4841   1.5118
     6.1907   6.1949   6.2734   6.2852   6.3734   6.3819   6.3966   6.4053
     6.9006   6.9469   6.9870   7.1229   7.1609   7.1853   7.2247   7.3535
     7.6276   7.6990   7.8164   8.1286   8.1662   8.2976   8.3776   8.4883
     8.5130   8.6976   8.8019   8.8258   8.8364   8.8590   9.0313   9.0574
     9.0966   9.1955   9.2128

          k = 0.0000 0.5079-0.3333 (108552 PWs)   bands (ev):

   -20.7565 -20.7565 -20.6956 -20.6956 -20.6282 -20.6282 -20.6196 -20.6196
   -19.2530 -19.2530 -19.2270 -19.2270 -19.1464 -19.1464 -19.1240 -19.1240
   -18.4144 -18.4144 -18.4139 -18.4139 -18.2512 -18.2512 -18.2478 -18.2478
   -16.5301 -16.5301 -16.5266 -16.5266 -16.4040 -16.4040 -16.3854 -16.3854
   -13.8003 -13.8003 -13.7643 -13.7643 -13.6133 -13.6133 -13.6129 -13.6129
   -11.3504 -11.3504 -11.3173 -11.3173 -11.2406 -11.2406 -11.2387 -11.2387
    -9.2287  -9.2287  -9.2040  -9.2040  -8.6912  -8.6912  -8.6871  -8.6871
    -8.1551  -8.1551  -8.1448  -8.1448  -8.0846  -8.0846  -8.0457  -8.0457
    -7.2074  -7.2074  -7.1760  -7.1760  -6.9744  -6.9744  -6.9525  -6.9525
    -6.2686  -6.2686  -6.1218  -6.1218  -6.0459  -6.0459  -6.0274  -6.0274
    -5.3159  -5.3159  -5.0875  -5.0875  -5.0854  -5.0854  -5.0195  -5.0195
    -4.7587  -4.7587  -4.7515  -4.7515  -4.5756  -4.5756  -4.5529  -4.5529
    -4.1009  -4.1009  -4.0827  -4.0827  -4.0193  -4.0193  -4.0021  -4.0021
    -3.6901  -3.6901  -3.6819  -3.6819  -3.5748  -3.5748  -3.5647  -3.5647
    -3.3586  -3.3586  -3.2594  -3.2594  -3.1267  -3.1267  -3.0363  -3.0363
    -2.9530  -2.9530  -2.8349  -2.8349  -2.7269  -2.7269  -2.6452  -2.6452
    -2.5679  -2.5679  -2.5433  -2.5433  -2.3250  -2.3250  -2.2509  -2.2509
    -1.5178  -1.5178  -1.4069  -1.4069  -1.2868  -1.2868  -1.2148  -1.2148
    -0.3114  -0.3114  -0.3002  -0.3002  -0.2021  -0.2021  -0.2003  -0.2003
    -0.1315  -0.1315  -0.1201  -0.1201   0.2518   0.2518   0.2895   0.2895
     0.3883   0.3883   0.5575   0.5575   0.6988   0.6988   0.7090   0.7090
     1.3133   1.3133   1.4375   1.4375   1.4601   1.4601   1.4995   1.4995
     6.1920   6.1920   6.2791   6.2791   6.3897   6.3897   6.3899   6.3899
     6.9401   6.9401   7.0385   7.0385   7.2216   7.2216   7.2379   7.2379
     7.6582   7.6582   8.1016   8.1016   8.2716   8.2716   8.2863   8.2863
     8.6741   8.6741   8.8075   8.8075   8.9359   8.9359   8.9942   8.9942
     9.0195   9.0195   9.1770

          k =-0.5000 0.0000 0.0000 (108620 PWs)   bands (ev):

   -20.7242 -20.7242 -20.7217 -20.7217 -20.6327 -20.6327 -20.6317 -20.6317
   -19.2049 -19.2049 -19.2045 -19.2045 -19.1653 -19.1653 -19.1637 -19.1637
   -18.3404 -18.3404 -18.3401 -18.3401 -18.3266 -18.3266 -18.3264 -18.3264
   -16.4796 -16.4796 -16.4739 -16.4739 -16.4536 -16.4536 -16.4391 -16.4391
   -13.7191 -13.7191 -13.7191 -13.7191 -13.6693 -13.6693 -13.6690 -13.6690
   -11.3733 -11.3733 -11.3243 -11.3243 -11.2659 -11.2659 -11.1930 -11.1930
    -9.0178  -9.0178  -8.9845  -8.9845  -8.9796  -8.9796  -8.9557  -8.9557
    -8.1819  -8.1819  -8.1008  -8.1008  -8.0498  -8.0498  -8.0270  -8.0270
    -7.0914  -7.0914  -7.0290  -7.0290  -7.0217  -7.0217  -6.9667  -6.9667
    -6.3110  -6.3110  -6.3016  -6.3016  -6.0883  -6.0883  -6.0346  -6.0346
    -5.3212  -5.3212  -5.3185  -5.3185  -5.0270  -5.0270  -4.9106  -4.9106
    -4.8095  -4.8095  -4.7107  -4.7107  -4.4535  -4.4535  -4.3851  -4.3851
    -4.1057  -4.1057  -4.0488  -4.0488  -3.9444  -3.9444  -3.9134  -3.9134
    -3.7830  -3.7830  -3.7481  -3.7481  -3.6988  -3.6988  -3.5570  -3.5570
    -3.4594  -3.4594  -3.3843  -3.3843  -3.1771  -3.1771  -3.0062  -3.0062
    -2.9643  -2.9643  -2.8919  -2.8919  -2.5967  -2.5967  -2.5830  -2.5830
    -2.4874  -2.4874  -2.4745  -2.4745  -2.4133  -2.4133  -2.3629  -2.3629
    -1.4350  -1.4350  -1.3902  -1.3902  -1.2572  -1.2572  -1.2464  -1.2464
    -0.2963  -0.2963  -0.2473  -0.2473  -0.2413  -0.2413  -0.2045  -0.2045
     0.1532   0.1532   0.1684   0.1684   0.2892   0.2892   0.3181   0.3181
     0.3256   0.3256   0.4267   0.4267   0.5234   0.5234   0.5472   0.5472
     1.3384   1.3384   1.3487   1.3487   1.5644   1.5644   1.5699   1.5699
     6.1790   6.1790   6.1863   6.1863   6.4852   6.4852   6.5076   6.5076
     7.0167   7.0167   7.0980   7.0980   7.1361   7.1361   7.2674   7.2674
     7.3367   7.3367   7.5571   7.5571   7.6326   7.6326   8.5258   8.5258
     8.5539   8.5539   8.6321   8.6321   8.9224   8.9224   9.0568   9.0568
     9.1265   9.1265   9.2984

          k =-0.5000 0.0000-0.3333 (108656 PWs)   bands (ev):

   -20.7230 -20.7230 -20.7230 -20.7230 -20.6322 -20.6322 -20.6322 -20.6322
   -19.2047 -19.2047 -19.2047 -19.2047 -19.1645 -19.1645 -19.1645 -19.1645
   -18.3403 -18.3403 -18.3403 -18.3403 -18.3265 -18.3265 -18.3265 -18.3265
   -16.4775 -16.4775 -16.4775 -16.4775 -16.4456 -16.4456 -16.4456 -16.4456
   -13.7191 -13.7191 -13.7191 -13.7191 -13.6691 -13.6691 -13.6691 -13.6691
   -11.3493 -11.3493 -11.3493 -11.3493 -11.2300 -11.2300 -11.2300 -11.2300
    -9.0003  -9.0003  -9.0003  -9.0003  -8.9671  -8.9671  -8.9671  -8.9671
    -8.1181  -8.1181  -8.1181  -8.1181  -8.0614  -8.0614  -8.0614  -8.0614
    -7.0597  -7.0597  -7.0597  -7.0597  -6.9999  -6.9999  -6.9999  -6.9999
    -6.3073  -6.3073  -6.3073  -6.3073  -6.0625  -6.0625  -6.0625  -6.0625
    -5.3232  -5.3232  -5.3232  -5.3232  -4.9647  -4.9647  -4.9647  -4.9647
    -4.6455  -4.6455  -4.6455  -4.6455  -4.5604  -4.5604  -4.5604  -4.5604
    -4.0304  -4.0304  -4.0304  -4.0304  -3.9741  -3.9741  -3.9741  -3.9741
    -3.7169  -3.7169  -3.7169  -3.7169  -3.6511  -3.6511  -3.6511  -3.6511
    -3.4248  -3.4248  -3.4248  -3.4248  -3.0948  -3.0948  -3.0948  -3.0948
    -2.9244  -2.9244  -2.9244  -2.9244  -2.5469  -2.5469  -2.5469  -2.5469
    -2.5167  -2.5167  -2.5167  -2.5167  -2.3882  -2.3882  -2.3882  -2.3882
    -1.4132  -1.4132  -1.4132  -1.4132  -1.2502  -1.2502  -1.2502  -1.2502
    -0.2720  -0.2720  -0.2720  -0.2720  -0.2245  -0.2245  -0.2245  -0.2245
     0.1583   0.1583   0.1583   0.1583   0.2977   0.2977   0.2977   0.2977
     0.3835   0.3835   0.3835   0.3835   0.5376   0.5376   0.5376   0.5376
     1.3436   1.3436   1.3436   1.3436   1.5671   1.5671   1.5671   1.5671
     6.1818   6.1818   6.1818   6.1818   6.4967   6.4967   6.4967   6.4967
     7.0257   7.0257   7.0257   7.0257   7.2696   7.2696   7.2696   7.2696
     7.3771   7.3771   7.3771   7.3771   8.0308   8.0308   8.0308   8.0308
     8.6425   8.6425   8.6425   8.6425   9.0022   9.0022   9.0022   9.0022
     9.1776   9.1776   9.1776

          k =-0.5000 0.5079 0.0000 (108578 PWs)   bands (ev):

   -20.7008 -20.7008 -20.6991 -20.6991 -20.6546 -20.6546 -20.6545 -20.6545
   -19.1957 -19.1957 -19.1950 -19.1950 -19.1759 -19.1759 -19.1746 -19.1746
   -18.3371 -18.3371 -18.3369 -18.3369 -18.3301 -18.3301 -18.3301 -18.3301
   -16.4727 -16.4727 -16.4670 -16.4670 -16.4592 -16.4592 -16.4483 -16.4483
   -13.7074 -13.7074 -13.7073 -13.7073 -13.6825 -13.6825 -13.6822 -13.6822
   -11.3512 -11.3512 -11.3141 -11.3141 -11.2717 -11.2717 -11.2227 -11.2227
    -9.0098  -9.0098  -8.9913  -8.9913  -8.9772  -8.9772  -8.9634  -8.9634
    -8.1657  -8.1657  -8.1258  -8.1258  -8.0427  -8.0427  -8.0314  -8.0314
    -7.0878  -7.0878  -7.0568  -7.0568  -7.0130  -7.0130  -6.9863  -6.9863
    -6.2325  -6.2325  -6.2063  -6.2063  -6.1182  -6.1182  -6.0781  -6.0781
    -5.2403  -5.2403  -5.2218  -5.2218  -5.0730  -5.0730  -5.0407  -5.0407
    -4.7477  -4.7477  -4.6940  -4.6940  -4.4337  -4.4337  -4.4021  -4.4021
    -4.1064  -4.1064  -4.0783  -4.0783  -3.9278  -3.9278  -3.9180  -3.9180
    -3.8034  -3.8034  -3.7671  -3.7671  -3.6682  -3.6682  -3.5979  -3.5979
    -3.3764  -3.3764  -3.3037  -3.3037  -3.1477  -3.1477  -3.0254  -3.0254
    -2.9280  -2.9280  -2.9193  -2.9193  -2.7219  -2.7219  -2.6561  -2.6561
    -2.5493  -2.5493  -2.5057  -2.5057  -2.3570  -2.3570  -2.3437  -2.3437
    -1.4176  -1.4176  -1.4097  -1.4097  -1.3176  -1.3176  -1.2994  -1.2994
    -0.2761  -0.2761  -0.2563  -0.2563  -0.2297  -0.2297  -0.2153  -0.2153
     0.1711   0.1711   0.2003   0.2003   0.3118   0.3118   0.3294   0.3294
     0.3469   0.3469   0.4099   0.4099   0.4556   0.4556   0.4906   0.4906
     1.3796   1.3796   1.3876   1.3876   1.4918   1.4918   1.4980   1.4980
     6.2398   6.2398   6.2450   6.2450   6.3911   6.3911   6.4049   6.4049
     7.0268   7.0268   7.0338   7.0338   7.0852   7.0852   7.2654   7.2654
     7.7802   7.7802   8.0013   8.0013   8.0941   8.0941   8.5957   8.5957
     8.8129   8.8129   8.8535   8.8535   8.9532   8.9532   9.0504   9.0504
     9.0854   9.0857   9.1539

          k =-0.5000 0.5079-0.3333 (108612 PWs)   bands (ev):

   -20.7000 -20.7000 -20.7000 -20.7000 -20.6545 -20.6545 -20.6545 -20.6545
   -19.1954 -19.1954 -19.1954 -19.1954 -19.1753 -19.1753 -19.1753 -19.1753
   -18.3370 -18.3370 -18.3370 -18.3370 -18.3301 -18.3301 -18.3301 -18.3301
   -16.4706 -16.4706 -16.4706 -16.4706 -16.4530 -16.4530 -16.4530 -16.4530
   -13.7073 -13.7073 -13.7073 -13.7073 -13.6824 -13.6824 -13.6824 -13.6824
   -11.3270 -11.3270 -11.3270 -11.3270 -11.2539 -11.2539 -11.2539 -11.2539
    -8.9937  -8.9937  -8.9937  -8.9937  -8.9757  -8.9757  -8.9757  -8.9757
    -8.1094  -8.1094  -8.1094  -8.1094  -8.0732  -8.0732  -8.0732  -8.0732
    -7.0547  -7.0547  -7.0547  -7.0547  -7.0236  -7.0236  -7.0236  -7.0236
    -6.2201  -6.2201  -6.2201  -6.2201  -6.0984  -6.0984  -6.0984  -6.0984
    -5.2293  -5.2293  -5.2293  -5.2293  -5.0451  -5.0451  -5.0451  -5.0451
    -4.6194  -4.6194  -4.6194  -4.6194  -4.5609  -4.5609  -4.5609  -4.5609
    -4.0205  -4.0205  -4.0205  -4.0205  -3.9887  -3.9887  -3.9887  -3.9887
    -3.7435  -3.7435  -3.7435  -3.7435  -3.6459  -3.6459  -3.6459  -3.6459
    -3.3502  -3.3502  -3.3502  -3.3502  -3.0830  -3.0830  -3.0830  -3.0830
    -2.9218  -2.9218  -2.9218  -2.9218  -2.6860  -2.6860  -2.6860  -2.6860
    -2.5224  -2.5224  -2.5224  -2.5224  -2.3541  -2.3541  -2.3541  -2.3541
    -1.4118  -1.4118  -1.4118  -1.4118  -1.3102  -1.3102  -1.3102  -1.3102
    -0.2552  -0.2552  -0.2552  -0.2552  -0.2363  -0.2363  -0.2363  -0.2363
     0.1896   0.1896   0.1896   0.1896   0.3117   0.3117   0.3117   0.3117
     0.3838   0.3838   0.3838   0.3838   0.4749   0.4749   0.4749   0.4749
     1.3836   1.3836   1.3836   1.3836   1.4949   1.4949   1.4949   1.4949
     6.2421   6.2421   6.2421   6.2421   6.3982   6.3982   6.3982   6.3982
     7.0358   7.0358   7.0358   7.0358   7.1677   7.1677   7.1677   7.1677
     7.8754   7.8754   7.8754   7.8754   8.4261   8.4261   8.4261   8.4261
     8.7948   8.7948   8.7948   8.7948   8.9809   8.9809   8.9809   8.9811
     9.0961   9.0961   9.0961

     highest occupied, lowest unoccupied level (ev):     1.6357    6.1235

!    total energy              =   -1834.47988103 Ry
     Harris-Foulkes estimate   =   -1834.47988103 Ry
     estimated scf accuracy    <          1.2E-10 Ry

     total all-electron energy =     -6913.539647 Ry

     The total energy is the sum of the following terms:

     one-electron contribution =    -990.48442803 Ry
     hartree contribution      =     638.54837765 Ry
     xc contribution           =    -378.13382676 Ry
     ewald contribution        =    -593.55740823 Ry
     Dispersion Correction     =      -0.47521971 Ry
     one-center paw contrib.   =    -510.37737595 Ry

     convergence has been achieved in  17 iterations

     Forces acting on atoms (cartesian axes, Ry/au):

     atom    1 type  2   force =    -0.00052273   -0.00103900    0.00221373
     atom    2 type  2   force =     0.00052273    0.00103900    0.00221373
     atom    3 type  2   force =    -0.00052273    0.00103900   -0.00221373
     atom    4 type  2   force =     0.00052273   -0.00103900   -0.00221373
     atom    5 type  2   force =     0.00052273    0.00103900   -0.00221373
     atom    6 type  2   force =    -0.00052273   -0.00103900   -0.00221373
     atom    7 type  2   force =     0.00052273   -0.00103900    0.00221373
     atom    8 type  2   force =    -0.00052273    0.00103900    0.00221373
     atom    9 type  2   force =     0.00085336    0.00095695    0.00004144
     atom   10 type  2   force =    -0.00085336   -0.00095695    0.00004144
     atom   11 type  2   force =     0.00085336   -0.00095695   -0.00004144
     atom   12 type  2   force =    -0.00085336    0.00095695   -0.00004144
     atom   13 type  2   force =    -0.00085336   -0.00095695   -0.00004144
     atom   14 type  2   force =     0.00085336    0.00095695   -0.00004144
     atom   15 type  2   force =    -0.00085336    0.00095695    0.00004144
     atom   16 type  2   force =     0.00085336   -0.00095695    0.00004144
     atom   17 type  1   force =     0.00276871    0.00056723    0.00095124
     atom   18 type  1   force =    -0.00276871   -0.00056723    0.00095124
     atom   19 type  1   force =     0.00276871   -0.00056723   -0.00095124
     atom   20 type  1   force =    -0.00276871    0.00056723   -0.00095124
     atom   21 type  1   force =    -0.00276871   -0.00056723   -0.00095124
     atom   22 type  1   force =     0.00276871    0.00056723   -0.00095124
     atom   23 type  1   force =    -0.00276871    0.00056723    0.00095124
     atom   24 type  1   force =     0.00276871   -0.00056723    0.00095124
     atom   25 type  2   force =    -0.00080740   -0.00029801    0.00045287
     atom   26 type  2   force =     0.00080740    0.00029801    0.00045287
     atom   27 type  2   force =    -0.00080740    0.00029801   -0.00045287
     atom   28 type  2   force =     0.00080740   -0.00029801   -0.00045287
     atom   29 type  2   force =     0.00080740    0.00029801   -0.00045287
     atom   30 type  2   force =    -0.00080740   -0.00029801   -0.00045287
     atom   31 type  2   force =     0.00080740   -0.00029801    0.00045287
     atom   32 type  2   force =    -0.00080740    0.00029801    0.00045287
     atom   33 type  1   force =     0.00122035   -0.00067632   -0.00145190
     atom   34 type  1   force =    -0.00122035    0.00067632   -0.00145190
     atom   35 type  1   force =     0.00122035    0.00067632    0.00145190
     atom   36 type  1   force =    -0.00122035   -0.00067632    0.00145190
     atom   37 type  1   force =    -0.00122035    0.00067632    0.00145190
     atom   38 type  1   force =     0.00122035   -0.00067632    0.00145190
     atom   39 type  1   force =    -0.00122035   -0.00067632   -0.00145190
     atom   40 type  1   force =     0.00122035    0.00067632   -0.00145190
     atom   41 type  4   force =    -0.00317257    0.00084866   -0.00031975
     atom   42 type  4   force =     0.00317257   -0.00084866   -0.00031975
     atom   43 type  4   force =    -0.00317257   -0.00084866    0.00031975
     atom   44 type  4   force =     0.00317257    0.00084866    0.00031975
     atom   45 type  4   force =     0.00317257   -0.00084866    0.00031975
     atom   46 type  4   force =    -0.00317257    0.00084866    0.00031975
     atom   47 type  4   force =     0.00317257    0.00084866   -0.00031975
     atom   48 type  4   force =    -0.00317257   -0.00084866   -0.00031975
     atom   49 type  4   force =    -0.00017342    0.00080693   -0.00065190
     atom   50 type  4   force =     0.00017342   -0.00080693   -0.00065190
     atom   51 type  4   force =    -0.00017342   -0.00080693    0.00065190
     atom   52 type  4   force =     0.00017342    0.00080693    0.00065190
     atom   53 type  4   force =     0.00017342   -0.00080693    0.00065190
     atom   54 type  4   force =    -0.00017342    0.00080693    0.00065190
     atom   55 type  4   force =     0.00017342    0.00080693   -0.00065190
     atom   56 type  4   force =    -0.00017342   -0.00080693   -0.00065190
     atom   57 type  1   force =     0.00137300    0.00004802   -0.00046051
     atom   58 type  1   force =    -0.00137300   -0.00004802   -0.00046051
     atom   59 type  1   force =     0.00137300   -0.00004802    0.00046051
     atom   60 type  1   force =    -0.00137300    0.00004802    0.00046051
     atom   61 type  1   force =    -0.00137300   -0.00004802    0.00046051
     atom   62 type  1   force =     0.00137300    0.00004802    0.00046051
     atom   63 type  1   force =    -0.00137300    0.00004802   -0.00046051
     atom   64 type  1   force =     0.00137300   -0.00004802   -0.00046051
     atom   65 type  3   force =    -0.00002779   -0.00047621    0.00002297
     atom   66 type  3   force =     0.00002779    0.00047621    0.00002297
     atom   67 type  3   force =    -0.00002779    0.00047621   -0.00002297
     atom   68 type  3   force =     0.00002779   -0.00047621   -0.00002297
     atom   69 type  3   force =     0.00002779    0.00047621   -0.00002297
     atom   70 type  3   force =    -0.00002779   -0.00047621   -0.00002297
     atom   71 type  3   force =     0.00002779   -0.00047621    0.00002297
     atom   72 type  3   force =    -0.00002779    0.00047621    0.00002297
     atom   73 type  3   force =    -0.00011771   -0.00046658    0.00042946
     atom   74 type  3   force =     0.00011771    0.00046658    0.00042946
     atom   75 type  3   force =    -0.00011771    0.00046658   -0.00042946
     atom   76 type  3   force =     0.00011771   -0.00046658   -0.00042946
     atom   77 type  3   force =     0.00011771    0.00046658   -0.00042946
     atom   78 type  3   force =    -0.00011771   -0.00046658   -0.00042946
     atom   79 type  3   force =     0.00011771   -0.00046658    0.00042946
     atom   80 type  3   force =    -0.00011771    0.00046658    0.00042946
     atom   81 type  3   force =    -0.00092834   -0.00036230   -0.00036178
     atom   82 type  3   force =     0.00092834    0.00036230   -0.00036178
     atom   83 type  3   force =    -0.00092834    0.00036230    0.00036178
     atom   84 type  3   force =     0.00092834   -0.00036230    0.00036178
     atom   85 type  3   force =     0.00092834    0.00036230    0.00036178
     atom   86 type  3   force =    -0.00092834   -0.00036230    0.00036178
     atom   87 type  3   force =     0.00092834   -0.00036230   -0.00036178
     atom   88 type  3   force =    -0.00092834    0.00036230   -0.00036178
     atom   89 type  3   force =    -0.00025273    0.00092060   -0.00004704
     atom   90 type  3   force =     0.00025273   -0.00092060   -0.00004704
     atom   91 type  3   force =    -0.00025273   -0.00092060    0.00004704
     atom   92 type  3   force =     0.00025273    0.00092060    0.00004704
     atom   93 type  3   force =     0.00025273   -0.00092060    0.00004704
     atom   94 type  3   force =    -0.00025273    0.00092060    0.00004704
     atom   95 type  3   force =     0.00025273    0.00092060   -0.00004704
     atom   96 type  3   force =    -0.00025273   -0.00092060   -0.00004704
     atom   97 type  3   force =    -0.00073636    0.00004206    0.00008937
     atom   98 type  3   force =     0.00073636   -0.00004206    0.00008937
     atom   99 type  3   force =    -0.00073636   -0.00004206   -0.00008937
     atom  100 type  3   force =     0.00073636    0.00004206   -0.00008937
     atom  101 type  3   force =     0.00073636   -0.00004206   -0.00008937
     atom  102 type  3   force =    -0.00073636    0.00004206   -0.00008937
     atom  103 type  3   force =     0.00073636    0.00004206    0.00008937
     atom  104 type  3   force =    -0.00073636   -0.00004206    0.00008937

     Total force =     0.017690     Total SCF correction =     0.000025


     Computing stress (Cartesian axis) and pressure

          total   stress  (Ry/bohr**3)                   (kbar)     P=   -7.43
  -0.00008196   0.00000000   0.00000000        -12.06      0.00      0.00
   0.00000000  -0.00005000   0.00000000          0.00     -7.36      0.00
   0.00000000   0.00000000  -0.00001954          0.00      0.00     -2.88


     Writing output data file scf.save
 
     init_run     :     42.00s CPU     44.07s WALL (       1 calls)
     electrons    :   1563.37s CPU   1639.84s WALL (       1 calls)
     forces       :     20.22s CPU     20.44s WALL (       1 calls)
     stress       :    153.37s CPU    153.78s WALL (       1 calls)

     Called by init_run:
     wfcinit      :     35.05s CPU     36.91s WALL (       1 calls)
     potinit      :      2.46s CPU      2.52s WALL (       1 calls)

     Called by electrons:
     c_bands      :   1397.50s CPU   1463.18s WALL (      17 calls)
     sum_band     :    150.35s CPU    159.51s WALL (      17 calls)
     v_of_rho     :      2.14s CPU      2.36s WALL (      18 calls)
     newd         :      4.58s CPU      5.91s WALL (      18 calls)
     PAW_pot      :      8.00s CPU      8.01s WALL (      18 calls)
     mix_rho      :      0.56s CPU      0.61s WALL (      17 calls)

     Called by c_bands:
     init_us_2    :     10.90s CPU     10.94s WALL (     296 calls)
     cegterg      :   1355.86s CPU   1421.47s WALL (     136 calls)

     Called by sum_band:
     sum_band:bec :      0.10s CPU      0.10s WALL (     136 calls)
     addusdens    :      4.90s CPU      6.17s WALL (      17 calls)

     Called by *egterg:
     h_psi        :    757.88s CPU    808.63s WALL (     646 calls)
     s_psi        :    153.83s CPU    153.88s WALL (     646 calls)
     g_psi        :      5.49s CPU      5.49s WALL (     502 calls)
     cdiaghg      :     94.87s CPU     94.90s WALL (     638 calls)

     Called by h_psi:
     h_psi:pot    :    751.48s CPU    802.11s WALL (     646 calls)
     h_psi:calbec :    144.98s CPU    145.37s WALL (     646 calls)
     vloc_psi     :    452.77s CPU    502.99s WALL (     646 calls)
     add_vuspsi   :    153.73s CPU    153.75s WALL (     646 calls)

     General routines
     calbec       :    211.39s CPU    211.94s WALL (     822 calls)
     fft          :      1.22s CPU      1.60s WALL (     258 calls)
     fftw         :    485.91s CPU    541.36s WALL (  185952 calls)
 
     Parallel routines
     fft_scatter  :    103.76s CPU    151.84s WALL (  186210 calls)
 
     PWSCF        : 29m51.69s CPU    31m57.65s WALL

 
   This run was terminated on:   6:29:31   4Nov2017            

=------------------------------------------------------------------------------=
   JOB DONE.
=------------------------------------------------------------------------------=
