
     Program PWSCF v.6.1 (svn rev. 13369) starts on 13Nov2017 at 12:24: 3 

     This program is part of the open-source Quantum ESPRESSO suite
     for quantum simulation of materials; please cite
         "P. Giannozzi et al., J. Phys.:Condens. Matter 21 395502 (2009);
          URL http://www.quantum-espresso.org", 
     in publications or presentations arising from this work. More details at
     http://www.quantum-espresso.org/quote

     Parallel version (MPI), running on     8 processors
     R & G space division:  proc/nbgrp/npool/nimage =       8
     Waiting for input...
     Reading input from standard input

     Current dimensions of program PWSCF are:
     Max number of different atomic species (ntypx) = 10
     Max number of k-points (npk) =  40000
     Max angular momentum in pseudopotentials (lmaxx) =  3
               file C.pbe-n-kjpaw_psl.0.1.UPF: wavefunction(s)  2P renormalized
               file N.pbe-n-kjpaw_psl.0.1.UPF: wavefunction(s)  2P renormalized
               file H.pbe-kjpaw_psl.0.1.UPF: wavefunction(s)  1S renormalized
               file O.pbe-n-kjpaw_psl.0.1.UPF: wavefunction(s)  2P renormalized

     -------------------------------------
     Parameters for Dispersion Correction:
     -------------------------------------
       atom      VdW radius       C_6     

        C          2.744         60.710
        N          2.640         42.670
        H          1.892          4.857
        O          2.536         24.284

     Subspace diagonalization in iterative solution of the eigenvalue problem:
     a serial algorithm will be used

 
     Parallelization info
     --------------------
     sticks:   dense  smooth     PW     G-vecs:    dense   smooth      PW
     Min         673     673    177                84041    84041   11461
     Max         674     674    178                84045    84045   11467
     Sum        5387    5387   1423               672347   672347   91719
 


     bravais-lattice index     =            0
     lattice parameter (alat)  =      12.8324  a.u.
     unit-cell volume          =    4976.7980 (a.u.)^3
     number of atoms/cell      =          100
     number of atomic types    =            4
     number of electrons       =       252.00
     number of Kohn-Sham states=          151
     kinetic-energy cutoff     =     100.0000  Ry
     charge density cutoff     =     400.0000  Ry
     convergence threshold     =      1.0E-08
     mixing beta               =       0.5000
     number of iterations used =            8  plain     mixing
     Exchange-correlation      =  SLA  PW   PBX  PBC ( 1  4  3  4 0 0)

     celldm(1)=  12.832374  celldm(2)=   0.000000  celldm(3)=   0.000000
     celldm(4)=   0.000000  celldm(5)=   0.000000  celldm(6)=   0.000000

     crystal axes: (cart. coord. in units of alat)
               a(1) = (   1.000000   0.000000   0.000000 )  
               a(2) = (   0.320145   1.028691   0.000000 )  
               a(3) = (   0.448204   0.018319   2.289518 )  

     reciprocal axes: (cart. coord. in units 2 pi/alat)
               b(1) = (  1.000000 -0.311216 -0.193273 )  
               b(2) = (  0.000000  0.972109 -0.007778 )  
               b(3) = (  0.000000  0.000000  0.436773 )  


     PseudoPot. # 1 for  C read from file:
     /scratch/ahofstet/pseudo/C.pbe-n-kjpaw_psl.0.1.UPF
     MD5 check sum: 430fe95172b1e11ef3f8ed03bac87931
     Pseudo is Projector augmented-wave + core cor, Zval =  4.0
     Generated using "atomic" code by A. Dal Corso  v.5.0.99 svn rev. 10869
     Shape of augmentation charge: BESSEL
     Using radial grid of 1073 points,  4 beta functions with: 
                l(1) =   0
                l(2) =   0
                l(3) =   1
                l(4) =   1
     Q(r) pseudized with 0 coefficients 


     PseudoPot. # 2 for  N read from file:
     /scratch/ahofstet/pseudo/N.pbe-n-kjpaw_psl.0.1.UPF
     MD5 check sum: f73187c8b701007e77325f868c9291d7
     Pseudo is Projector augmented-wave + core cor, Zval =  5.0
     Generated using "atomic" code by A. Dal Corso  v.5.0.99 svn rev. 10869
     Shape of augmentation charge: PSQ
     Using radial grid of 1085 points,  4 beta functions with: 
                l(1) =   0
                l(2) =   0
                l(3) =   1
                l(4) =   1
     Q(r) pseudized with 0 coefficients 


     PseudoPot. # 3 for  H read from file:
     /scratch/ahofstet/pseudo/H.pbe-kjpaw_psl.0.1.UPF
     MD5 check sum: 94e484f906d9e9773b2f6e52662335b2
     Pseudo is Projector augmented-wave, Zval =  1.0
     Generated using "atomic" code by A. Dal Corso  v.5.0.99 svn rev. 10869
     Shape of augmentation charge: PSQ
     Using radial grid of  929 points,  2 beta functions with: 
                l(1) =   0
                l(2) =   0
     Q(r) pseudized with 0 coefficients 


     PseudoPot. # 4 for  O read from file:
     /scratch/ahofstet/pseudo/O.pbe-n-kjpaw_psl.0.1.UPF
     MD5 check sum: 3f94a2996a3169367d6eb21d9b593f20
     Pseudo is Projector augmented-wave + core cor, Zval =  6.0
     Generated using "atomic" code by A. Dal Corso  v.5.0.99 svn rev. 10869
     Shape of augmentation charge: BESSEL
     Using radial grid of 1095 points,  4 beta functions with: 
                l(1) =   0
                l(2) =   0
                l(3) =   1
                l(4) =   1
     Q(r) pseudized with 0 coefficients 


     atomic species   valence    mass     pseudopotential
        C              4.00    12.01070      C( 1.00)
        N              5.00    14.00670      N( 1.00)
        H              1.00     1.00794      H( 1.00)
        O              6.00    15.99940      O( 1.00)

      2 Sym. Ops., with inversion, found



   Cartesian axes

     site n.     atom                  positions (alat units)
         1           C   tau(   1) = (   0.5529967   0.8191169   0.5338398  )
         2           C   tau(   2) = (   1.2153529   0.2278928   1.7556783  )
         3           C   tau(   3) = (   0.6175901   0.9674317   0.6937307  )
         4           C   tau(   4) = (   1.1507595   0.0795780   1.5957875  )
         5           C   tau(   5) = (   0.6659100   0.8716156   0.8917271  )
         6           C   tau(   6) = (   1.1024395   0.1753941   1.3977910  )
         7           C   tau(   7) = (   0.8182950   0.7071269   0.8672897  )
         8           C   tau(   8) = (   0.9500546   0.3398828   1.4222284  )
         9           C   tau(   9) = (   0.7510492   0.5545109   0.7155280  )
        10           C   tau(  10) = (   1.0173004   0.4924988   1.5739902  )
        11           C   tau(  11) = (   0.7061837   0.6515407   0.5172687  )
        12           C   tau(  12) = (   1.0621659   0.3954690   1.7722495  )
        13           C   tau(  13) = (   0.5526591   0.9227614   0.3336657  )
        14           C   tau(  14) = (   1.2156905   0.1242483   1.9558525  )
        15           C   tau(  15) = (   0.3483629   0.7376187   0.5924816  )
        16           C   tau(  16) = (   1.4199867   0.3093910   1.6970366  )
        17           C   tau(  17) = (   0.2664689   0.5702964   0.4683230  )
        18           C   tau(  18) = (   1.5018806   0.4767133   1.8211952  )
        19           O   tau(  19) = (   0.2558151   0.4003883   0.5451505  )
        20           O   tau(  20) = (   1.5125344   0.6466214   1.7443676  )
        21           O   tau(  21) = (   1.2082523   0.6079314   0.2930201  )
        22           O   tau(  22) = (   0.5600973   0.4390783   1.9964981  )
        23           N   tau(  23) = (   0.1181393   0.0815500   0.3254423  )
        24           N   tau(  24) = (   1.6502103   0.9654597   1.9640758  )
        25           H   tau(  25) = (   0.4296355   0.0152908   0.6403445  )
        26           H   tau(  26) = (   1.3387141   1.0317190   1.6491736  )
        27           H   tau(  27) = (   0.1817118   0.0503106   0.7135640  )
        28           H   tau(  28) = (   1.5866378   0.9966991   1.5759542  )
        29           H   tau(  29) = (   0.7208153   0.9845081   0.9938686  )
        30           H   tau(  30) = (   1.0475343   0.0625017   1.2956495  )
        31           H   tau(  31) = (   0.5318516   0.8114218   0.9595346  )
        32           H   tau(  32) = (   1.2364980   0.2355879   1.3299836  )
        33           H   tau(  33) = (   0.9584895   0.7722752   0.8177879  )
        34           H   tau(  34) = (   0.8098601   0.2747345   1.4717303  )
        35           H   tau(  35) = (   0.8465998   0.6357266   1.0098515  )
        36           H   tau(  36) = (   0.9217498   0.4112831   1.2796667  )
        37           H   tau(  37) = (   0.8662369   0.4426867   0.6957450  )
        38           H   tau(  38) = (   0.9021127   0.6043230   1.5937732  )
        39           H   tau(  39) = (   0.6191540   0.4776472   0.7707681  )
        40           H   tau(  40) = (   1.1491956   0.5693626   1.5187501  )
        41           H   tau(  41) = (   0.8430109   0.7137991   0.4572134  )
        42           H   tau(  42) = (   0.9253387   0.3332106   1.8323048  )
        43           H   tau(  43) = (   0.6543338   0.5411722   0.4102478  )
        44           H   tau(  44) = (   1.1140157   0.5058375   1.8792703  )
        45           H   tau(  45) = (   0.7049860   0.9609685   0.2955923  )
        46           H   tau(  46) = (   1.0633636   0.0860412   1.9939258  )
        47           H   tau(  47) = (   0.4934649   0.8263833   0.2187790  )
        48           H   tau(  48) = (   1.2748847   0.2206264   2.0707391  )
        49           H   tau(  49) = (   1.3573540   0.6857573   0.7447445  )
        50           H   tau(  50) = (   0.4109955   0.3612524   1.5447736  )
        51           H   tau(  51) = (   1.2410894   0.8581984   0.5895348  )
        52           H   tau(  52) = (   0.5272601   0.1888113   1.6999833  )
        53           H   tau(  53) = (   0.1840765   0.1967903   0.4068698  )
        54           H   tau(  54) = (   1.5842731   0.8502194   1.8826484  )
        55           H   tau(  55) = (   0.1168171   0.1265584   0.1788728  )
        56           H   tau(  56) = (   1.6515325   0.9204514   2.1106454  )
        57           H   tau(  57) = (   0.9744112   0.0690169   0.3810842  )
        58           H   tau(  58) = (   0.7939384   0.9779928   1.9084339  )
        59           O   tau(  59) = (   1.2133187   0.3844237   0.9459648  )
        60           O   tau(  60) = (   0.5550309   0.6625860   1.3435533  )
        61           H   tau(  61) = (   1.0970569   0.2978897   0.9600115  )
        62           H   tau(  62) = (   0.6712926   0.7491200   1.3295066  )
        63           H   tau(  63) = (   1.2366965   0.3905130   0.8005225  )
        64           H   tau(  64) = (   0.5316531   0.6564967   1.4889957  )
        65           O   tau(  65) = (   0.8655906   0.1335708   0.9341395  )
        66           O   tau(  66) = (   0.9027590   0.9134390   1.3553787  )
        67           H   tau(  67) = (   0.7553954   0.1934449   1.0102242  )
        68           H   tau(  68) = (   1.0129542   0.8535648   1.2792939  )
        69           H   tau(  69) = (   0.8823694   0.0011281   0.9901323  )
        70           H   tau(  70) = (   0.8859802   1.0458816   1.2993859  )
        71           O   tau(  71) = (   0.7514646   0.0860879   0.5146784  )
        72           O   tau(  72) = (   1.0168850   0.9609218   1.7748398  )
        73           H   tau(  73) = (   0.7655662   0.1357217   0.6497918  )
        74           H   tau(  74) = (   1.0027834   0.9112880   1.6397264  )
        75           H   tau(  75) = (   0.6650132   0.1724663   0.4374551  )
        76           H   tau(  76) = (   1.1033364   0.8745434   1.8520630  )
        77           O   tau(  77) = (   0.5960038   0.2192004   0.1689962  )
        78           O   tau(  78) = (   1.1723458   0.8278093   2.1205220  )
        79           H   tau(  79) = (   0.6991328   0.3125311   0.1226500  )
        80           H   tau(  80) = (   1.0692167   0.7344786   2.1668682  )
        81           H   tau(  81) = (   0.4809614   0.2285085   0.0796989  )
        82           H   tau(  82) = (   1.2873881   0.8185012   2.2098192  )
        83           O   tau(  83) = (   0.5529392   0.2812089   1.1493892  )
        84           O   tau(  84) = (   1.2154103   0.7658008   1.1401289  )
        85           H   tau(  85) = (   0.5748379   0.4051349   1.2223971  )
        86           H   tau(  86) = (   1.1935117   0.6418748   1.0671211  )
        87           H   tau(  87) = (   0.4307471   0.3061817   1.0720520  )
        88           H   tau(  88) = (   1.3376025   0.7408280   1.2174661  )
        89           O   tau(  89) = (   0.8533312   0.6149885   2.2168233  )
        90           O   tau(  90) = (   0.9150184   0.4320213   0.0726948  )
        91           H   tau(  91) = (   0.3460352   0.5882985   0.0591767  )
        92           H   tau(  92) = (   1.4223143   0.4587112   2.2303414  )
        93           H   tau(  93) = (   0.7536013   0.5609196   2.1250324  )
        94           H   tau(  94) = (   1.0147483   0.4860901   0.1644857  )
        95           O   tau(  95) = (   1.0542304   0.8911620   0.0557593  )
        96           O   tau(  96) = (   0.7141192   0.1558477   2.2337589  )
        97           H   tau(  97) = (   1.1070988   0.8103333   0.1646793  )
        98           H   tau(  98) = (   0.6612508   0.2366764   2.1248388  )
        99           H   tau(  99) = (   1.0083124   1.0198061   0.1100642  )
       100           H   tau( 100) = (   0.7600372   0.0272036   2.1794539  )

     number of k points=    10
                       cart. coord. in units 2pi/alat
        k(    1) = (   0.0000000   0.0000000   0.0000000), wk =   0.1111111
        k(    2) = (   0.0000000   0.0000000  -0.2183866), wk =   0.1111111
        k(    3) = (   0.0000000   0.3240365  -0.0025927), wk =   0.2222222
        k(    4) = (   0.0000000   0.3240365  -0.2209792), wk =   0.2222222
        k(    5) = (   0.3333333  -0.1037388  -0.0644245), wk =   0.2222222
        k(    6) = (   0.3333333  -0.1037388  -0.2828110), wk =   0.2222222
        k(    7) = (   0.3333333   0.2202976  -0.0670171), wk =   0.2222222
        k(    8) = (   0.3333333   0.2202976  -0.2854037), wk =   0.2222222
        k(    9) = (   0.3333333  -0.4277753  -0.0618318), wk =   0.2222222
        k(   10) = (   0.3333333  -0.4277753  -0.2802183), wk =   0.2222222

     Dense  grid:   672347 G-vectors     FFT dimensions: (  81,  90, 192)

     Estimated max dynamical RAM per process >     590.13MB

     Estimated total allocated dynamical RAM >    4721.05MB

     Check: negative/imaginary core charge=   -0.000002    0.000000

     Initial potential from superposition of free atoms

     starting charge  251.99862, renormalised to  252.00000
     Starting wfc are  214 randomized atomic wfcs
     Checking if some PAW data can be deallocated... 

     total cpu time spent up to now is       36.6 secs

     per-process dynamical memory:   452.5 Mb

     Self-consistent Calculation

     iteration #  1     ecut=   100.00 Ry     beta=0.50
     Davidson diagonalization with overlap
     ethr =  1.00E-02,  avg # of iterations =  4.0

     total cpu time spent up to now is      131.0 secs

     total energy              =   -1210.62161417 Ry
     Harris-Foulkes estimate   =   -1216.37447249 Ry
     estimated scf accuracy    <      10.41559590 Ry

     iteration #  2     ecut=   100.00 Ry     beta=0.50
     Davidson diagonalization with overlap
     ethr =  4.13E-03,  avg # of iterations =  3.9

     total cpu time spent up to now is      201.2 secs

     total energy              =   -1212.79291615 Ry
     Harris-Foulkes estimate   =   -1213.32215315 Ry
     estimated scf accuracy    <       1.24897653 Ry

     iteration #  3     ecut=   100.00 Ry     beta=0.50
     Davidson diagonalization with overlap
     ethr =  4.96E-04,  avg # of iterations =  7.0

     total cpu time spent up to now is      287.3 secs

     total energy              =   -1213.02156089 Ry
     Harris-Foulkes estimate   =   -1213.07790771 Ry
     estimated scf accuracy    <       0.19622516 Ry

     iteration #  4     ecut=   100.00 Ry     beta=0.50
     Davidson diagonalization with overlap
     ethr =  7.79E-05,  avg # of iterations =  3.4

     total cpu time spent up to now is      342.0 secs

     total energy              =   -1213.03320112 Ry
     Harris-Foulkes estimate   =   -1213.03782068 Ry
     estimated scf accuracy    <       0.01867390 Ry

     iteration #  5     ecut=   100.00 Ry     beta=0.50
     Davidson diagonalization with overlap
     ethr =  7.41E-06,  avg # of iterations =  8.6

     total cpu time spent up to now is      461.2 secs

     total energy              =   -1213.04096514 Ry
     Harris-Foulkes estimate   =   -1213.04459681 Ry
     estimated scf accuracy    <       0.00966761 Ry

     iteration #  6     ecut=   100.00 Ry     beta=0.50
     Davidson diagonalization with overlap
     ethr =  3.84E-06,  avg # of iterations =  3.0

     total cpu time spent up to now is      513.5 secs

     total energy              =   -1213.03984013 Ry
     Harris-Foulkes estimate   =   -1213.04160165 Ry
     estimated scf accuracy    <       0.00286427 Ry

     iteration #  7     ecut=   100.00 Ry     beta=0.50
     Davidson diagonalization with overlap
     ethr =  1.14E-06,  avg # of iterations =  5.6

     total cpu time spent up to now is      615.5 secs

     total energy              =   -1213.04141815 Ry
     Harris-Foulkes estimate   =   -1213.04229574 Ry
     estimated scf accuracy    <       0.00221910 Ry

     iteration #  8     ecut=   100.00 Ry     beta=0.50
     Davidson diagonalization with overlap
     ethr =  8.81E-07,  avg # of iterations =  2.9

     total cpu time spent up to now is      666.9 secs

     total energy              =   -1213.04118842 Ry
     Harris-Foulkes estimate   =   -1213.04153289 Ry
     estimated scf accuracy    <       0.00056711 Ry

     iteration #  9     ecut=   100.00 Ry     beta=0.50
     Davidson diagonalization with overlap
     ethr =  2.25E-07,  avg # of iterations =  4.0

     total cpu time spent up to now is      758.2 secs

     total energy              =   -1213.04168771 Ry
     Harris-Foulkes estimate   =   -1213.04183368 Ry
     estimated scf accuracy    <       0.00056716 Ry

     iteration # 10     ecut=   100.00 Ry     beta=0.50
     Davidson diagonalization with overlap
     ethr =  2.25E-07,  avg # of iterations =  1.0

     total cpu time spent up to now is      807.5 secs

     total energy              =   -1213.04153655 Ry
     Harris-Foulkes estimate   =   -1213.04169556 Ry
     estimated scf accuracy    <       0.00030640 Ry

     iteration # 11     ecut=   100.00 Ry     beta=0.50
     Davidson diagonalization with overlap
     ethr =  1.22E-07,  avg # of iterations =  4.0

     total cpu time spent up to now is      886.3 secs

     total energy              =   -1213.04166144 Ry
     Harris-Foulkes estimate   =   -1213.04166797 Ry
     estimated scf accuracy    <       0.00003393 Ry

     iteration # 12     ecut=   100.00 Ry     beta=0.50
     Davidson diagonalization with overlap
     ethr =  1.35E-08,  avg # of iterations =  1.0

     total cpu time spent up to now is      935.3 secs

     total energy              =   -1213.04165218 Ry
     Harris-Foulkes estimate   =   -1213.04166205 Ry
     estimated scf accuracy    <       0.00002248 Ry

     iteration # 13     ecut=   100.00 Ry     beta=0.50
     Davidson diagonalization with overlap
     ethr =  8.92E-09,  avg # of iterations =  3.6

     total cpu time spent up to now is     1002.1 secs

     total energy              =   -1213.04165768 Ry
     Harris-Foulkes estimate   =   -1213.04165792 Ry
     estimated scf accuracy    <       0.00000088 Ry

     iteration # 14     ecut=   100.00 Ry     beta=0.50
     Davidson diagonalization with overlap
     ethr =  3.47E-10,  avg # of iterations =  4.1

     total cpu time spent up to now is     1076.4 secs

     total energy              =   -1213.04165757 Ry
     Harris-Foulkes estimate   =   -1213.04165799 Ry
     estimated scf accuracy    <       0.00000093 Ry

     iteration # 15     ecut=   100.00 Ry     beta=0.50
     Davidson diagonalization with overlap
     ethr =  3.47E-10,  avg # of iterations =  3.7

     total cpu time spent up to now is     1129.6 secs

     total energy              =   -1213.04165752 Ry
     Harris-Foulkes estimate   =   -1213.04165763 Ry
     estimated scf accuracy    <       0.00000019 Ry

     iteration # 16     ecut=   100.00 Ry     beta=0.50
     Davidson diagonalization with overlap
     ethr =  7.71E-11,  avg # of iterations =  4.0

     total cpu time spent up to now is     1220.6 secs

     total energy              =   -1213.04165771 Ry
     Harris-Foulkes estimate   =   -1213.04165774 Ry
     estimated scf accuracy    <       0.00000014 Ry

     iteration # 17     ecut=   100.00 Ry     beta=0.50
     Davidson diagonalization with overlap
     ethr =  5.51E-11,  avg # of iterations =  1.0

     total cpu time spent up to now is     1269.7 secs

     total energy              =   -1213.04165767 Ry
     Harris-Foulkes estimate   =   -1213.04165771 Ry
     estimated scf accuracy    <       0.00000009 Ry

     iteration # 18     ecut=   100.00 Ry     beta=0.50
     Davidson diagonalization with overlap
     ethr =  3.47E-11,  avg # of iterations =  4.0

     total cpu time spent up to now is     1345.9 secs

     total energy              =   -1213.04165770 Ry
     Harris-Foulkes estimate   =   -1213.04165770 Ry
     estimated scf accuracy    <       0.00000001 Ry

     iteration # 19     ecut=   100.00 Ry     beta=0.50
     Davidson diagonalization with overlap
     ethr =  4.30E-12,  avg # of iterations =  1.0

     total cpu time spent up to now is     1394.9 secs

     End of self-consistent calculation

          k = 0.0000 0.0000 0.0000 ( 84017 PWs)   bands (ev):

   -20.3758 -20.3571 -19.3078 -19.2280 -19.0957 -18.9993 -18.9500 -18.8352
   -18.7693 -18.7493 -18.7104 -18.6688 -18.6268 -18.5607 -18.4835 -18.3355
   -17.9935 -17.9362 -17.6189 -17.5853 -14.8060 -14.8057 -13.0181 -13.0114
   -12.0915 -12.0843 -11.4543 -11.4471 -10.5129 -10.4985  -8.9007  -8.8603
    -8.3582  -8.3137  -7.8264  -7.6005  -7.4388  -7.4076  -7.2670  -7.2459
    -7.1247  -7.0781  -7.0244  -7.0004  -6.8794  -6.8310  -6.8020  -6.7690
    -6.7437  -6.7211  -6.6944  -6.6831  -6.6537  -6.5240  -6.1514  -5.9747
    -5.8036  -5.8011  -5.3995  -5.3947  -5.2984  -5.1462  -5.0263  -4.8359
    -4.7296  -4.6686  -4.5788  -4.5114  -4.3783  -4.1357  -4.0496  -3.9805
    -3.9098  -3.8119  -3.7279  -3.6528  -3.5785  -3.5595  -3.5090  -3.4484
    -3.3350  -3.2107  -3.1084  -3.0694  -2.9678  -2.8784  -2.8203  -2.7725
    -2.7538  -2.5565  -2.5341  -2.4990  -2.3834  -2.2427  -2.2400  -2.1573
    -2.0192  -1.9400  -1.9110  -1.9098  -1.5436  -1.4938  -1.3480  -1.3422
    -1.2990  -1.2665  -1.2637  -1.2329  -1.2311  -1.2029  -1.1424  -1.0319
    -1.0078  -0.9624  -0.9005  -0.8603  -0.8374  -0.8370  -0.6981  -0.6842
    -0.6558  -0.6361  -0.1923  -0.1712  -0.0706  -0.0646   5.1551   5.2486
     5.3865   5.8482   6.2247   7.3324   7.4776   7.8470   7.8573   7.8941
     8.0059   8.0678   8.0725   8.1473   8.2173   8.3631   8.3719   8.5706
     8.5723   8.7753   8.8551   8.9126   8.9875   9.0231   9.2057

          k = 0.0000 0.0000-0.2184 ( 84042 PWs)   bands (ev):

   -20.3755 -20.3574 -19.3076 -19.2286 -19.0637 -19.0548 -18.9275 -18.8256
   -18.7804 -18.7380 -18.7160 -18.6741 -18.6216 -18.5633 -18.4837 -18.3363
   -17.9913 -17.9377 -17.6189 -17.5854 -14.8061 -14.8056 -13.0185 -13.0111
   -12.0919 -12.0838 -11.4547 -11.4468 -10.5104 -10.5011  -8.8972  -8.8634
    -8.3464  -8.3275  -7.8170  -7.6048  -7.4403  -7.4388  -7.2661  -7.2343
    -7.1064  -7.0740  -7.0320  -6.9813  -6.8845  -6.8464  -6.7807  -6.7710
    -6.7549  -6.7180  -6.6995  -6.6653  -6.6568  -6.5225  -6.1872  -5.9641
    -5.8177  -5.7855  -5.4110  -5.3845  -5.3072  -5.1209  -4.9884  -4.9071
    -4.7736  -4.6135  -4.5669  -4.4572  -4.4321  -4.1381  -4.0514  -3.9735
    -3.9239  -3.8060  -3.7318  -3.6489  -3.5834  -3.5332  -3.5168  -3.3910
    -3.3254  -3.3075  -3.1090  -3.0599  -2.9495  -2.8528  -2.8481  -2.7678
    -2.7647  -2.5468  -2.5353  -2.5350  -2.3375  -2.2728  -2.2171  -2.1689
    -2.0082  -1.9438  -1.9149  -1.9069  -1.5499  -1.4945  -1.3723  -1.3209
    -1.3100  -1.2649  -1.2568  -1.2373  -1.2271  -1.1885  -1.1542  -1.0713
    -1.0030  -0.8978  -0.8877  -0.8610  -0.8543  -0.8330  -0.7208  -0.6835
    -0.6630  -0.6287  -0.1869  -0.1762  -0.0752  -0.0606   5.1324   5.3061
     5.4983   5.5407   6.6946   6.7815   7.7483   7.7660   7.8795   7.9129
     7.9447   8.0383   8.0725   8.2784   8.3416   8.3859   8.4575   8.4890
     8.5307   8.7069   8.8143   8.9351   9.0074   9.0358   9.1082

          k = 0.0000 0.3240-0.0026 ( 84101 PWs)   bands (ev):

   -20.3723 -20.3549 -19.2585 -19.2041 -19.1235 -19.0648 -18.9303 -18.8461
   -18.8365 -18.7540 -18.7100 -18.6431 -18.6098 -18.5769 -18.4443 -18.3232
   -17.9938 -17.9607 -17.6030 -17.5840 -14.7974 -14.7972 -12.9997 -12.9946
   -12.0910 -12.0859 -11.5031 -11.4957 -10.4717 -10.4565  -8.8630  -8.8411
    -8.3081  -8.2891  -7.9708  -7.8110  -7.4452  -7.3914  -7.2845  -7.2564
    -7.2087  -7.0546  -6.9886  -6.9339  -6.8941  -6.8600  -6.8051  -6.7965
    -6.7494  -6.7264  -6.7097  -6.6638  -6.6579  -6.5804  -6.0877  -6.0539
    -5.6397  -5.5673  -5.3819  -5.3598  -5.2781  -5.1736  -5.1087  -4.9141
    -4.6465  -4.5325  -4.4658  -4.4079  -4.2980  -4.2255  -4.0989  -4.0091
    -3.9482  -3.8335  -3.8083  -3.7698  -3.7088  -3.6307  -3.4505  -3.3963
    -3.3334  -3.2401  -2.9913  -2.9700  -2.9381  -2.7915  -2.7741  -2.7418
    -2.7199  -2.6590  -2.5936  -2.5406  -2.3378  -2.2991  -2.2690  -2.2204
    -2.0099  -2.0010  -1.9508  -1.9208  -1.5165  -1.4520  -1.3376  -1.3067
    -1.2871  -1.2614  -1.2516  -1.2261  -1.2225  -1.2009  -1.1653  -1.1050
    -0.9851  -0.9352  -0.9113  -0.8681  -0.8344  -0.8015  -0.7847  -0.7171
    -0.6922  -0.6692  -0.1884  -0.1656  -0.0800  -0.0631   5.2759   5.3226
     5.7098   6.1439   6.3684   6.8937   6.9768   7.3861   7.5738   7.8125
     7.8745   7.9890   8.1138   8.1495   8.3106   8.4004   8.5626   8.6333
     8.7595   8.7862   8.8821   8.9071   8.9249   9.0602   9.1528

          k = 0.0000 0.3240-0.2210 ( 84074 PWs)   bands (ev):

   -20.3720 -20.3551 -19.2589 -19.2012 -19.1285 -19.0568 -18.9460 -18.8570
   -18.8163 -18.7396 -18.7142 -18.6525 -18.6096 -18.5766 -18.4455 -18.3227
   -17.9918 -17.9622 -17.6030 -17.5841 -14.7974 -14.7971 -12.9995 -12.9948
   -12.0911 -12.0859 -11.5030 -11.4958 -10.4684 -10.4599  -8.8625  -8.8418
    -8.3118  -8.2846  -7.9624  -7.8202  -7.4545  -7.3863  -7.2876  -7.2510
    -7.2159  -7.0256  -6.9955  -6.9350  -6.8945  -6.8612  -6.8305  -6.7923
    -6.7703  -6.7263  -6.7094  -6.6531  -6.6254  -6.5815  -6.1072  -6.0502
    -5.6476  -5.5554  -5.3805  -5.3683  -5.2847  -5.1676  -5.0477  -4.9668
    -4.6560  -4.5207  -4.4573  -4.4142  -4.2983  -4.2302  -4.1282  -4.0049
    -3.8953  -3.8740  -3.8461  -3.7731  -3.6244  -3.5827  -3.5371  -3.3919
    -3.2898  -3.2696  -3.0326  -2.9676  -2.8851  -2.8334  -2.7734  -2.7349
    -2.6816  -2.6639  -2.6517  -2.4701  -2.3872  -2.3066  -2.2726  -2.1851
    -2.0259  -1.9964  -1.9396  -1.9314  -1.5073  -1.4709  -1.3421  -1.3113
    -1.2830  -1.2512  -1.2452  -1.2264  -1.2199  -1.2040  -1.1705  -1.0912
    -0.9833  -0.9293  -0.9127  -0.8805  -0.8415  -0.8108  -0.7735  -0.7239
    -0.6848  -0.6666  -0.1869  -0.1659  -0.0788  -0.0653   5.2651   5.3327
     5.7859   5.9507   6.5655   6.7811   7.0824   7.2876   7.5613   7.7094
     7.9764   8.0542   8.1521   8.1890   8.2750   8.3778   8.4972   8.6160
     8.6941   8.7727   8.8824   8.9774   9.0487   9.1191   9.1992

          k = 0.3333-0.1037-0.0644 ( 83985 PWs)   bands (ev):

   -20.3741 -20.3567 -19.2388 -19.1946 -19.0891 -19.0488 -18.9552 -18.9286
   -18.8427 -18.7896 -18.6743 -18.6095 -18.6094 -18.5542 -18.5067 -18.2729
   -17.9850 -17.9468 -17.6206 -17.5919 -14.8027 -14.8013 -13.0324 -13.0287
   -12.0946 -12.0884 -11.4457 -11.4380 -10.5054 -10.4940  -8.8924  -8.8618
    -8.3595  -8.3385  -7.8469  -7.6122  -7.4162  -7.3634  -7.3440  -7.2492
    -7.0808  -7.0586  -6.9427  -6.9352  -6.8789  -6.8585  -6.7957  -6.7778
    -6.7437  -6.7020  -6.7001  -6.6779  -6.6325  -6.5371  -6.1254  -5.9597
    -5.7851  -5.7628  -5.4106  -5.3697  -5.2296  -5.1498  -5.0911  -4.8551
    -4.6786  -4.6305  -4.5734  -4.5502  -4.4411  -4.2562  -4.1671  -4.1193
    -4.0478  -3.9479  -3.8051  -3.7020  -3.5884  -3.4711  -3.4343  -3.3150
    -3.2325  -3.2141  -3.1202  -2.9728  -2.8908  -2.8650  -2.7848  -2.7495
    -2.7189  -2.5730  -2.5536  -2.4630  -2.3972  -2.3356  -2.2536  -2.2416
    -1.9873  -1.9659  -1.8972  -1.8575  -1.5844  -1.4887  -1.3810  -1.3141
    -1.2916  -1.2632  -1.2390  -1.2160  -1.1903  -1.1539  -1.1298  -1.0844
    -1.0382  -0.9446  -0.9020  -0.8562  -0.8106  -0.7853  -0.7714  -0.7203
    -0.7027  -0.6705  -0.1924  -0.1869  -0.0750  -0.0601   5.1198   5.2286
     5.8078   6.2008   6.6701   6.8838   7.1801   7.5238   7.6748   7.7379
     7.9053   7.9895   8.0582   8.1700   8.2508   8.3294   8.3617   8.4823
     8.5437   8.6244   8.8249   8.8648   8.9123   9.0186   9.0403

          k = 0.3333-0.1037-0.2828 ( 83987 PWs)   bands (ev):

   -20.3739 -20.3569 -19.2375 -19.1965 -19.0896 -19.0172 -19.0113 -18.9070
   -18.8382 -18.7871 -18.6779 -18.6099 -18.6046 -18.5494 -18.5168 -18.2719
   -17.9827 -17.9486 -17.6206 -17.5920 -14.8023 -14.8017 -13.0323 -13.0288
   -12.0944 -12.0886 -11.4446 -11.4391 -10.5044 -10.4948  -8.8868  -8.8679
    -8.3625  -8.3357  -7.8349  -7.6324  -7.4125  -7.3803  -7.3348  -7.2566
    -7.0601  -7.0447  -6.9472  -6.9210  -6.8844  -6.8629  -6.7963  -6.7849
    -6.7291  -6.7200  -6.6965  -6.6809  -6.6283  -6.5342  -6.1399  -5.9644
    -5.7778  -5.7651  -5.4099  -5.3822  -5.2283  -5.1453  -5.0604  -4.8767
    -4.7173  -4.6133  -4.5844  -4.4962  -4.4639  -4.2563  -4.1624  -4.1432
    -4.0592  -3.8872  -3.7978  -3.6864  -3.6210  -3.5060  -3.4001  -3.3600
    -3.2395  -3.1701  -3.1277  -2.9820  -2.8868  -2.8402  -2.8075  -2.7457
    -2.7163  -2.5477  -2.5408  -2.5167  -2.3982  -2.3180  -2.3060  -2.1965
    -1.9858  -1.9720  -1.8977  -1.8552  -1.5853  -1.4669  -1.4087  -1.3135
    -1.2955  -1.2635  -1.2284  -1.2052  -1.1818  -1.1702  -1.1192  -1.1037
    -1.0156  -0.9487  -0.9105  -0.8707  -0.8004  -0.7911  -0.7640  -0.7211
    -0.7044  -0.6660  -0.1971  -0.1818  -0.0706  -0.0650   5.1147   5.2387
     5.8160   6.1179   6.8092   6.9293   7.2110   7.2699   7.7205   7.8506
     7.8649   7.9522   8.0345   8.0885   8.3566   8.3880   8.3966   8.4388
     8.5463   8.7033   8.7434   8.8700   8.9026   9.0392   9.0474

          k = 0.3333 0.2203-0.0670 ( 84057 PWs)   bands (ev):

   -20.3718 -20.3547 -19.2443 -19.1748 -19.0957 -18.9988 -18.9471 -18.8957
   -18.8890 -18.8085 -18.7303 -18.6905 -18.6646 -18.4751 -18.4420 -18.2518
   -18.0026 -17.9678 -17.6061 -17.5850 -14.7929 -14.7923 -13.0170 -13.0087
   -12.0979 -12.0914 -11.4958 -11.4890 -10.4660 -10.4523  -8.8777  -8.8465
    -8.3361  -8.2912  -7.9671  -7.8006  -7.4399  -7.3432  -7.3002  -7.2786
    -7.1369  -7.1052  -6.9078  -6.8779  -6.8483  -6.8279  -6.8049  -6.7954
    -6.7685  -6.7428  -6.6933  -6.6612  -6.6301  -6.5335  -6.0928  -6.0381
    -5.6382  -5.5642  -5.4407  -5.3962  -5.2440  -5.1777  -5.1206  -4.9023
    -4.7324  -4.5680  -4.5098  -4.4683  -4.3619  -4.2054  -4.1330  -4.0401
    -3.9804  -3.8744  -3.7620  -3.7195  -3.6620  -3.5545  -3.4361  -3.3242
    -3.2900  -3.1658  -3.1263  -3.0173  -2.9203  -2.8954  -2.7749  -2.7322
    -2.7307  -2.6816  -2.6324  -2.4889  -2.4045  -2.3337  -2.2593  -2.2356
    -2.0394  -2.0360  -1.8961  -1.8606  -1.5608  -1.4572  -1.3975  -1.3122
    -1.2874  -1.2689  -1.2494  -1.2259  -1.1840  -1.1630  -1.1294  -1.0889
    -1.0031  -0.9418  -0.9002  -0.8902  -0.8279  -0.7826  -0.7554  -0.7176
    -0.6981  -0.6835  -0.1871  -0.1565  -0.0856  -0.0746   5.2477   5.3024
     5.8246   6.3530   6.6013   7.1321   7.2336   7.3373   7.4892   7.6185
     7.6616   7.7728   7.9849   8.0379   8.1016   8.1652   8.3111   8.4856
     8.6201   8.7913   8.9028   8.9580   9.0289   9.1211   9.1299

          k = 0.3333 0.2203-0.2854 ( 84043 PWs)   bands (ev):

   -20.3715 -20.3549 -19.2431 -19.1785 -19.0837 -19.0146 -18.9428 -18.9122
   -18.8700 -18.8123 -18.7144 -18.6985 -18.6683 -18.4685 -18.4503 -18.2518
   -17.9988 -17.9707 -17.6061 -17.5851 -14.7936 -14.7916 -13.0178 -13.0079
   -12.0983 -12.0911 -11.4953 -11.4895 -10.4667 -10.4516  -8.8746  -8.8503
    -8.3174  -8.3121  -7.9512  -7.8131  -7.4452  -7.3397  -7.3034  -7.2776
    -7.1463  -7.0952  -6.9082  -6.8671  -6.8601  -6.8392  -6.8129  -6.7930
    -6.7492  -6.7194  -6.7005  -6.6579  -6.6413  -6.5374  -6.0987  -6.0336
    -5.6330  -5.5660  -5.4509  -5.4024  -5.2534  -5.1787  -5.0767  -4.9196
    -4.7293  -4.5652  -4.5255  -4.4786  -4.3679  -4.1980  -4.1423  -4.0410
    -3.9294  -3.8712  -3.7903  -3.7466  -3.6031  -3.5853  -3.4210  -3.3353
    -3.2843  -3.1853  -3.0780  -3.0623  -2.9096  -2.8863  -2.7747  -2.7668
    -2.7065  -2.6688  -2.6475  -2.5204  -2.4064  -2.3299  -2.2546  -2.1994
    -2.0560  -2.0327  -1.9024  -1.8587  -1.5466  -1.4588  -1.3867  -1.3560
    -1.2940  -1.2677  -1.2408  -1.2283  -1.1838  -1.1529  -1.1181  -1.0898
    -0.9940  -0.9461  -0.8989  -0.8810  -0.8204  -0.8038  -0.7479  -0.7230
    -0.7017  -0.6820  -0.1787  -0.1635  -0.0912  -0.0700   5.2287   5.3270
     5.8451   6.2037   6.8637   7.0388   7.1524   7.4161   7.5363   7.5506
     7.6148   7.7388   7.9402   8.0265   8.1719   8.2449   8.3006   8.5640
     8.6485   8.7503   8.8425   8.9493   9.0045   9.0660   9.1041

          k = 0.3333-0.4278-0.0618 ( 84062 PWs)   bands (ev):

   -20.3712 -20.3545 -19.1905 -19.1693 -19.1161 -19.0898 -18.9442 -18.9179
   -18.8266 -18.8139 -18.7622 -18.6648 -18.6240 -18.4818 -18.4451 -18.2679
   -17.9925 -17.9708 -17.6050 -17.5878 -14.7934 -14.7926 -13.0161 -13.0102
   -12.0960 -12.0905 -11.4948 -11.4884 -10.4651 -10.4525  -8.8659  -8.8449
    -8.3269  -8.2978  -7.9679  -7.7885  -7.4347  -7.3898  -7.3461  -7.2651
    -7.1219  -7.0608  -6.9488  -6.8979  -6.8693  -6.8274  -6.8102  -6.7882
    -6.7662  -6.7193  -6.6968  -6.6685  -6.6141  -6.5656  -6.0666  -6.0342
    -5.6092  -5.5218  -5.4360  -5.4045  -5.2747  -5.1686  -5.1197  -4.9320
    -4.6366  -4.6046  -4.5620  -4.3421  -4.3339  -4.1793  -4.1453  -4.1274
    -3.9967  -3.9811  -3.8694  -3.6854  -3.6776  -3.5507  -3.5430  -3.3711
    -3.2990  -3.1998  -3.0298  -2.9314  -2.8166  -2.7970  -2.7552  -2.7063
    -2.6775  -2.6517  -2.5690  -2.5109  -2.4644  -2.3982  -2.2763  -2.2470
    -2.0643  -2.0440  -1.8724  -1.8447  -1.5505  -1.4487  -1.3764  -1.3332
    -1.3152  -1.2515  -1.2457  -1.2261  -1.1972  -1.1774  -1.1366  -1.0922
    -0.9928  -0.9093  -0.9013  -0.8818  -0.8293  -0.8109  -0.7942  -0.7397
    -0.7318  -0.7019  -0.1747  -0.1668  -0.0690  -0.0457   5.2120   5.3055
     6.2935   6.3765   6.5863   6.7616   7.0365   7.1651   7.4575   7.5330
     7.7540   7.8428   8.0381   8.0939   8.2366   8.2641   8.3570   8.4719
     8.5704   8.6541   8.8220   8.8783   9.0152   9.0791   9.2168

          k = 0.3333-0.4278-0.2802 ( 84058 PWs)   bands (ev):

   -20.3710 -20.3548 -19.1851 -19.1653 -19.1466 -19.0431 -18.9944 -18.9036
   -18.8142 -18.8096 -18.7675 -18.6551 -18.6325 -18.4854 -18.4451 -18.2669
   -17.9899 -17.9730 -17.6049 -17.5879 -14.7940 -14.7920 -13.0165 -13.0097
   -12.0957 -12.0908 -11.4938 -11.4895 -10.4653 -10.4523  -8.8625  -8.8490
    -8.3200  -8.3052  -7.9578  -7.7968  -7.4405  -7.3868  -7.3485  -7.2640
    -7.1245  -7.0711  -6.9198  -6.8996  -6.8742  -6.8281  -6.8133  -6.7907
    -6.7675  -6.7166  -6.6983  -6.6675  -6.6000  -6.5741  -6.0752  -6.0340
    -5.6127  -5.5203  -5.4344  -5.4115  -5.2841  -5.1523  -5.0892  -4.9570
    -4.6316  -4.6022  -4.5529  -4.4391  -4.2594  -4.1784  -4.1589  -4.1223
    -4.0186  -3.9219  -3.8760  -3.7024  -3.6468  -3.6060  -3.5402  -3.3522
    -3.3116  -3.1448  -3.0561  -2.9607  -2.8183  -2.7958  -2.7499  -2.7163
    -2.6618  -2.6306  -2.5514  -2.5362  -2.4654  -2.4024  -2.3315  -2.1968
    -2.0693  -2.0373  -1.8776  -1.8451  -1.5291  -1.4820  -1.3908  -1.3049
    -1.2954  -1.2581  -1.2567  -1.2218  -1.2040  -1.1577  -1.1420  -1.0880
    -0.9880  -0.9552  -0.9118  -0.8573  -0.8303  -0.8085  -0.7850  -0.7416
    -0.7319  -0.7016  -0.1727  -0.1675  -0.0622  -0.0523   5.2181   5.2980
     6.3041   6.3806   6.5187   6.8839   7.0119   7.0573   7.4996   7.6301
     7.7875   7.7960   8.0100   8.0828   8.2311   8.2742   8.3246   8.4386
     8.5872   8.7060   8.7638   8.9266   8.9404   9.0558   9.2032

     highest occupied, lowest unoccupied level (ev):    -0.0457    5.1147

!    total energy              =   -1213.04165770 Ry
     Harris-Foulkes estimate   =   -1213.04165770 Ry
     estimated scf accuracy    <          6.7E-09 Ry

     total all-electron energy =     -4374.636881 Ry

     The total energy is the sum of the following terms:

     one-electron contribution =    -550.41422699 Ry
     hartree contribution      =     375.05181929 Ry
     xc contribution           =    -264.57790122 Ry
     ewald contribution        =    -465.29263590 Ry
     Dispersion Correction     =      -0.45893580 Ry
     one-center paw contrib.   =    -307.34977706 Ry

     convergence has been achieved in  19 iterations

     Forces acting on atoms (cartesian axes, Ry/au):

     atom    1 type  1   force =     0.00261166    0.00055935   -0.00111217
     atom    2 type  1   force =    -0.00261166   -0.00055935    0.00111217
     atom    3 type  1   force =    -0.00150806   -0.00040857    0.00200704
     atom    4 type  1   force =     0.00150806    0.00040857   -0.00200704
     atom    5 type  1   force =     0.00239098   -0.00252783   -0.00089213
     atom    6 type  1   force =    -0.00239098    0.00252783    0.00089213
     atom    7 type  1   force =    -0.00155308    0.00114105   -0.00000470
     atom    8 type  1   force =     0.00155308   -0.00114105    0.00000470
     atom    9 type  1   force =    -0.00032256    0.00118495    0.00131446
     atom   10 type  1   force =     0.00032256   -0.00118495   -0.00131446
     atom   11 type  1   force =    -0.00417940   -0.00114444    0.00257524
     atom   12 type  1   force =     0.00417940    0.00114444   -0.00257524
     atom   13 type  1   force =     0.00024909   -0.00130730    0.00071469
     atom   14 type  1   force =    -0.00024909    0.00130730   -0.00071469
     atom   15 type  1   force =    -0.00406990   -0.00198651    0.00050217
     atom   16 type  1   force =     0.00406990    0.00198651   -0.00050217
     atom   17 type  1   force =    -0.00001755    0.00073429   -0.00136525
     atom   18 type  1   force =     0.00001755   -0.00073429    0.00136525
     atom   19 type  4   force =     0.00092410   -0.00116077    0.00287690
     atom   20 type  4   force =    -0.00092410    0.00116077   -0.00287690
     atom   21 type  4   force =     0.00124416   -0.00059942   -0.00165327
     atom   22 type  4   force =    -0.00124416    0.00059942    0.00165327
     atom   23 type  2   force =    -0.00129513    0.00100845    0.00173878
     atom   24 type  2   force =     0.00129513   -0.00100845   -0.00173878
     atom   25 type  3   force =     0.00073776    0.00081656   -0.00144194
     atom   26 type  3   force =    -0.00073776   -0.00081656    0.00144194
     atom   27 type  3   force =     0.00041235   -0.00031174    0.00002115
     atom   28 type  3   force =    -0.00041235    0.00031174   -0.00002115
     atom   29 type  3   force =     0.00048159    0.00050489   -0.00022000
     atom   30 type  3   force =    -0.00048159   -0.00050489    0.00022000
     atom   31 type  3   force =    -0.00042242   -0.00026776    0.00001182
     atom   32 type  3   force =     0.00042242    0.00026776   -0.00001182
     atom   33 type  3   force =     0.00081427   -0.00031996   -0.00013610
     atom   34 type  3   force =    -0.00081427    0.00031996    0.00013610
     atom   35 type  3   force =     0.00046061   -0.00082344    0.00054592
     atom   36 type  3   force =    -0.00046061    0.00082344   -0.00054592
     atom   37 type  3   force =     0.00009546   -0.00004847   -0.00053897
     atom   38 type  3   force =    -0.00009546    0.00004847    0.00053897
     atom   39 type  3   force =     0.00019551   -0.00022047   -0.00024945
     atom   40 type  3   force =    -0.00019551    0.00022047    0.00024945
     atom   41 type  3   force =     0.00348793    0.00152510   -0.00012193
     atom   42 type  3   force =    -0.00348793   -0.00152510    0.00012193
     atom   43 type  3   force =     0.00002628    0.00011794   -0.00070533
     atom   44 type  3   force =    -0.00002628   -0.00011794    0.00070533
     atom   45 type  3   force =    -0.00067762   -0.00036350   -0.00134699
     atom   46 type  3   force =     0.00067762    0.00036350    0.00134699
     atom   47 type  3   force =     0.00055465   -0.00059417   -0.00046055
     atom   48 type  3   force =    -0.00055465    0.00059417    0.00046055
     atom   49 type  3   force =    -0.00000122   -0.00024935    0.00145482
     atom   50 type  3   force =     0.00000122    0.00024935   -0.00145482
     atom   51 type  3   force =    -0.00151154    0.00058940   -0.00132638
     atom   52 type  3   force =     0.00151154   -0.00058940    0.00132638
     atom   53 type  3   force =    -0.00016354    0.00059765    0.00039819
     atom   54 type  3   force =     0.00016354   -0.00059765   -0.00039819
     atom   55 type  3   force =    -0.00018142    0.00070398   -0.00053837
     atom   56 type  3   force =     0.00018142   -0.00070398    0.00053837
     atom   57 type  3   force =     0.00121549   -0.00032515   -0.00004199
     atom   58 type  3   force =    -0.00121549    0.00032515    0.00004199
     atom   59 type  4   force =    -0.00032829   -0.00050949   -0.00024747
     atom   60 type  4   force =     0.00032829    0.00050949    0.00024747
     atom   61 type  3   force =    -0.00020954   -0.00039384   -0.00046725
     atom   62 type  3   force =     0.00020954    0.00039384    0.00046725
     atom   63 type  3   force =    -0.00015623    0.00015342    0.00012646
     atom   64 type  3   force =     0.00015623   -0.00015342   -0.00012646
     atom   65 type  4   force =    -0.00003329    0.00023820   -0.00048035
     atom   66 type  4   force =     0.00003329   -0.00023820    0.00048035
     atom   67 type  3   force =     0.00008222   -0.00014257    0.00021374
     atom   68 type  3   force =    -0.00008222    0.00014257   -0.00021374
     atom   69 type  3   force =     0.00038362    0.00018977   -0.00034726
     atom   70 type  3   force =    -0.00038362   -0.00018977    0.00034726
     atom   71 type  4   force =    -0.00006958    0.00188039    0.00136830
     atom   72 type  4   force =     0.00006958   -0.00188039   -0.00136830
     atom   73 type  3   force =     0.00007994   -0.00011415   -0.00072397
     atom   74 type  3   force =    -0.00007994    0.00011415    0.00072397
     atom   75 type  3   force =     0.00015797   -0.00021834    0.00012544
     atom   76 type  3   force =    -0.00015797    0.00021834   -0.00012544
     atom   77 type  4   force =    -0.00059559    0.00064608   -0.00049781
     atom   78 type  4   force =     0.00059559   -0.00064608    0.00049781
     atom   79 type  3   force =     0.00008458   -0.00033598   -0.00038463
     atom   80 type  3   force =    -0.00008458    0.00033598    0.00038463
     atom   81 type  3   force =     0.00014160    0.00030691    0.00050233
     atom   82 type  3   force =    -0.00014160   -0.00030691   -0.00050233
     atom   83 type  4   force =    -0.00077175    0.00019739    0.00017209
     atom   84 type  4   force =     0.00077175   -0.00019739   -0.00017209
     atom   85 type  3   force =     0.00037426    0.00016876    0.00031985
     atom   86 type  3   force =    -0.00037426   -0.00016876   -0.00031985
     atom   87 type  3   force =     0.00031128    0.00005051   -0.00041855
     atom   88 type  3   force =    -0.00031128   -0.00005051    0.00041855
     atom   89 type  4   force =    -0.00026903   -0.00033545   -0.00023950
     atom   90 type  4   force =     0.00026903    0.00033545    0.00023950
     atom   91 type  3   force =     0.00003494   -0.00001112   -0.00029858
     atom   92 type  3   force =    -0.00003494    0.00001112    0.00029858
     atom   93 type  3   force =    -0.00030018   -0.00012688    0.00037325
     atom   94 type  3   force =     0.00030018    0.00012688   -0.00037325
     atom   95 type  4   force =     0.00042476   -0.00042162    0.00031467
     atom   96 type  4   force =    -0.00042476    0.00042162   -0.00031467
     atom   97 type  3   force =     0.00008231   -0.00054062    0.00036996
     atom   98 type  3   force =    -0.00008231    0.00054062   -0.00036996
     atom   99 type  3   force =     0.00037631    0.00127394    0.00049783
     atom  100 type  3   force =    -0.00037631   -0.00127394   -0.00049783

     Total force =     0.017603     Total SCF correction =     0.000125


     Computing stress (Cartesian axis) and pressure

          total   stress  (Ry/bohr**3)                   (kbar)     P=   -6.17
  -0.00003435  -0.00000520  -0.00001262         -5.05     -0.76     -1.86
  -0.00000520  -0.00003766  -0.00001107         -0.76     -5.54     -1.63
  -0.00001262  -0.00001107  -0.00005378         -1.86     -1.63     -7.91


     Writing output data file scf.save
 
     init_run     :     34.61s CPU     35.89s WALL (       1 calls)
     electrons    :   1302.90s CPU   1358.55s WALL (       1 calls)
     forces       :     18.14s CPU     18.29s WALL (       1 calls)
     stress       :     64.14s CPU     64.38s WALL (       1 calls)

     Called by init_run:
     wfcinit      :     25.98s CPU     27.14s WALL (       1 calls)
     potinit      :      3.09s CPU      3.11s WALL (       1 calls)

     Called by electrons:
     c_bands      :   1162.67s CPU   1209.68s WALL (      19 calls)
     sum_band     :    125.68s CPU    133.02s WALL (      19 calls)
     v_of_rho     :      1.74s CPU      1.93s WALL (      20 calls)
     newd         :      4.25s CPU      5.20s WALL (      20 calls)
     PAW_pot      :      7.78s CPU      7.78s WALL (      20 calls)
     mix_rho      :      0.41s CPU      0.44s WALL (      19 calls)

     Called by c_bands:
     init_us_2    :      7.51s CPU      7.54s WALL (     410 calls)
     cegterg      :   1137.52s CPU   1184.46s WALL (     190 calls)

     Called by sum_band:
     sum_band:bec :      0.07s CPU      0.07s WALL (     190 calls)
     addusdens    :      4.21s CPU      5.14s WALL (      19 calls)

     Called by *egterg:
     h_psi        :    635.70s CPU    671.64s WALL (     898 calls)
     s_psi        :    127.72s CPU    127.73s WALL (     898 calls)
     g_psi        :      3.36s CPU      3.36s WALL (     698 calls)
     cdiaghg      :     72.58s CPU     72.58s WALL (     888 calls)

     Called by h_psi:
     h_psi:pot    :    631.10s CPU    666.97s WALL (     898 calls)
     h_psi:calbec :    127.14s CPU    127.47s WALL (     898 calls)
     vloc_psi     :    375.74s CPU    411.26s WALL (     898 calls)
     add_vuspsi   :    128.22s CPU    128.24s WALL (     898 calls)

     General routines
     calbec       :    184.80s CPU    185.25s WALL (    1138 calls)
     fft          :      1.23s CPU      1.55s WALL (     284 calls)
     fftw         :    409.79s CPU    448.69s WALL (  188312 calls)
 
     Parallel routines
     fft_scatter  :     86.14s CPU    112.71s WALL (  188596 calls)
 
     PWSCF        : 23m48.84s CPU    25m39.78s WALL

 
   This run was terminated on:  12:49:43  13Nov2017            

=------------------------------------------------------------------------------=
   JOB DONE.
=------------------------------------------------------------------------------=
