
     Program PWSCF v.6.1 (svn rev. 13369) starts on 20Dec2017 at 20:30: 6 

     This program is part of the open-source Quantum ESPRESSO suite
     for quantum simulation of materials; please cite
         "P. Giannozzi et al., J. Phys.:Condens. Matter 21 395502 (2009);
          URL http://www.quantum-espresso.org", 
     in publications or presentations arising from this work. More details at
     http://www.quantum-espresso.org/quote

     Parallel version (MPI), running on     8 processors
     R & G space division:  proc/nbgrp/npool/nimage =       8
     Waiting for input...
     Reading input from standard input

     Current dimensions of program PWSCF are:
     Max number of different atomic species (ntypx) = 10
     Max number of k-points (npk) =  40000
     Max angular momentum in pseudopotentials (lmaxx) =  3
               file C.pbe-n-kjpaw_psl.0.1.UPF: wavefunction(s)  2P renormalized
               file N.pbe-n-kjpaw_psl.0.1.UPF: wavefunction(s)  2P renormalized
               file H.pbe-kjpaw_psl.0.1.UPF: wavefunction(s)  1S renormalized
               file O.pbe-n-kjpaw_psl.0.1.UPF: wavefunction(s)  2P renormalized

     -------------------------------------
     Parameters for Dispersion Correction:
     -------------------------------------
       atom      VdW radius       C_6     

        C          2.744         60.710
        N          2.640         42.670
        H          1.892          4.857
        O          2.536         24.284

     Subspace diagonalization in iterative solution of the eigenvalue problem:
     a serial algorithm will be used

 
     Parallelization info
     --------------------
     sticks:   dense  smooth     PW     G-vecs:    dense   smooth      PW
     Min         617     617    165                51382    51382    7075
     Max         618     618    166                51383    51383    7079
     Sum        4939    4939   1325               411059   411059   56619
 


     bravais-lattice index     =            0
     lattice parameter (alat)  =      10.6218  a.u.
     unit-cell volume          =    3042.9046 (a.u.)^3
     number of atoms/cell      =           48
     number of atomic types    =            4
     number of electrons       =       164.00
     number of Kohn-Sham states=           98
     kinetic-energy cutoff     =     100.0000  Ry
     charge density cutoff     =     400.0000  Ry
     convergence threshold     =      1.0E-08
     mixing beta               =       0.5000
     number of iterations used =            8  plain     mixing
     Exchange-correlation      =  SLA  PW   PBX  PBC ( 1  4  3  4 0 0)

     celldm(1)=  10.621773  celldm(2)=   0.000000  celldm(3)=   0.000000
     celldm(4)=   0.000000  celldm(5)=   0.000000  celldm(6)=   0.000000

     crystal axes: (cart. coord. in units of alat)
               a(1) = (   1.000000   0.000000   0.000000 )  
               a(2) = (   0.344690   1.377762   0.000000 )  
               a(3) = (   0.471149   0.335242   1.842991 )  

     reciprocal axes: (cart. coord. in units 2 pi/alat)
               b(1) = (  1.000000 -0.250181 -0.210136 )  
               b(2) = (  0.000000  0.725815 -0.132027 )  
               b(3) = (  0.000000  0.000000  0.542596 )  


     PseudoPot. # 1 for  C read from file:
     /scratch/ahofstet/pseudo/C.pbe-n-kjpaw_psl.0.1.UPF
     MD5 check sum: 430fe95172b1e11ef3f8ed03bac87931
     Pseudo is Projector augmented-wave + core cor, Zval =  4.0
     Generated using "atomic" code by A. Dal Corso  v.5.0.99 svn rev. 10869
     Shape of augmentation charge: BESSEL
     Using radial grid of 1073 points,  4 beta functions with: 
                l(1) =   0
                l(2) =   0
                l(3) =   1
                l(4) =   1
     Q(r) pseudized with 0 coefficients 


     PseudoPot. # 2 for  N read from file:
     /scratch/ahofstet/pseudo/N.pbe-n-kjpaw_psl.0.1.UPF
     MD5 check sum: f73187c8b701007e77325f868c9291d7
     Pseudo is Projector augmented-wave + core cor, Zval =  5.0
     Generated using "atomic" code by A. Dal Corso  v.5.0.99 svn rev. 10869
     Shape of augmentation charge: PSQ
     Using radial grid of 1085 points,  4 beta functions with: 
                l(1) =   0
                l(2) =   0
                l(3) =   1
                l(4) =   1
     Q(r) pseudized with 0 coefficients 


     PseudoPot. # 3 for  H read from file:
     /scratch/ahofstet/pseudo/H.pbe-kjpaw_psl.0.1.UPF
     MD5 check sum: 94e484f906d9e9773b2f6e52662335b2
     Pseudo is Projector augmented-wave, Zval =  1.0
     Generated using "atomic" code by A. Dal Corso  v.5.0.99 svn rev. 10869
     Shape of augmentation charge: PSQ
     Using radial grid of  929 points,  2 beta functions with: 
                l(1) =   0
                l(2) =   0
     Q(r) pseudized with 0 coefficients 


     PseudoPot. # 4 for  O read from file:
     /scratch/ahofstet/pseudo/O.pbe-n-kjpaw_psl.0.1.UPF
     MD5 check sum: 3f94a2996a3169367d6eb21d9b593f20
     Pseudo is Projector augmented-wave + core cor, Zval =  6.0
     Generated using "atomic" code by A. Dal Corso  v.5.0.99 svn rev. 10869
     Shape of augmentation charge: BESSEL
     Using radial grid of 1095 points,  4 beta functions with: 
                l(1) =   0
                l(2) =   0
                l(3) =   1
                l(4) =   1
     Q(r) pseudized with 0 coefficients 


     atomic species   valence    mass     pseudopotential
        C              4.00    12.01070      C( 1.00)
        N              5.00    14.00670      N( 1.00)
        H              1.00     1.00794      H( 1.00)
        O              6.00    15.99940      O( 1.00)

      2 Sym. Ops., with inversion, found



   Cartesian axes

     site n.     atom                  positions (alat units)
         1           O   tau(   1) = (   0.1382092   0.3297655   0.1791090  )
         2           O   tau(   2) = (   1.6776299   1.3832384   1.6638819  )
         3           O   tau(   3) = (   0.7761793   0.8040344   1.6864390  )
         4           O   tau(   4) = (   1.0396598   0.9089695   0.1565518  )
         5           O   tau(   5) = (   1.3421249   0.8028164   1.4682299  )
         6           O   tau(   6) = (   0.4737142   0.9101874   0.3747609  )
         7           O   tau(   7) = (   1.1775888   0.7519875   1.8315335  )
         8           O   tau(   8) = (   0.6382503   0.9610164   0.0114574  )
         9           H   tau(   9) = (   0.9880710   0.7758544   1.7600994  )
        10           H   tau(  10) = (   0.8277681   0.9371495   0.0828915  )
        11           N   tau(  11) = (   0.4922111   0.2405929   0.7502164  )
        12           N   tau(  12) = (   1.3236280   1.4724110   1.0927745  )
        13           N   tau(  13) = (   0.7021190   0.5930198   0.8771360  )
        14           N   tau(  14) = (   1.1137201   1.1199841   0.9658549  )
        15           N   tau(  15) = (   0.8056863   0.3927445   0.5232861  )
        16           N   tau(  16) = (   1.0101528   1.3202594   1.3197047  )
        17           H   tau(  17) = (   0.9174025   0.3739471   0.3728737  )
        18           H   tau(  18) = (   0.8984365   1.3390568   1.4701172  )
        19           N   tau(  19) = (   0.3782329   0.4438380   1.0857878  )
        20           N   tau(  20) = (   1.4376062   1.2691658   0.7572031  )
        21           H   tau(  21) = (   0.3863770   0.5816177   1.2051219  )
        22           H   tau(  22) = (   1.4294621   1.1313862   0.6378689  )
        23           H   tau(  23) = (   1.2393072   0.3231358   1.0938079  )
        24           H   tau(  24) = (   0.5765319   1.3898681   0.7491829  )
        25           N   tau(  25) = (   1.0176547   0.7254687   0.6457604  )
        26           N   tau(  26) = (   0.7981843   0.9875351   1.1972305  )
        27           H   tau(  27) = (   1.0467249   0.8644249   0.7635914  )
        28           H   tau(  28) = (   0.7691141   0.8485789   1.0793994  )
        29           H   tau(  29) = (   1.1014282   0.7359700   0.4843067  )
        30           H   tau(  30) = (   0.7144109   0.9770339   1.3586842  )
        31           C   tau(  31) = (   0.6337229   0.2290895   0.5638403  )
        32           C   tau(  32) = (   1.1821162   1.4839144   1.2791506  )
        33           C   tau(  33) = (   0.5268278   0.4300436   0.9017175  )
        34           C   tau(  34) = (   1.2890113   1.2829602   0.9412733  )
        35           C   tau(  35) = (   0.8422375   0.5735673   0.6842241  )
        36           C   tau(  36) = (   0.9736016   1.1394366   1.1587667  )
        37           C   tau(  37) = (   0.9496702   1.4096013   0.3903872  )
        38           C   tau(  38) = (   0.8661688   0.3034025   1.4526037  )
        39           H   tau(  39) = (   0.9223516   1.2411157   0.4846642  )
        40           H   tau(  40) = (   0.8934875   0.4718882   1.3583266  )
        41           H   tau(  41) = (   1.1025449   1.3962021   0.2709534  )
        42           H   tau(  42) = (   0.7132942   0.3168018   1.5720374  )
        43           H   tau(  43) = (   0.4451415   0.0699354   0.2839571  )
        44           H   tau(  44) = (   1.3706976   1.6430684   1.5590338  )
        45           C   tau(  45) = (   0.6005747   0.7447662   1.8153106  )
        46           C   tau(  46) = (   1.2152644   0.9682377   0.0276803  )
        47           C   tau(  47) = (   1.3517550   0.7716664   1.6859315  )
        48           C   tau(  48) = (   0.4640840   0.9413374   0.1570594  )

     number of k points=    10
                       cart. coord. in units 2pi/alat
        k(    1) = (   0.0000000   0.0000000   0.0000000), wk =   0.1111111
        k(    2) = (   0.0000000   0.0000000  -0.2712981), wk =   0.1111111
        k(    3) = (   0.0000000   0.2419383  -0.0440088), wk =   0.2222222
        k(    4) = (   0.0000000   0.2419383  -0.3153070), wk =   0.2222222
        k(    5) = (   0.3333333  -0.0833936  -0.0700452), wk =   0.2222222
        k(    6) = (   0.3333333  -0.0833936  -0.3413434), wk =   0.2222222
        k(    7) = (   0.3333333   0.1585446  -0.1140541), wk =   0.2222222
        k(    8) = (   0.3333333   0.1585446  -0.3853522), wk =   0.2222222
        k(    9) = (   0.3333333  -0.3253319  -0.0260364), wk =   0.2222222
        k(   10) = (   0.3333333  -0.3253319  -0.2973345), wk =   0.2222222

     Dense  grid:   411059 G-vectors     FFT dimensions: (  72, 100, 135)

     Estimated max dynamical RAM per process >     245.98MB

     Estimated total allocated dynamical RAM >    1967.83MB

     Check: negative/imaginary core charge=   -0.000002    0.000000

     Initial potential from superposition of free atoms

     starting charge  163.99924, renormalised to  164.00000
     Starting wfc are  138 randomized atomic wfcs
     Checking if some PAW data can be deallocated... 

     total cpu time spent up to now is       16.0 secs

     per-process dynamical memory:   244.4 Mb

     Self-consistent Calculation

     iteration #  1     ecut=   100.00 Ry     beta=0.50
     Davidson diagonalization with overlap
     ethr =  1.00E-02,  avg # of iterations =  3.9

     total cpu time spent up to now is       47.2 secs

     total energy              =    -857.36351647 Ry
     Harris-Foulkes estimate   =    -860.35507115 Ry
     estimated scf accuracy    <       5.40419710 Ry

     iteration #  2     ecut=   100.00 Ry     beta=0.50
     Davidson diagonalization with overlap
     ethr =  3.30E-03,  avg # of iterations =  2.9

     total cpu time spent up to now is       68.0 secs

     total energy              =    -858.34134448 Ry
     Harris-Foulkes estimate   =    -858.68921179 Ry
     estimated scf accuracy    <       0.73440405 Ry

     iteration #  3     ecut=   100.00 Ry     beta=0.50
     Davidson diagonalization with overlap
     ethr =  4.48E-04,  avg # of iterations =  6.0

     total cpu time spent up to now is       96.4 secs

     total energy              =    -858.59748609 Ry
     Harris-Foulkes estimate   =    -858.67414724 Ry
     estimated scf accuracy    <       0.19867424 Ry

     iteration #  4     ecut=   100.00 Ry     beta=0.50
     Davidson diagonalization with overlap
     ethr =  1.21E-04,  avg # of iterations =  2.9

     total cpu time spent up to now is      114.1 secs

     total energy              =    -858.60822075 Ry
     Harris-Foulkes estimate   =    -858.62430699 Ry
     estimated scf accuracy    <       0.04212803 Ry

     iteration #  5     ecut=   100.00 Ry     beta=0.50
     Davidson diagonalization with overlap
     ethr =  2.57E-05,  avg # of iterations =  7.9

     total cpu time spent up to now is      145.2 secs

     total energy              =    -858.62634984 Ry
     Harris-Foulkes estimate   =    -858.63561945 Ry
     estimated scf accuracy    <       0.02818104 Ry

     iteration #  6     ecut=   100.00 Ry     beta=0.50
     Davidson diagonalization with overlap
     ethr =  1.72E-05,  avg # of iterations =  1.4

     total cpu time spent up to now is      161.7 secs

     total energy              =    -858.62389353 Ry
     Harris-Foulkes estimate   =    -858.62831912 Ry
     estimated scf accuracy    <       0.00924470 Ry

     iteration #  7     ecut=   100.00 Ry     beta=0.50
     Davidson diagonalization with overlap
     ethr =  5.64E-06,  avg # of iterations =  5.8

     total cpu time spent up to now is      186.4 secs

     total energy              =    -858.62798851 Ry
     Harris-Foulkes estimate   =    -858.62815377 Ry
     estimated scf accuracy    <       0.00105110 Ry

     iteration #  8     ecut=   100.00 Ry     beta=0.50
     Davidson diagonalization with overlap
     ethr =  6.41E-07,  avg # of iterations =  2.9

     total cpu time spent up to now is      204.7 secs

     total energy              =    -858.62772962 Ry
     Harris-Foulkes estimate   =    -858.62810623 Ry
     estimated scf accuracy    <       0.00073984 Ry

     iteration #  9     ecut=   100.00 Ry     beta=0.50
     Davidson diagonalization with overlap
     ethr =  4.51E-07,  avg # of iterations =  4.0

     total cpu time spent up to now is      225.3 secs

     total energy              =    -858.62792145 Ry
     Harris-Foulkes estimate   =    -858.62792508 Ry
     estimated scf accuracy    <       0.00002193 Ry

     iteration # 10     ecut=   100.00 Ry     beta=0.50
     Davidson diagonalization with overlap
     ethr =  1.34E-08,  avg # of iterations =  4.0

     total cpu time spent up to now is      253.8 secs

     total energy              =    -858.62792517 Ry
     Harris-Foulkes estimate   =    -858.62793334 Ry
     estimated scf accuracy    <       0.00001900 Ry

     iteration # 11     ecut=   100.00 Ry     beta=0.50
     Davidson diagonalization with overlap
     ethr =  1.16E-08,  avg # of iterations =  3.8

     total cpu time spent up to now is      272.1 secs

     total energy              =    -858.62792608 Ry
     Harris-Foulkes estimate   =    -858.62792729 Ry
     estimated scf accuracy    <       0.00000260 Ry

     iteration # 12     ecut=   100.00 Ry     beta=0.50
     Davidson diagonalization with overlap
     ethr =  1.58E-09,  avg # of iterations =  4.0

     total cpu time spent up to now is      298.3 secs

     total energy              =    -858.62792789 Ry
     Harris-Foulkes estimate   =    -858.62792832 Ry
     estimated scf accuracy    <       0.00000093 Ry

     iteration # 13     ecut=   100.00 Ry     beta=0.50
     Davidson diagonalization with overlap
     ethr =  5.65E-10,  avg # of iterations =  4.1

     total cpu time spent up to now is      316.9 secs

     total energy              =    -858.62792797 Ry
     Harris-Foulkes estimate   =    -858.62792800 Ry
     estimated scf accuracy    <       0.00000007 Ry

     iteration # 14     ecut=   100.00 Ry     beta=0.50
     Davidson diagonalization with overlap
     ethr =  4.45E-11,  avg # of iterations =  4.0

     total cpu time spent up to now is      345.9 secs

     total energy              =    -858.62792805 Ry
     Harris-Foulkes estimate   =    -858.62792806 Ry
     estimated scf accuracy    <       0.00000003 Ry

     iteration # 15     ecut=   100.00 Ry     beta=0.50
     Davidson diagonalization with overlap
     ethr =  2.02E-11,  avg # of iterations =  4.3

     total cpu time spent up to now is      365.4 secs

     End of self-consistent calculation

          k = 0.0000 0.0000 0.0000 ( 51351 PWs)   bands (ev):

   -20.5312 -20.4320 -19.6272 -19.5287 -19.4536 -19.4079 -17.9080 -17.8938
   -17.6785 -17.6699 -17.5494 -17.4692 -16.9004 -16.8476 -15.2635 -15.2349
   -15.1916 -15.0712 -12.0865 -11.9596 -10.1419 -10.0211  -9.8563  -9.7862
    -9.4081  -9.3873  -8.2783  -8.1913  -7.5036  -7.2557  -7.0450  -6.8046
    -5.9680  -5.8711  -5.7821  -5.7157  -5.5623  -5.5458  -5.4327  -5.3146
    -5.3003  -4.9499  -4.9373  -4.7506  -4.6238  -4.3731  -4.3598  -4.1936
    -4.0529  -4.0120  -3.6149  -3.4434  -3.3749  -3.2056  -3.1612  -3.0362
    -2.9372  -2.9189  -2.8197  -2.5700  -1.7534  -1.5851  -1.5617  -1.3727
    -1.2654  -1.2166  -0.9101  -0.8899  -0.3849  -0.3655  -0.2394  -0.1842
    -0.1329  -0.0391   0.0078   0.0704   0.1514   0.2937   0.4650   0.5676
     1.1354   1.1560   4.6255   4.7785   4.7989   4.9683   5.1861   5.5717
     6.9170   7.8180   8.0056   8.2116   8.2332   8.4048   8.5017   9.1470
     9.3651   9.3884

          k = 0.0000 0.0000-0.2713 ( 51344 PWs)   bands (ev):

   -20.5307 -20.4319 -19.6345 -19.5294 -19.4462 -19.4079 -17.8939 -17.8875
   -17.7012 -17.6836 -17.5233 -17.4791 -16.9071 -16.8435 -15.2647 -15.2313
   -15.1882 -15.0737 -12.0776 -11.9672 -10.1386 -10.0511  -9.8605  -9.7761
    -9.3976  -9.3742  -8.2846  -8.1955  -7.4749  -7.2823  -7.0080  -6.8812
    -5.9252  -5.8588  -5.7917  -5.6851  -5.5782  -5.5315  -5.4287  -5.3209
    -5.1866  -5.0036  -4.8517  -4.7764  -4.6718  -4.4985  -4.3667  -4.2496
    -4.1065  -3.9069  -3.6591  -3.4594  -3.4080  -3.1840  -3.1589  -3.0495
    -2.9165  -2.8795  -2.8023  -2.5359  -1.7225  -1.6418  -1.5083  -1.2886
    -1.2850  -1.2217  -0.9109  -0.8982  -0.4257  -0.3746  -0.2140  -0.1950
    -0.1210  -0.0292  -0.0117   0.0382   0.1420   0.2959   0.4565   0.5597
     1.1330   1.1648   4.6261   4.7079   4.8808   4.9453   5.2197   5.5628
     7.2209   7.2666   8.0133   8.2134   8.2681   8.4920   8.8453   9.1504
     9.2392   9.4671

          k = 0.0000 0.2419-0.0440 ( 51365 PWs)   bands (ev):

   -20.5291 -20.4341 -19.6109 -19.5457 -19.4532 -19.4086 -17.9116 -17.8944
   -17.6803 -17.6685 -17.5371 -17.4713 -16.9589 -16.7901 -15.2970 -15.2606
   -15.1342 -15.0716 -12.0499 -11.9849 -10.1342 -10.0363  -9.8566  -9.7812
    -9.5222  -9.3218  -8.2563  -8.2032  -7.4427  -7.2743  -7.0023  -6.8567
    -6.0306  -5.9217  -5.8128  -5.7173  -5.5199  -5.5107  -5.4189  -5.2494
    -5.1618  -5.0833  -4.8181  -4.7547  -4.6909  -4.3823  -4.3276  -4.2102
    -4.0916  -3.9645  -3.6382  -3.4719  -3.3436  -3.2796  -3.1191  -3.0390
    -3.0149  -2.8839  -2.7764  -2.5904  -1.7163  -1.6378  -1.5889  -1.4060
    -1.2754  -1.2252  -0.9203  -0.9070  -0.3771  -0.3658  -0.2391  -0.1662
    -0.0828  -0.0576   0.0008   0.0379   0.1535   0.2680   0.5240   0.6175
     1.1421   1.1603   4.6238   4.7461   4.8651   4.9406   5.2540   5.5508
     7.2532   7.9401   7.9666   8.1994   8.2062   8.2728   8.5450   8.6300
     8.9504   9.3614

          k = 0.0000 0.2419-0.3153 ( 51378 PWs)   bands (ev):

   -20.5287 -20.4339 -19.6136 -19.5500 -19.4505 -19.4054 -17.8924 -17.8877
   -17.6973 -17.6875 -17.5382 -17.4587 -16.9662 -16.7855 -15.2989 -15.2587
   -15.1303 -15.0727 -12.0442 -11.9886 -10.1458 -10.0417  -9.8694  -9.7769
    -9.5082  -9.3071  -8.2620  -8.2049  -7.4133  -7.3191  -7.0421  -6.8367
    -5.9979  -5.9224  -5.7389  -5.5826  -5.5690  -5.5118  -5.4311  -5.3190
    -5.1942  -5.0706  -4.8364  -4.8035  -4.5888  -4.4286  -4.3655  -4.2401
    -4.0998  -4.0173  -3.6676  -3.4670  -3.3194  -3.2442  -3.1357  -3.1028
    -2.9650  -2.8392  -2.7453  -2.5864  -1.7114  -1.6532  -1.5507  -1.3677
    -1.2818  -1.2273  -0.9213  -0.9048  -0.3942  -0.3695  -0.1958  -0.1705
    -0.1268  -0.0595  -0.0116   0.0017   0.1526   0.2750   0.5295   0.6242
     1.1326   1.1639   4.6381   4.7470   4.8476   4.9336   5.2603   5.5565
     7.4405   7.5849   8.0625   8.1184   8.2520   8.2964   8.4486   8.8817
     9.1957   9.3801

          k = 0.3333-0.0834-0.0700 ( 51392 PWs)   bands (ev):

   -20.3444 -20.2629 -19.7247 -19.6729 -19.6042 -19.5217 -18.1011 -18.0660
   -17.5885 -17.5274 -17.3926 -17.3850 -16.9145 -16.8164 -15.3062 -15.2905
   -15.1225 -15.0510 -12.0668 -11.9728 -10.1420 -10.0009  -9.4733  -9.3350
    -9.1644  -9.0853  -8.2651  -8.2021  -7.4601  -7.3821  -7.2063  -7.1087
    -6.9610  -6.8528  -5.9572  -5.9428  -5.7478  -5.5740  -5.5291  -5.1908
    -4.9958  -4.9552  -4.8159  -4.7311  -4.6461  -4.5032  -4.4050  -4.0551
    -3.8143  -3.7948  -3.6472  -3.4633  -3.4023  -3.2670  -2.9762  -2.9035
    -2.8692  -2.8315  -2.7914  -2.6403  -2.0024  -1.9893  -1.6990  -1.5854
    -1.4893  -1.3804  -0.6026  -0.3540  -0.2415  -0.2026  -0.1217  -0.0311
     0.0175   0.1443   0.1468   0.2920   0.3189   0.4748   0.6340   0.6852
     1.2632   1.2859   4.5006   4.7853   4.9446   5.1181   5.2006   5.3439
     7.5198   7.9183   8.0115   8.0758   8.2927   8.3308   8.7673   9.0482
     9.0893   9.3107

          k = 0.3333-0.0834-0.3413 ( 51368 PWs)   bands (ev):

   -20.3445 -20.2631 -19.7246 -19.6716 -19.6016 -19.5251 -18.1017 -18.0685
   -17.5879 -17.5196 -17.3981 -17.3859 -16.9128 -16.8161 -15.3064 -15.2914
   -15.1249 -15.0491 -12.0611 -11.9797 -10.1420  -9.9945  -9.4587  -9.3492
    -9.1696  -9.0882  -8.2604  -8.2025  -7.5047  -7.3273  -7.1606  -7.1500
    -6.9791  -6.8381  -5.9678  -5.9519  -5.7208  -5.5959  -5.5281  -5.2013
    -5.1020  -5.0501  -4.7202  -4.6816  -4.5820  -4.4587  -4.3594  -4.0987
    -3.9057  -3.7666  -3.5870  -3.5080  -3.3888  -3.2346  -2.9601  -2.8946
    -2.8600  -2.8252  -2.8092  -2.6762  -2.0099  -1.9940  -1.7054  -1.6150
    -1.5064  -1.3894  -0.6030  -0.3495  -0.2427  -0.1806  -0.0876  -0.0129
     0.0188   0.1181   0.1654   0.2471   0.3208   0.5248   0.6249   0.6734
     1.2584   1.2806   4.4900   4.7971   4.9535   5.1180   5.1891   5.3537
     7.5195   7.8881   7.9512   8.0148   8.2894   8.4535   8.7792   8.9353
     9.1005   9.3380

          k = 0.3333 0.1585-0.1141 ( 51413 PWs)   bands (ev):

   -20.3434 -20.2637 -19.7247 -19.6736 -19.5835 -19.5426 -18.1001 -18.0666
   -17.5900 -17.5243 -17.3950 -17.3810 -16.9487 -16.7857 -15.3078 -15.2761
   -15.1170 -15.0681 -12.0301 -11.9974 -10.1514  -9.9964  -9.5171  -9.3349
    -9.1563  -9.0932  -8.2650  -8.2041  -7.4732  -7.3461  -7.1948  -7.1220
    -6.9511  -6.8316  -5.9683  -5.9240  -5.7033  -5.6152  -5.5117  -5.1960
    -5.1048  -5.0202  -4.7915  -4.6097  -4.5695  -4.5205  -4.3616  -4.0654
    -3.9111  -3.7339  -3.5750  -3.5099  -3.3525  -3.3328  -2.9983  -2.9227
    -2.8600  -2.8337  -2.8061  -2.6470  -2.0235  -1.9816  -1.7151  -1.6177
    -1.5083  -1.3870  -0.6181  -0.3324  -0.2298  -0.2181  -0.1154  -0.0665
     0.0324   0.1478   0.1562   0.2368   0.4255   0.4551   0.6184   0.7052
     1.2625   1.2833   4.5855   4.7537   4.9484   5.1120   5.2619   5.3574
     7.6254   7.7606   7.9052   8.0412   8.2709   8.5232   8.7351   9.0170
     9.1400   9.3190

          k = 0.3333 0.1585-0.3854 ( 51389 PWs)   bands (ev):

   -20.3437 -20.2639 -19.7237 -19.6711 -19.5841 -19.5448 -18.1021 -18.0687
   -17.5906 -17.5076 -17.3988 -17.3907 -16.9457 -16.7867 -15.3084 -15.2746
   -15.1197 -15.0675 -12.0281 -11.9997 -10.1397 -10.0055  -9.5178  -9.3310
    -9.1644  -9.0944  -8.2631  -8.2041  -7.4504  -7.3400  -7.1634  -7.1241
    -6.9595  -6.8735  -5.9978  -5.9245  -5.7350  -5.6339  -5.5647  -5.1615
    -5.0248  -4.9329  -4.7556  -4.7163  -4.5614  -4.5192  -4.3628  -4.0602
    -3.8642  -3.7857  -3.6021  -3.5040  -3.4175  -3.2195  -2.9424  -2.9145
    -2.8905  -2.8604  -2.8234  -2.6552  -2.0294  -1.9858  -1.7104  -1.6155
    -1.5514  -1.3921  -0.6178  -0.3330  -0.2369  -0.2113  -0.0944  -0.0760
     0.0383   0.1486   0.1808   0.2360   0.3706   0.5335   0.6120   0.6851
     1.2589   1.2805   4.5943   4.7449   4.9671   5.1142   5.2553   5.3483
     7.5814   7.7436   7.9111   8.0771   8.1622   8.5288   8.8285   8.9631
     9.2742   9.3538

          k = 0.3333-0.3253-0.0260 ( 51420 PWs)   bands (ev):

   -20.3422 -20.2651 -19.7259 -19.6714 -19.5890 -19.5376 -18.1003 -18.0662
   -17.5929 -17.5190 -17.3950 -17.3876 -16.9304 -16.8053 -15.2952 -15.2113
   -15.1741 -15.0841 -12.0449 -11.9817 -10.1518 -10.0011  -9.4589  -9.3870
    -9.1647  -9.0859  -8.2893  -8.1957  -7.4818  -7.3355  -7.1897  -7.0947
    -6.9676  -6.8307  -5.9102  -5.8549  -5.7527  -5.6823  -5.5467  -5.1921
    -5.0338  -4.9612  -4.8149  -4.6746  -4.5922  -4.5069  -4.4142  -4.0573
    -3.9097  -3.7545  -3.6033  -3.5623  -3.3730  -3.2662  -2.9321  -2.8816
    -2.8627  -2.8130  -2.7847  -2.7283  -2.0136  -1.9862  -1.7574  -1.5827
    -1.5428  -1.2842  -0.6142  -0.3183  -0.2496  -0.2172  -0.1738  -0.0873
     0.0305   0.1341   0.1749   0.2191   0.4439   0.5140   0.6376   0.6611
     1.2662   1.2827   4.5713   4.7204   4.9822   5.0995   5.2338   5.3958
     7.5981   7.9052   7.9794   8.1666   8.4039   8.5733   8.6198   8.7081
     9.0464   9.2769

          k = 0.3333-0.3253-0.2973 ( 51402 PWs)   bands (ev):

   -20.3423 -20.2653 -19.7245 -19.6711 -19.5899 -19.5377 -18.1015 -18.0691
   -17.5812 -17.5258 -17.4005 -17.3847 -16.9261 -16.8073 -15.2946 -15.2140
   -15.1748 -15.0828 -12.0448 -11.9822 -10.1569  -9.9902  -9.4665  -9.3761
    -9.1637  -9.0987  -8.2868  -8.1948  -7.4735  -7.3408  -7.1634  -7.0886
    -6.9874  -6.8368  -5.9041  -5.8521  -5.7655  -5.6850  -5.5713  -5.1834
    -5.1092  -5.0203  -4.7661  -4.6645  -4.5543  -4.5274  -4.2832  -4.0550
    -3.9297  -3.7842  -3.6168  -3.4943  -3.3700  -3.2824  -2.9443  -2.8821
    -2.8603  -2.8316  -2.7867  -2.7240  -2.0248  -1.9965  -1.7447  -1.5986
    -1.5741  -1.2974  -0.5976  -0.3419  -0.2609  -0.2107  -0.1086  -0.0797
     0.0158   0.1218   0.1794   0.2633   0.4174   0.4831   0.6267   0.6940
     1.2657   1.2773   4.5560   4.7568   4.9693   5.1013   5.2381   5.3980
     7.5201   7.8480   7.9991   8.2087   8.3198   8.5698   8.7504   8.8236
     8.9544   9.1767

     highest occupied, lowest unoccupied level (ev):     1.2859    4.4900

!    total energy              =    -858.62792805 Ry
     Harris-Foulkes estimate   =    -858.62792805 Ry
     estimated scf accuracy    <          1.0E-09 Ry

     total all-electron energy =     -3235.560218 Ry

     The total energy is the sum of the following terms:

     one-electron contribution =    -430.76640832 Ry
     hartree contribution      =     282.30130310 Ry
     xc contribution           =    -176.51332888 Ry
     ewald contribution        =    -294.75199227 Ry
     Dispersion Correction     =      -0.21977118 Ry
     one-center paw contrib.   =    -238.67773049 Ry

     convergence has been achieved in  15 iterations

     Forces acting on atoms (cartesian axes, Ry/au):

     atom    1 type  4   force =    -0.00012453   -0.00029895    0.00722039
     atom    2 type  4   force =     0.00012453    0.00029895   -0.00722039
     atom    3 type  4   force =     0.00769691    0.00984739   -0.01699545
     atom    4 type  4   force =    -0.00769691   -0.00984739    0.01699545
     atom    5 type  4   force =    -0.00028164    0.00095727   -0.00419376
     atom    6 type  4   force =     0.00028164   -0.00095727    0.00419376
     atom    7 type  4   force =    -0.01736992   -0.00280423    0.01769303
     atom    8 type  4   force =     0.01736992    0.00280423   -0.01769303
     atom    9 type  3   force =     0.00786031   -0.00124577    0.00194582
     atom   10 type  3   force =    -0.00786031    0.00124577   -0.00194582
     atom   11 type  2   force =    -0.00101513    0.00464849   -0.00082585
     atom   12 type  2   force =     0.00101513   -0.00464849    0.00082585
     atom   13 type  2   force =     0.00025528   -0.00352841   -0.00378415
     atom   14 type  2   force =    -0.00025528    0.00352841    0.00378415
     atom   15 type  2   force =     0.00056152   -0.00061519    0.00022159
     atom   16 type  2   force =    -0.00056152    0.00061519   -0.00022159
     atom   17 type  3   force =     0.00055971   -0.00116659    0.00012200
     atom   18 type  3   force =    -0.00055971    0.00116659   -0.00012200
     atom   19 type  2   force =     0.00184415    0.00153544   -0.00343970
     atom   20 type  2   force =    -0.00184415   -0.00153544    0.00343970
     atom   21 type  3   force =     0.00006431    0.00013807    0.00036811
     atom   22 type  3   force =    -0.00006431   -0.00013807   -0.00036811
     atom   23 type  3   force =     0.00079583    0.00024431    0.00015579
     atom   24 type  3   force =    -0.00079583   -0.00024431   -0.00015579
     atom   25 type  2   force =     0.00101114   -0.00310594    0.00012468
     atom   26 type  2   force =    -0.00101114    0.00310594   -0.00012468
     atom   27 type  3   force =     0.00065812    0.00150452    0.00131942
     atom   28 type  3   force =    -0.00065812   -0.00150452   -0.00131942
     atom   29 type  3   force =    -0.00080813   -0.00085717   -0.00070279
     atom   30 type  3   force =     0.00080813    0.00085717    0.00070279
     atom   31 type  1   force =    -0.00004844    0.00008673   -0.00011649
     atom   32 type  1   force =     0.00004844   -0.00008673    0.00011649
     atom   33 type  1   force =     0.00508381   -0.00010093    0.00163019
     atom   34 type  1   force =    -0.00508381    0.00010093   -0.00163019
     atom   35 type  1   force =    -0.00915421    0.00122117    0.00168325
     atom   36 type  1   force =     0.00915421   -0.00122117   -0.00168325
     atom   37 type  1   force =     0.00057563    0.00162582    0.00070241
     atom   38 type  1   force =    -0.00057563   -0.00162582   -0.00070241
     atom   39 type  3   force =    -0.00003008   -0.00084961    0.00060903
     atom   40 type  3   force =     0.00003008    0.00084961   -0.00060903
     atom   41 type  3   force =     0.00091821    0.00108977   -0.00038317
     atom   42 type  3   force =    -0.00091821   -0.00108977    0.00038317
     atom   43 type  3   force =    -0.00050880   -0.00014594   -0.00152227
     atom   44 type  3   force =     0.00050880    0.00014594    0.00152227
     atom   45 type  1   force =    -0.02465462   -0.00383653   -0.00462668
     atom   46 type  1   force =     0.02465462    0.00383653    0.00462668
     atom   47 type  1   force =     0.02551959   -0.00283525   -0.00175252
     atom   48 type  1   force =    -0.02551959    0.00283525    0.00175252

     Total force =     0.073838     Total SCF correction =     0.000059


     Computing stress (Cartesian axis) and pressure

          total   stress  (Ry/bohr**3)                   (kbar)     P=   -4.01
  -0.00002263  -0.00001359  -0.00001191         -3.33     -2.00     -1.75
  -0.00001359  -0.00004247  -0.00000569         -2.00     -6.25     -0.84
  -0.00001191  -0.00000569  -0.00001658         -1.75     -0.84     -2.44


     Writing output data file scf.save
 
     init_run     :     14.91s CPU     15.38s WALL (       1 calls)
     electrons    :    339.69s CPU    349.45s WALL (       1 calls)
     forces       :      7.58s CPU      7.65s WALL (       1 calls)
     stress       :     27.51s CPU     27.55s WALL (       1 calls)

     Called by init_run:
     wfcinit      :      8.57s CPU      8.96s WALL (       1 calls)
     potinit      :      2.30s CPU      2.32s WALL (       1 calls)

     Called by electrons:
     c_bands      :    294.44s CPU    303.26s WALL (      15 calls)
     sum_band     :     38.46s CPU     39.23s WALL (      15 calls)
     v_of_rho     :      1.07s CPU      1.16s WALL (      16 calls)
     newd         :      2.03s CPU      2.07s WALL (      16 calls)
     PAW_pot      :      3.33s CPU      3.33s WALL (      16 calls)
     mix_rho      :      0.25s CPU      0.26s WALL (      15 calls)

     Called by c_bands:
     init_us_2    :      3.19s CPU      3.20s WALL (     330 calls)
     cegterg      :    283.58s CPU    292.35s WALL (     150 calls)

     Called by sum_band:
     sum_band:bec :      0.03s CPU      0.03s WALL (     150 calls)
     addusdens    :      2.12s CPU      2.15s WALL (      15 calls)

     Called by *egterg:
     h_psi        :    191.97s CPU    196.07s WALL (     779 calls)
     s_psi        :     20.36s CPU     20.36s WALL (     779 calls)
     g_psi        :      1.40s CPU      1.40s WALL (     619 calls)
     cdiaghg      :     19.53s CPU     19.60s WALL (     769 calls)

     Called by h_psi:
     h_psi:pot    :    190.08s CPU    194.15s WALL (     779 calls)
     h_psi:calbec :     19.26s CPU     19.36s WALL (     779 calls)
     vloc_psi     :    150.51s CPU    154.46s WALL (     779 calls)
     add_vuspsi   :     20.31s CPU     20.32s WALL (     779 calls)

     General routines
     calbec       :     31.68s CPU     31.83s WALL (     979 calls)
     fft          :      1.18s CPU      1.32s WALL (     232 calls)
     fftw         :    162.50s CPU    166.86s WALL (   97922 calls)
 
     Parallel routines
     fft_scatter  :     40.49s CPU     43.14s WALL (   98154 calls)
 
     PWSCF        :  6m33.87s CPU     6m45.30s WALL

 
   This run was terminated on:  20:36:51  20Dec2017            

=------------------------------------------------------------------------------=
   JOB DONE.
=------------------------------------------------------------------------------=
