
     Program PWSCF v.6.1 (svn rev. 13369) starts on 15Dec2017 at  5:44:41 

     This program is part of the open-source Quantum ESPRESSO suite
     for quantum simulation of materials; please cite
         "P. Giannozzi et al., J. Phys.:Condens. Matter 21 395502 (2009);
          URL http://www.quantum-espresso.org", 
     in publications or presentations arising from this work. More details at
     http://www.quantum-espresso.org/quote

     Parallel version (MPI), running on     8 processors
     R & G space division:  proc/nbgrp/npool/nimage =       8
     Waiting for input...
     Reading input from standard input

     Current dimensions of program PWSCF are:
     Max number of different atomic species (ntypx) = 10
     Max number of k-points (npk) =  40000
     Max angular momentum in pseudopotentials (lmaxx) =  3
               file C.pbe-n-kjpaw_psl.0.1.UPF: wavefunction(s)  2P renormalized
               file N.pbe-n-kjpaw_psl.0.1.UPF: wavefunction(s)  2P renormalized
               file H.pbe-kjpaw_psl.0.1.UPF: wavefunction(s)  1S renormalized
               file O.pbe-n-kjpaw_psl.0.1.UPF: wavefunction(s)  2P renormalized

     -------------------------------------
     Parameters for Dispersion Correction:
     -------------------------------------
       atom      VdW radius       C_6     

        C          2.744         60.710
        N          2.640         42.670
        H          1.892          4.857
        O          2.536         24.284

     Subspace diagonalization in iterative solution of the eigenvalue problem:
     a serial algorithm will be used

 
     Parallelization info
     --------------------
     sticks:   dense  smooth     PW     G-vecs:    dense   smooth      PW
     Min         676     676    182                55570    55570    7832
     Max         678     678    183                55573    55573    7837
     Sum        5413    5413   1461               444563   444563   62677
 


     bravais-lattice index     =            0
     lattice parameter (alat)  =       9.5397  a.u.
     unit-cell volume          =    3290.0320 (a.u.)^3
     number of atoms/cell      =           64
     number of atomic types    =            4
     number of electrons       =       152.00
     number of Kohn-Sham states=           91
     kinetic-energy cutoff     =     100.0000  Ry
     charge density cutoff     =     400.0000  Ry
     convergence threshold     =      1.0E-08
     mixing beta               =       0.5000
     number of iterations used =            8  plain     mixing
     Exchange-correlation      =  SLA  PW   PBX  PBC ( 1  4  3  4 0 0)

     celldm(1)=   9.539715  celldm(2)=   0.000000  celldm(3)=   0.000000
     celldm(4)=   0.000000  celldm(5)=   0.000000  celldm(6)=   0.000000

     crystal axes: (cart. coord. in units of alat)
               a(1) = (   1.000000   0.000000   0.000000 )  
               a(2) = (   0.000000   1.866408   0.000000 )  
               a(3) = (   0.000000   0.000000   2.030427 )  

     reciprocal axes: (cart. coord. in units 2 pi/alat)
               b(1) = (  1.000000  0.000000  0.000000 )  
               b(2) = (  0.000000  0.535789  0.000000 )  
               b(3) = (  0.000000  0.000000  0.492507 )  


     PseudoPot. # 1 for  C read from file:
     /scratch/ahofstet/pseudo/C.pbe-n-kjpaw_psl.0.1.UPF
     MD5 check sum: 430fe95172b1e11ef3f8ed03bac87931
     Pseudo is Projector augmented-wave + core cor, Zval =  4.0
     Generated using "atomic" code by A. Dal Corso  v.5.0.99 svn rev. 10869
     Shape of augmentation charge: BESSEL
     Using radial grid of 1073 points,  4 beta functions with: 
                l(1) =   0
                l(2) =   0
                l(3) =   1
                l(4) =   1
     Q(r) pseudized with 0 coefficients 


     PseudoPot. # 2 for  N read from file:
     /scratch/ahofstet/pseudo/N.pbe-n-kjpaw_psl.0.1.UPF
     MD5 check sum: f73187c8b701007e77325f868c9291d7
     Pseudo is Projector augmented-wave + core cor, Zval =  5.0
     Generated using "atomic" code by A. Dal Corso  v.5.0.99 svn rev. 10869
     Shape of augmentation charge: PSQ
     Using radial grid of 1085 points,  4 beta functions with: 
                l(1) =   0
                l(2) =   0
                l(3) =   1
                l(4) =   1
     Q(r) pseudized with 0 coefficients 


     PseudoPot. # 3 for  H read from file:
     /scratch/ahofstet/pseudo/H.pbe-kjpaw_psl.0.1.UPF
     MD5 check sum: 94e484f906d9e9773b2f6e52662335b2
     Pseudo is Projector augmented-wave, Zval =  1.0
     Generated using "atomic" code by A. Dal Corso  v.5.0.99 svn rev. 10869
     Shape of augmentation charge: PSQ
     Using radial grid of  929 points,  2 beta functions with: 
                l(1) =   0
                l(2) =   0
     Q(r) pseudized with 0 coefficients 


     PseudoPot. # 4 for  O read from file:
     /scratch/ahofstet/pseudo/O.pbe-n-kjpaw_psl.0.1.UPF
     MD5 check sum: 3f94a2996a3169367d6eb21d9b593f20
     Pseudo is Projector augmented-wave + core cor, Zval =  6.0
     Generated using "atomic" code by A. Dal Corso  v.5.0.99 svn rev. 10869
     Shape of augmentation charge: BESSEL
     Using radial grid of 1095 points,  4 beta functions with: 
                l(1) =   0
                l(2) =   0
                l(3) =   1
                l(4) =   1
     Q(r) pseudized with 0 coefficients 


     atomic species   valence    mass     pseudopotential
        C              4.00    12.01070      C( 1.00)
        N              5.00    14.00670      N( 1.00)
        H              1.00     1.00794      H( 1.00)
        O              6.00    15.99940      O( 1.00)

      2 Sym. Ops. (no inversion) found ( 1 have fractional translation)
          (note:  2 additional sym.ops. were found but ignored
           their fractional translations are incommensurate with FFT grid)


   Cartesian axes

     site n.     atom                  positions (alat units)
         1           O   tau(   1) = (   0.2589878   1.7524157   0.3494008  )
         2           O   tau(   2) = (   0.2410122   0.1139922   1.3646142  )
         3           O   tau(   3) = (   0.7410122   0.8192117   0.6658125  )
         4           O   tau(   4) = (   0.7589878   1.0471961   1.6810258  )
         5           H   tau(   5) = (   0.0810551   1.6808764   0.3881251  )
         6           H   tau(   6) = (   0.4189449   0.1855314   1.4033384  )
         7           H   tau(   7) = (   0.9189449   0.7476725   0.6270883  )
         8           H   tau(   8) = (   0.5810551   1.1187353   1.6423016  )
         9           O   tau(   9) = (   0.2395228   0.5877655   0.5474251  )
        10           O   tau(  10) = (   0.2604772   1.2786423   1.5626385  )
        11           O   tau(  11) = (   0.7604772   1.5209695   0.4677882  )
        12           O   tau(  12) = (   0.7395228   0.3454384   1.4830015  )
        13           H   tau(  13) = (   0.4170399   0.6599537   0.5836048  )
        14           H   tau(  14) = (   0.0829601   1.2064541   1.5988181  )
        15           H   tau(  15) = (   0.5829601   1.5931576   0.4316086  )
        16           H   tau(  16) = (   0.9170399   0.2732502   1.4468219  )
        17           C   tau(  17) = (   0.0042231   0.2459296   0.1497959  )
        18           C   tau(  18) = (   0.4957769   1.6204782   1.1650093  )
        19           C   tau(  19) = (   0.9957769   1.1791335   0.8654174  )
        20           C   tau(  20) = (   0.5042231   0.6872743   1.8806308  )
        21           H   tau(  21) = (   0.0120309   0.1526904  -0.0460910  )
        22           H   tau(  22) = (   0.4879691   1.7137174   0.9691224  )
        23           H   tau(  23) = (   0.9879691   1.0858943   1.0613043  )
        24           H   tau(  24) = (   0.5120309   0.7805135   2.0765177  )
        25           H   tau(  25) = (  -0.0001846   0.4613782   0.1245170  )
        26           H   tau(  26) = (   0.5001846   1.4050297   1.1397303  )
        27           H   tau(  27) = (   1.0001846   1.3945821   0.8906964  )
        28           H   tau(  28) = (   0.4998154   0.4718257   1.9059097  )
        29           H   tau(  29) = (   0.8106834   0.1870345   0.2441518  )
        30           H   tau(  30) = (   0.6893166   1.6793733   1.2593652  )
        31           H   tau(  31) = (   0.1893166   1.1202385   0.7710615  )
        32           H   tau(  32) = (   0.3106834   0.7461694   1.7862748  )
        33           C   tau(  33) = (   0.2387212   0.1667984   0.3185811  )
        34           C   tau(  34) = (   0.2612788   1.6996094   1.3337945  )
        35           C   tau(  35) = (   0.7612788   1.1000023   0.6966322  )
        36           C   tau(  36) = (   0.7387212   0.7664055   1.7118456  )
        37           H   tau(  37) = (   0.4280284   0.2276411   0.2165903  )
        38           H   tau(  38) = (   0.0719716   1.6387667   1.2318037  )
        39           H   tau(  39) = (   0.5719716   1.1608450   0.7986230  )
        40           H   tau(  40) = (   0.9280284   0.7055628   1.8138364  )
        41           C   tau(  41) = (   0.2385854   0.3066703   0.5919070  )
        42           C   tau(  42) = (   0.2614146   1.5597375   1.6071203  )
        43           C   tau(  43) = (   0.7614146   1.2398743   0.4233063  )
        44           C   tau(  44) = (   0.7385854   0.6265336   1.4385197  )
        45           H   tau(  45) = (   0.4286857   0.2487917   0.6955750  )
        46           H   tau(  46) = (   0.0713143   1.6176161   1.7107883  )
        47           H   tau(  47) = (   0.5713143   1.1819956   0.3196384  )
        48           H   tau(  48) = (   0.9286857   0.6844122   1.3348517  )
        49           C   tau(  49) = (   1.0066560   0.2283270   0.7634707  )
        50           C   tau(  50) = (   0.4933440   1.6380808   1.7786840  )
        51           C   tau(  51) = (  -0.0066560   1.1615309   0.2517427  )
        52           C   tau(  52) = (   0.5066560   0.7048769   1.2669560  )
        53           H   tau(  53) = (   1.0158850   0.3267124   0.9565736  )
        54           H   tau(  54) = (   0.4841150   1.5396954   1.9717869  )
        55           H   tau(  55) = (  -0.0158850   1.2599163   0.0586398  )
        56           H   tau(  56) = (   0.5158850   0.6064915   1.0738531  )
        57           H   tau(  57) = (   1.0053757   0.0137209   0.7967037  )
        58           H   tau(  58) = (   0.4946243   1.8526869   1.8119171  )
        59           H   tau(  59) = (  -0.0053757   0.9469248   0.2185096  )
        60           H   tau(  60) = (   0.5053757   0.9194830   1.2337229  )
        61           H   tau(  61) = (   0.8116177   0.2795661   0.6684230  )
        62           H   tau(  62) = (   0.6883823   1.5868417   1.6836363  )
        63           H   tau(  63) = (   0.1883823   1.2127701   0.3467904  )
        64           H   tau(  64) = (   0.3116177   0.6536378   1.3620037  )

     number of k points=    12
                       cart. coord. in units 2pi/alat
        k(    1) = (   0.0000000   0.0000000   0.0000000), wk =   0.1250000
        k(    2) = (   0.0000000   0.0000000  -0.2462537), wk =   0.1250000
        k(    3) = (   0.0000000  -0.2678943   0.0000000), wk =   0.1250000
        k(    4) = (   0.0000000  -0.2678943  -0.2462537), wk =   0.1250000
        k(    5) = (   0.2500000   0.0000000   0.0000000), wk =   0.2500000
        k(    6) = (   0.2500000   0.0000000  -0.2462537), wk =   0.2500000
        k(    7) = (   0.2500000  -0.2678943   0.0000000), wk =   0.2500000
        k(    8) = (   0.2500000  -0.2678943  -0.2462537), wk =   0.2500000
        k(    9) = (  -0.5000000   0.0000000   0.0000000), wk =   0.1250000
        k(   10) = (  -0.5000000   0.0000000  -0.2462537), wk =   0.1250000
        k(   11) = (  -0.5000000  -0.2678943   0.0000000), wk =   0.1250000
        k(   12) = (  -0.5000000  -0.2678943  -0.2462537), wk =   0.1250000

     Dense  grid:   444563 G-vectors     FFT dimensions: (  64, 120, 125)

     Estimated max dynamical RAM per process >     268.96MB

     Estimated total allocated dynamical RAM >    2151.72MB

     Check: negative/imaginary core charge=   -0.000002    0.000000

     Initial potential from superposition of free atoms

     starting charge  151.99894, renormalised to  152.00000
     Starting wfc are  136 randomized atomic wfcs
     Checking if some PAW data can be deallocated... 

     total cpu time spent up to now is       14.4 secs

     per-process dynamical memory:   244.7 Mb

     Self-consistent Calculation

     iteration #  1     ecut=   100.00 Ry     beta=0.50
     Davidson diagonalization with overlap
     ethr =  1.00E-02,  avg # of iterations =  4.0

     total cpu time spent up to now is       52.4 secs

     total energy              =    -674.87523295 Ry
     Harris-Foulkes estimate   =    -678.16674269 Ry
     estimated scf accuracy    <       6.28434629 Ry

     iteration #  2     ecut=   100.00 Ry     beta=0.50
     Davidson diagonalization with overlap
     ethr =  4.13E-03,  avg # of iterations =  2.4

     total cpu time spent up to now is       73.9 secs

     total energy              =    -675.65257529 Ry
     Harris-Foulkes estimate   =    -675.83187832 Ry
     estimated scf accuracy    <       0.49643847 Ry

     iteration #  3     ecut=   100.00 Ry     beta=0.50
     Davidson diagonalization with overlap
     ethr =  3.27E-04,  avg # of iterations =  5.7

     total cpu time spent up to now is      114.4 secs

     total energy              =    -676.04045387 Ry
     Harris-Foulkes estimate   =    -676.20787765 Ry
     estimated scf accuracy    <       0.45658415 Ry

     iteration #  4     ecut=   100.00 Ry     beta=0.50
     Davidson diagonalization with overlap
     ethr =  3.00E-04,  avg # of iterations =  1.0

     total cpu time spent up to now is      132.8 secs

     total energy              =    -675.96527375 Ry
     Harris-Foulkes estimate   =    -676.05922792 Ry
     estimated scf accuracy    <       0.15032273 Ry

     iteration #  5     ecut=   100.00 Ry     beta=0.50
     Davidson diagonalization with overlap
     ethr =  9.89E-05,  avg # of iterations =  4.7

     total cpu time spent up to now is      174.1 secs

     total energy              =    -676.01260447 Ry
     Harris-Foulkes estimate   =    -676.21762163 Ry
     estimated scf accuracy    <       0.46768687 Ry

     iteration #  6     ecut=   100.00 Ry     beta=0.50
     Davidson diagonalization with overlap
     ethr =  9.89E-05,  avg # of iterations =  5.1

     total cpu time spent up to now is      199.4 secs

     total energy              =    -676.04627493 Ry
     Harris-Foulkes estimate   =    -676.06276375 Ry
     estimated scf accuracy    <       0.03369870 Ry

     iteration #  7     ecut=   100.00 Ry     beta=0.50
     Davidson diagonalization with overlap
     ethr =  2.22E-05,  avg # of iterations =  5.3

     total cpu time spent up to now is      232.8 secs

     total energy              =    -676.07001831 Ry
     Harris-Foulkes estimate   =    -676.07100545 Ry
     estimated scf accuracy    <       0.00313646 Ry

     iteration #  8     ecut=   100.00 Ry     beta=0.50
     Davidson diagonalization with overlap
     ethr =  2.06E-06,  avg # of iterations =  3.6

     total cpu time spent up to now is      256.8 secs

     total energy              =    -676.06981222 Ry
     Harris-Foulkes estimate   =    -676.07048780 Ry
     estimated scf accuracy    <       0.00165013 Ry

     iteration #  9     ecut=   100.00 Ry     beta=0.50
     Davidson diagonalization with overlap
     ethr =  1.09E-06,  avg # of iterations =  2.9

     total cpu time spent up to now is      282.5 secs

     total energy              =    -676.07028006 Ry
     Harris-Foulkes estimate   =    -676.07028691 Ry
     estimated scf accuracy    <       0.00001768 Ry

     iteration # 10     ecut=   100.00 Ry     beta=0.50
     Davidson diagonalization with overlap
     ethr =  1.16E-08,  avg # of iterations =  3.9

     total cpu time spent up to now is      319.1 secs

     total energy              =    -676.07030412 Ry
     Harris-Foulkes estimate   =    -676.07030864 Ry
     estimated scf accuracy    <       0.00000794 Ry

     iteration # 11     ecut=   100.00 Ry     beta=0.50
     Davidson diagonalization with overlap
     ethr =  5.22E-09,  avg # of iterations =  4.0

     total cpu time spent up to now is      354.9 secs

     total energy              =    -676.07030354 Ry
     Harris-Foulkes estimate   =    -676.07031268 Ry
     estimated scf accuracy    <       0.00001839 Ry

     iteration # 12     ecut=   100.00 Ry     beta=0.50
     Davidson diagonalization with overlap
     ethr =  5.22E-09,  avg # of iterations =  4.8

     total cpu time spent up to now is      384.7 secs

     total energy              =    -676.07030704 Ry
     Harris-Foulkes estimate   =    -676.07030704 Ry
     estimated scf accuracy    <       0.00000003 Ry

     iteration # 13     ecut=   100.00 Ry     beta=0.50
     Davidson diagonalization with overlap
     ethr =  1.68E-11,  avg # of iterations =  4.0

     total cpu time spent up to now is      425.7 secs

     total energy              =    -676.07030709 Ry
     Harris-Foulkes estimate   =    -676.07030710 Ry
     estimated scf accuracy    <       0.00000006 Ry

     iteration # 14     ecut=   100.00 Ry     beta=0.50
     Davidson diagonalization with overlap
     ethr =  1.68E-11,  avg # of iterations =  1.0

     total cpu time spent up to now is      444.1 secs

     total energy              =    -676.07030707 Ry
     Harris-Foulkes estimate   =    -676.07030709 Ry
     estimated scf accuracy    <       0.00000005 Ry

     iteration # 15     ecut=   100.00 Ry     beta=0.50
     Davidson diagonalization with overlap
     ethr =  1.68E-11,  avg # of iterations =  3.6

     total cpu time spent up to now is      474.7 secs

     End of self-consistent calculation

          k = 0.0000 0.0000 0.0000 ( 55599 PWs)   bands (ev):

   -19.9154 -19.9035 -19.6251 -19.6215 -19.4842 -19.4810 -19.1541 -19.1505
   -13.3257 -13.2633 -13.2391 -13.2357 -12.1464 -11.9786 -11.9331 -11.8282
   -10.0386  -9.9603  -9.7286  -9.7249  -8.2961  -8.2933  -8.2410  -8.1841
    -6.9959  -6.9750  -6.8100  -6.7798  -6.2173  -6.1447  -6.1199  -6.1081
    -5.5500  -5.5061  -5.4312  -5.3090  -4.9720  -4.8463  -4.7973  -4.7564
    -4.3635  -4.2435  -4.1667  -4.0730  -3.7856  -3.7319  -3.6951  -3.6034
    -3.4850  -3.3522  -3.2618  -3.2423  -3.2095  -3.1302  -2.9715  -2.9363
    -2.7781  -2.7452  -2.7018  -2.6088  -2.5565  -2.4475  -2.2413  -2.0549
    -1.6789  -1.6297  -1.5680  -1.4617  -1.4488  -1.3633  -0.9838  -0.9404
    -0.1371  -0.0427   0.0329   0.1205   5.6620   6.4293   6.4533   6.5589
     6.8938   7.0149   7.2599   7.7651   7.9966   8.0657   8.0896   8.1750
     8.3040   8.4085   8.5151

          k = 0.0000 0.0000-0.2463 ( 55578 PWs)   bands (ev):

   -19.9095 -19.9095 -19.6232 -19.6232 -19.4827 -19.4827 -19.1523 -19.1523
   -13.2973 -13.2973 -13.2374 -13.2374 -12.0328 -12.0328 -11.9125 -11.9125
    -9.9922  -9.9922  -9.7276  -9.7276  -8.2991  -8.2991  -8.2099  -8.2099
    -6.9869  -6.9869  -6.7894  -6.7894  -6.2391  -6.2391  -6.0522  -6.0522
    -5.5171  -5.5171  -5.4217  -5.4217  -4.8782  -4.8782  -4.7628  -4.7628
    -4.3252  -4.3252  -4.0270  -4.0270  -3.8452  -3.8452  -3.7251  -3.7251
    -3.3791  -3.3791  -3.2223  -3.2223  -3.1632  -3.1631  -2.9593  -2.9593
    -2.6995  -2.6995  -2.6384  -2.6384  -2.5731  -2.5731  -2.1471  -2.1471
    -1.6681  -1.6681  -1.4802  -1.4802  -1.4324  -1.4324  -0.9599  -0.9599
    -0.1358  -0.1358   0.1209   0.1209   6.1115   6.1115   6.4348   6.4348
     7.0488   7.0488   7.3071   7.3071   7.8559   7.8559   8.1748   8.1748
     8.4649   8.4650   8.5911

          k = 0.0000-0.2679 0.0000 ( 55532 PWs)   bands (ev):

   -19.8182 -19.8182 -19.8085 -19.8085 -19.2725 -19.2725 -19.2687 -19.2687
   -13.2970 -13.2970 -13.2331 -13.2331 -12.0855 -12.0855 -11.8592 -11.8592
    -9.8999  -9.8999  -9.8466  -9.8466  -8.2886  -8.2886  -8.1996  -8.1996
    -6.9069  -6.9069  -6.8942  -6.8942  -6.1396  -6.1396  -6.0665  -6.0665
    -5.5359  -5.5359  -5.3236  -5.3236  -5.0136  -5.0136  -4.9151  -4.9151
    -4.2217  -4.2217  -4.1486  -4.1486  -3.7642  -3.7642  -3.5373  -3.5373
    -3.4363  -3.4363  -3.2581  -3.2581  -3.0910  -3.0910  -2.8661  -2.8661
    -2.7470  -2.7470  -2.6837  -2.6837  -2.5707  -2.5707  -2.3097  -2.3097
    -1.6118  -1.6118  -1.4925  -1.4925  -1.2542  -1.2542  -1.1490  -1.1490
    -0.0297  -0.0297   0.0504   0.0504   5.9653   5.9653   6.8178   6.8178
     7.2336   7.2336   7.4411   7.4411   7.6149   7.6149   8.2112   8.2115
     8.2394   8.2394   8.4853

          k = 0.0000-0.2679-0.2463 ( 55532 PWs)   bands (ev):

   -19.8157 -19.8157 -19.8111 -19.8111 -19.2722 -19.2722 -19.2690 -19.2690
   -13.2911 -13.2911 -13.2417 -13.2417 -12.0342 -12.0342 -11.9123 -11.9123
    -9.8725  -9.8725  -9.8678  -9.8678  -8.2967  -8.2967  -8.1932  -8.1932
    -6.9021  -6.9021  -6.8951  -6.8951  -6.1079  -6.1079  -6.0969  -6.0969
    -5.5409  -5.5409  -5.3895  -5.3895  -4.9716  -4.9716  -4.8712  -4.8712
    -4.2019  -4.2019  -4.1896  -4.1896  -3.6681  -3.6681  -3.6531  -3.6531
    -3.3978  -3.3978  -3.2747  -3.2747  -3.0677  -3.0677  -2.9118  -2.9118
    -2.7818  -2.7818  -2.6607  -2.6607  -2.5208  -2.5208  -2.3310  -2.3309
    -1.5872  -1.5872  -1.4675  -1.4675  -1.2460  -1.2460  -1.2125  -1.2125
    -0.0621  -0.0621   0.0878   0.0878   6.3469   6.3469   6.4153   6.4153
     7.1521   7.1521   7.2697   7.2697   7.8840   7.8840   8.1136   8.1136
     8.3427   8.3432   8.4743

          k = 0.2500 0.0000 0.0000 ( 55544 PWs)   bands (ev):

   -19.8531 -19.8423 -19.5632 -19.5620 -19.5393 -19.5391 -19.2253 -19.2217
   -13.2985 -13.2675 -13.2159 -13.1632 -12.0677 -11.9440 -11.9204 -11.8253
   -10.1782 -10.1259  -9.8427  -9.8315  -8.3919  -8.3734  -8.2553  -8.2322
    -7.0509  -7.0050  -6.8632  -6.8627  -6.3557  -6.2919  -6.0984  -6.0881
    -5.6802  -5.6774  -5.5008  -5.3720  -4.9022  -4.8980  -4.8936  -4.7888
    -4.2222  -4.1195  -3.9970  -3.8883  -3.8228  -3.6886  -3.5664  -3.5543
    -3.3881  -3.3335  -3.1849  -3.1450  -3.0881  -3.0052  -2.8729  -2.7277
    -2.7111  -2.6642  -2.5828  -2.5785  -2.3181  -2.2681  -1.7815  -1.7725
    -1.6716  -1.6479  -1.4985  -1.4350  -1.3085  -1.3059  -1.0222  -0.9847
    -0.0876  -0.0052   0.0544   0.1089   5.7401   6.4025   6.4101   6.6953
     6.7720   6.8518   6.9891   7.2089   7.4952   7.7445   7.8670   8.0691
     8.0924   8.0963   8.2031

          k = 0.2500 0.0000-0.2463 ( 55578 PWs)   bands (ev):

   -19.8478 -19.8478 -19.5623 -19.5623 -19.5395 -19.5395 -19.2235 -19.2235
   -13.2858 -13.2858 -13.1885 -13.1885 -11.9848 -11.9848 -11.8946 -11.8946
   -10.1466 -10.1466  -9.8411  -9.8411  -8.3720  -8.3720  -8.2531  -8.2531
    -7.0180  -7.0180  -6.8759  -6.8759  -6.3308  -6.3308  -6.0887  -6.0887
    -5.6319  -5.6319  -5.4983  -5.4983  -4.8984  -4.8984  -4.8377  -4.8377
    -4.1530  -4.1530  -3.9376  -3.9376  -3.7055  -3.7055  -3.6009  -3.6009
    -3.3401  -3.3401  -3.2135  -3.2135  -3.0483  -3.0483  -2.7709  -2.7709
    -2.7145  -2.7145  -2.5602  -2.5602  -2.3155  -2.3155  -1.7661  -1.7661
    -1.6568  -1.6568  -1.4668  -1.4668  -1.3172  -1.3172  -1.0027  -1.0027
    -0.0743  -0.0743   0.1141   0.1141   6.0950   6.0950   6.5122   6.5122
     6.7747   6.7747   7.2036   7.2036   7.4551   7.4551   7.9041   7.9041
     8.1974   8.1980   8.3646

          k = 0.2500-0.2679 0.0000 ( 55608 PWs)   bands (ev):

   -19.7681 -19.7681 -19.7591 -19.7590 -19.3251 -19.3251 -19.3210 -19.3210
   -13.2599 -13.2599 -13.2133 -13.2133 -12.0227 -12.0227 -11.8545 -11.8545
   -10.0441 -10.0441  -9.9728  -9.9728  -8.3548  -8.3548  -8.2421  -8.2421
    -6.9740  -6.9740  -6.9212  -6.9212  -6.2428  -6.2428  -6.1391  -6.1391
    -5.6771  -5.6771  -5.4681  -5.4681  -4.9402  -4.9402  -4.8541  -4.8541
    -4.0915  -4.0915  -4.0060  -4.0060  -3.6442  -3.6442  -3.6252  -3.6252
    -3.4419  -3.4419  -3.1324  -3.1324  -2.9460  -2.9460  -2.8392  -2.8392
    -2.7008  -2.7008  -2.5582  -2.5582  -2.1771  -2.1771  -2.0811  -2.0811
    -1.5322  -1.5322  -1.4749  -1.4749  -1.1841  -1.1841  -1.1160  -1.1160
    -0.0115  -0.0115   0.0607   0.0607   5.9739   5.9739   6.8087   6.8087
     7.0031   7.0031   7.2339   7.2339   7.4166   7.4167   7.8487   7.8487
     8.0515   8.0515   8.1783

          k = 0.2500-0.2679-0.2463 ( 55572 PWs)   bands (ev):

   -19.7655 -19.7655 -19.7616 -19.7616 -19.3244 -19.3244 -19.3216 -19.3216
   -13.2558 -13.2558 -13.2189 -13.2189 -11.9828 -11.9828 -11.8951 -11.8951
   -10.0130 -10.0130 -10.0029 -10.0029  -8.3336  -8.3336  -8.2623  -8.2623
    -6.9557  -6.9557  -6.9382  -6.9382  -6.1971  -6.1971  -6.1958  -6.1958
    -5.6164  -5.6164  -5.5453  -5.5453  -4.9089  -4.9089  -4.8608  -4.8608
    -4.0642  -4.0642  -4.0280  -4.0280  -3.6819  -3.6819  -3.5625  -3.5625
    -3.3276  -3.3275  -3.3123  -3.3123  -2.8676  -2.8676  -2.8511  -2.8511
    -2.7102  -2.7102  -2.5996  -2.5996  -2.1650  -2.1650  -2.0707  -2.0707
    -1.5175  -1.5175  -1.4832  -1.4832  -1.1728  -1.1728  -1.1444  -1.1444
    -0.0276  -0.0276   0.0832   0.0832   6.3120   6.3120   6.3366   6.3366
     7.0446   7.0446   7.2766   7.2766   7.5589   7.5589   7.6990   7.6990
     8.1174   8.1174   8.1990

          k =-0.5000 0.0000 0.0000 ( 55586 PWs)   bands (ev):

   -19.7115 -19.7115 -19.6824 -19.6824 -19.4047 -19.4047 -19.3798 -19.3798
   -13.2704 -13.2704 -13.1384 -13.1384 -11.9361 -11.9361 -11.8756 -11.8756
   -10.2977 -10.2977  -9.9509  -9.9509  -8.4763  -8.4763  -8.2899  -8.2899
    -7.0547  -7.0547  -6.9259  -6.9259  -6.3463  -6.3463  -6.1667  -6.1667
    -5.7688  -5.7688  -5.5138  -5.5138  -4.9609  -4.9609  -4.7907  -4.7907
    -4.0628  -4.0628  -3.8800  -3.8800  -3.6132  -3.6132  -3.4803  -3.4803
    -3.4181  -3.4181  -3.1705  -3.1705  -2.9024  -2.9024  -2.7826  -2.7826
    -2.6267  -2.6267  -2.4888  -2.4888  -2.0010  -2.0010  -1.7523  -1.7523
    -1.3431  -1.3431  -1.1898  -1.1898  -1.1441  -1.1441  -1.0868  -1.0868
     0.0199   0.0199   0.0842   0.0842   6.0357   6.0357   6.2674   6.2674
     6.4609   6.4609   6.8725   6.8725   7.2060   7.2060   7.3037   7.3037
     7.8978   7.8979   8.3755

          k =-0.5000 0.0000-0.2463 ( 55596 PWs)   bands (ev):

   -19.7110 -19.7110 -19.6830 -19.6830 -19.4045 -19.4045 -19.3799 -19.3799
   -13.2706 -13.2706 -13.1387 -13.1387 -11.9165 -11.9165 -11.8944 -11.8944
   -10.2944 -10.2944  -9.9571  -9.9571  -8.4568  -8.4568  -8.3079  -8.3079
    -7.0338  -7.0338  -6.9554  -6.9554  -6.3243  -6.3243  -6.1854  -6.1854
    -5.7251  -5.7251  -5.5580  -5.5580  -4.9612  -4.9612  -4.8096  -4.8096
    -4.0474  -4.0474  -3.8437  -3.8437  -3.5594  -3.5594  -3.4334  -3.4334
    -3.3968  -3.3968  -3.3277  -3.3277  -2.8706  -2.8706  -2.8379  -2.8379
    -2.5953  -2.5953  -2.4899  -2.4899  -2.0065  -2.0065  -1.7486  -1.7486
    -1.3552  -1.3552  -1.1876  -1.1876  -1.1327  -1.1327  -1.0954  -1.0954
     0.0232   0.0232   0.0926   0.0926   6.0871   6.0871   6.2433   6.2433
     6.4847   6.4847   6.8455   6.8455   7.0995   7.0995   7.3850   7.3850
     7.9341   7.9341   8.3636

          k =-0.5000-0.2679 0.0000 ( 55588 PWs)   bands (ev):

   -19.7012 -19.7012 -19.6935 -19.6935 -19.3939 -19.3939 -19.3899 -19.3899
   -13.2073 -13.2073 -13.2051 -13.2051 -11.9314 -11.9314 -11.8753 -11.8753
   -10.1850 -10.1850 -10.0965 -10.0965  -8.4371  -8.4371  -8.2940  -8.2940
    -7.0026  -7.0026  -6.9616  -6.9616  -6.3075  -6.3075  -6.2060  -6.2060
    -5.7668  -5.7668  -5.5731  -5.5731  -4.8513  -4.8513  -4.8454  -4.8454
    -3.9977  -3.9977  -3.9204  -3.9204  -3.6315  -3.6315  -3.5453  -3.5453
    -3.4480  -3.4480  -3.1708  -3.1708  -2.8642  -2.8642  -2.7576  -2.7576
    -2.6007  -2.6007  -2.5042  -2.5042  -1.8933  -1.8933  -1.8749  -1.8749
    -1.3350  -1.3350  -1.3321  -1.3321  -1.0557  -1.0557  -1.0197  -1.0197
     0.0384   0.0384   0.0538   0.0538   6.0711   6.0711   6.0766   6.0766
     6.9159   6.9159   7.0212   7.0212   7.1473   7.1473   7.4105   7.4105
     7.7289   7.7289   7.9114

          k =-0.5000-0.2679-0.2463 ( 55552 PWs)   bands (ev):

   -19.6974 -19.6974 -19.6974 -19.6974 -19.3919 -19.3919 -19.3919 -19.3919
   -13.2064 -13.2064 -13.2064 -13.2064 -11.9029 -11.9029 -11.9029 -11.9029
   -10.1425 -10.1425 -10.1425 -10.1425  -8.3652  -8.3652  -8.3652  -8.3652
    -6.9804  -6.9804  -6.9804  -6.9804  -6.2699  -6.2699  -6.2699  -6.2699
    -5.6504  -5.6504  -5.6504  -5.6504  -4.8761  -4.8761  -4.8761  -4.8761
    -3.9158  -3.9158  -3.9158  -3.9158  -3.5907  -3.5907  -3.5907  -3.5907
    -3.3278  -3.3278  -3.3278  -3.3278  -2.8319  -2.8319  -2.8319  -2.8319
    -2.5332  -2.5332  -2.5332  -2.5332  -1.8872  -1.8872  -1.8872  -1.8872
    -1.3380  -1.3380  -1.3380  -1.3380  -1.0360  -1.0360  -1.0360  -1.0360
     0.0515   0.0515   0.0515   0.0515   6.1088   6.1088   6.1088   6.1088
     6.8597   6.8597   6.8597   6.8597   7.4077   7.4077   7.4077   7.4078
     7.8261   7.8261   7.8261

     highest occupied, lowest unoccupied level (ev):     0.1209    5.6620

!    total energy              =    -676.07030708 Ry
     Harris-Foulkes estimate   =    -676.07030708 Ry
     estimated scf accuracy    <          1.0E-09 Ry

     total all-electron energy =     -2471.070896 Ry

     The total energy is the sum of the following terms:

     one-electron contribution =    -341.55132902 Ry
     hartree contribution      =     227.81394205 Ry
     xc contribution           =    -154.64386986 Ry
     ewald contribution        =    -224.95165740 Ry
     Dispersion Correction     =      -0.28548777 Ry
     one-center paw contrib.   =    -182.45190509 Ry

     convergence has been achieved in  15 iterations

     Forces acting on atoms (cartesian axes, Ry/au):

     atom    1 type  4   force =     0.00134508   -0.00681739    0.00398241
     atom    2 type  4   force =    -0.00134560    0.00681768    0.00398108
     atom    3 type  4   force =    -0.00134560   -0.00681768   -0.00398108
     atom    4 type  4   force =     0.00134508    0.00681739   -0.00398241
     atom    5 type  3   force =    -0.00320905   -0.00343484    0.00209838
     atom    6 type  3   force =     0.00320895    0.00343476    0.00209818
     atom    7 type  3   force =     0.00320895   -0.00343476   -0.00209818
     atom    8 type  3   force =    -0.00320905    0.00343484   -0.00209838
     atom    9 type  4   force =    -0.00554877    0.00694479    0.00449411
     atom   10 type  4   force =     0.00554896   -0.00694501    0.00449730
     atom   11 type  4   force =     0.00554896    0.00694501   -0.00449730
     atom   12 type  4   force =    -0.00554877   -0.00694479   -0.00449411
     atom   13 type  3   force =     0.00470957    0.00316487    0.00090458
     atom   14 type  3   force =    -0.00470933   -0.00316484    0.00090433
     atom   15 type  3   force =    -0.00470933    0.00316484   -0.00090433
     atom   16 type  3   force =     0.00470957   -0.00316487   -0.00090458
     atom   17 type  1   force =    -0.03247162   -0.00643431    0.00617556
     atom   18 type  1   force =     0.03247142    0.00643467    0.00615700
     atom   19 type  1   force =     0.03247142   -0.00643467   -0.00615700
     atom   20 type  1   force =    -0.03247162    0.00643431   -0.00617556
     atom   21 type  3   force =     0.00219639   -0.00065463   -0.00260524
     atom   22 type  3   force =    -0.00219653    0.00065517   -0.00260560
     atom   23 type  3   force =    -0.00219653   -0.00065517    0.00260560
     atom   24 type  3   force =     0.00219639    0.00065463    0.00260524
     atom   25 type  3   force =     0.00117199    0.00180163   -0.00026902
     atom   26 type  3   force =    -0.00117209   -0.00180182   -0.00026927
     atom   27 type  3   force =    -0.00117209    0.00180182    0.00026927
     atom   28 type  3   force =     0.00117199   -0.00180163    0.00026902
     atom   29 type  3   force =     0.03085051    0.00437221   -0.01050077
     atom   30 type  3   force =    -0.03085063   -0.00437221   -0.01050080
     atom   31 type  3   force =    -0.03085063    0.00437221    0.01050080
     atom   32 type  3   force =     0.03085051   -0.00437221    0.01050077
     atom   33 type  1   force =     0.03049028    0.00943428   -0.00420572
     atom   34 type  1   force =    -0.03049022   -0.00943385   -0.00419688
     atom   35 type  1   force =    -0.03049022    0.00943385    0.00419688
     atom   36 type  1   force =     0.03049028   -0.00943428    0.00420572
     atom   37 type  3   force =    -0.02883030   -0.00582409    0.01125766
     atom   38 type  3   force =     0.02883084    0.00582427    0.01125799
     atom   39 type  3   force =     0.02883084   -0.00582427   -0.01125799
     atom   40 type  3   force =    -0.02883030    0.00582409   -0.01125766
     atom   41 type  1   force =     0.03124470   -0.01049754    0.00324640
     atom   42 type  1   force =    -0.03124488    0.01049769    0.00324316
     atom   43 type  1   force =    -0.03124488   -0.01049769   -0.00324316
     atom   44 type  1   force =     0.03124470    0.01049754   -0.00324640
     atom   45 type  3   force =    -0.02880644    0.00643324   -0.01203762
     atom   46 type  3   force =     0.02880589   -0.00643316   -0.01203787
     atom   47 type  3   force =     0.02880589    0.00643316    0.01203787
     atom   48 type  3   force =    -0.02880644   -0.00643324    0.01203762
     atom   49 type  1   force =    -0.03413687    0.00435457   -0.00528763
     atom   50 type  1   force =     0.03413776   -0.00435471   -0.00528249
     atom   51 type  1   force =     0.03413776    0.00435471    0.00528249
     atom   52 type  1   force =    -0.03413687   -0.00435457    0.00528763
     atom   53 type  3   force =     0.00145456    0.00033584    0.00079512
     atom   54 type  3   force =    -0.00145465   -0.00033593    0.00079539
     atom   55 type  3   force =    -0.00145465    0.00033593   -0.00079539
     atom   56 type  3   force =     0.00145456   -0.00033584   -0.00079512
     atom   57 type  3   force =     0.00120577   -0.00234924    0.00032639
     atom   58 type  3   force =    -0.00120578    0.00234941    0.00032652
     atom   59 type  3   force =    -0.00120578   -0.00234941   -0.00032652
     atom   60 type  3   force =     0.00120577    0.00234924   -0.00032639
     atom   61 type  3   force =     0.02991700   -0.00303253    0.00987024
     atom   62 type  3   force =    -0.02991690    0.00303256    0.00987049
     atom   63 type  3   force =    -0.02991690   -0.00303256   -0.00987049
     atom   64 type  3   force =     0.02991700    0.00303253   -0.00987024

     Total force =     0.187826     Total SCF correction =     0.000050


     Computing stress (Cartesian axis) and pressure

          total   stress  (Ry/bohr**3)                   (kbar)     P=  -14.46
  -0.00026530   0.00000000   0.00000000        -39.03      0.00      0.00
   0.00000000  -0.00000149  -0.00000000          0.00     -0.22     -0.00
   0.00000000  -0.00000000  -0.00002821          0.00     -0.00     -4.15


     Writing output data file scf.save
 
     init_run     :     13.55s CPU     13.79s WALL (       1 calls)
     electrons    :    444.88s CPU    460.31s WALL (       1 calls)
     forces       :      6.60s CPU      6.66s WALL (       1 calls)
     stress       :     20.95s CPU     20.98s WALL (       1 calls)

     Called by init_run:
     wfcinit      :     10.59s CPU     10.76s WALL (       1 calls)
     potinit      :      1.03s CPU      1.04s WALL (       1 calls)

     Called by electrons:
     c_bands      :    399.31s CPU    412.95s WALL (      15 calls)
     sum_band     :     40.25s CPU     41.88s WALL (      15 calls)
     v_of_rho     :      0.97s CPU      1.06s WALL (      16 calls)
     newd         :      1.72s CPU      1.76s WALL (      16 calls)
     PAW_pot      :      2.03s CPU      2.03s WALL (      16 calls)
     mix_rho      :      0.22s CPU      0.24s WALL (      15 calls)

     Called by c_bands:
     init_us_2    :      3.40s CPU      3.41s WALL (     396 calls)
     cegterg      :    388.44s CPU    402.01s WALL (     180 calls)

     Called by sum_band:
     sum_band:bec :      0.04s CPU      0.04s WALL (     180 calls)
     addusdens    :      1.74s CPU      1.76s WALL (      15 calls)

     Called by *egterg:
     h_psi        :    227.92s CPU    238.35s WALL (     863 calls)
     s_psi        :     38.02s CPU     38.03s WALL (     863 calls)
     g_psi        :      1.61s CPU      1.61s WALL (     671 calls)
     cdiaghg      :     19.16s CPU     19.15s WALL (     851 calls)

     Called by h_psi:
     h_psi:pot    :    226.13s CPU    236.54s WALL (     863 calls)
     h_psi:calbec :     38.26s CPU     38.38s WALL (     863 calls)
     vloc_psi     :    149.93s CPU    160.21s WALL (     863 calls)
     add_vuspsi   :     37.93s CPU     37.95s WALL (     863 calls)

     General routines
     calbec       :     54.10s CPU     54.25s WALL (    1103 calls)
     fft          :      0.96s CPU      1.11s WALL (     232 calls)
     fftw         :    157.10s CPU    168.26s WALL (  122836 calls)
 
     Parallel routines
     fft_scatter  :     46.38s CPU     53.28s WALL (  123068 calls)
 
     PWSCF        :  8m11.01s CPU     8m31.35s WALL

 
   This run was terminated on:   5:53:12  15Dec2017            

=------------------------------------------------------------------------------=
   JOB DONE.
=------------------------------------------------------------------------------=
