
     Program PWSCF v.6.1 (svn rev. 13369) starts on  5Nov2017 at 20:11:23 

     This program is part of the open-source Quantum ESPRESSO suite
     for quantum simulation of materials; please cite
         "P. Giannozzi et al., J. Phys.:Condens. Matter 21 395502 (2009);
          URL http://www.quantum-espresso.org", 
     in publications or presentations arising from this work. More details at
     http://www.quantum-espresso.org/quote

     Parallel version (MPI), running on     8 processors
     R & G space division:  proc/nbgrp/npool/nimage =       8
     Waiting for input...
     Reading input from standard input

     Current dimensions of program PWSCF are:
     Max number of different atomic species (ntypx) = 10
     Max number of k-points (npk) =  40000
     Max angular momentum in pseudopotentials (lmaxx) =  3
               file C.pbe-n-kjpaw_psl.0.1.UPF: wavefunction(s)  2P renormalized
               file N.pbe-n-kjpaw_psl.0.1.UPF: wavefunction(s)  2P renormalized
               file H.pbe-kjpaw_psl.0.1.UPF: wavefunction(s)  1S renormalized
               file O.pbe-n-kjpaw_psl.0.1.UPF: wavefunction(s)  2P renormalized

     -------------------------------------
     Parameters for Dispersion Correction:
     -------------------------------------
       atom      VdW radius       C_6     

        C          2.744         60.710
        N          2.640         42.670
        H          1.892          4.857
        O          2.536         24.284

     Subspace diagonalization in iterative solution of the eigenvalue problem:
     a serial algorithm will be used

 
     Parallelization info
     --------------------
     sticks:   dense  smooth     PW     G-vecs:    dense   smooth      PW
     Min         603     603    166                45132    45132    6465
     Max         604     604    167                45133    45133    6469
     Sum        4827    4827   1329               361057   361057   51743
 


     bravais-lattice index     =            0
     lattice parameter (alat)  =      22.2232  a.u.
     unit-cell volume          =    2672.9527 (a.u.)^3
     number of atoms/cell      =           40
     number of atomic types    =            4
     number of electrons       =       152.00
     number of Kohn-Sham states=           91
     kinetic-energy cutoff     =     100.0000  Ry
     charge density cutoff     =     400.0000  Ry
     convergence threshold     =      1.0E-08
     mixing beta               =       0.5000
     number of iterations used =            8  plain     mixing
     Exchange-correlation      =  SLA  PW   PBX  PBC ( 1  4  3  4 0 0)

     celldm(1)=  22.223179  celldm(2)=   0.000000  celldm(3)=   0.000000
     celldm(4)=   0.000000  celldm(5)=   0.000000  celldm(6)=   0.000000

     crystal axes: (cart. coord. in units of alat)
               a(1) = (   1.000000   0.000000   0.000000 )  
               a(2) = (   0.000000   0.307806   0.000000 )  
               a(3) = (  -0.362749   0.000000   0.791217 )  

     reciprocal axes: (cart. coord. in units 2 pi/alat)
               b(1) = (  1.000000  0.000000  0.458469 )  
               b(2) = (  0.000000  3.248798  0.000000 )  
               b(3) = (  0.000000  0.000000  1.263876 )  


     PseudoPot. # 1 for  C read from file:
     /scratch/ahofstet/pseudo/C.pbe-n-kjpaw_psl.0.1.UPF
     MD5 check sum: 430fe95172b1e11ef3f8ed03bac87931
     Pseudo is Projector augmented-wave + core cor, Zval =  4.0
     Generated using "atomic" code by A. Dal Corso  v.5.0.99 svn rev. 10869
     Shape of augmentation charge: BESSEL
     Using radial grid of 1073 points,  4 beta functions with: 
                l(1) =   0
                l(2) =   0
                l(3) =   1
                l(4) =   1
     Q(r) pseudized with 0 coefficients 


     PseudoPot. # 2 for  N read from file:
     /scratch/ahofstet/pseudo/N.pbe-n-kjpaw_psl.0.1.UPF
     MD5 check sum: f73187c8b701007e77325f868c9291d7
     Pseudo is Projector augmented-wave + core cor, Zval =  5.0
     Generated using "atomic" code by A. Dal Corso  v.5.0.99 svn rev. 10869
     Shape of augmentation charge: PSQ
     Using radial grid of 1085 points,  4 beta functions with: 
                l(1) =   0
                l(2) =   0
                l(3) =   1
                l(4) =   1
     Q(r) pseudized with 0 coefficients 


     PseudoPot. # 3 for  H read from file:
     /scratch/ahofstet/pseudo/H.pbe-kjpaw_psl.0.1.UPF
     MD5 check sum: 94e484f906d9e9773b2f6e52662335b2
     Pseudo is Projector augmented-wave, Zval =  1.0
     Generated using "atomic" code by A. Dal Corso  v.5.0.99 svn rev. 10869
     Shape of augmentation charge: PSQ
     Using radial grid of  929 points,  2 beta functions with: 
                l(1) =   0
                l(2) =   0
     Q(r) pseudized with 0 coefficients 


     PseudoPot. # 4 for  O read from file:
     /scratch/ahofstet/pseudo/O.pbe-n-kjpaw_psl.0.1.UPF
     MD5 check sum: 3f94a2996a3169367d6eb21d9b593f20
     Pseudo is Projector augmented-wave + core cor, Zval =  6.0
     Generated using "atomic" code by A. Dal Corso  v.5.0.99 svn rev. 10869
     Shape of augmentation charge: BESSEL
     Using radial grid of 1095 points,  4 beta functions with: 
                l(1) =   0
                l(2) =   0
                l(3) =   1
                l(4) =   1
     Q(r) pseudized with 0 coefficients 


     atomic species   valence    mass     pseudopotential
        C              4.00    12.01070      C( 1.00)
        N              5.00    14.00670      N( 1.00)
        H              1.00     1.00794      H( 1.00)
        O              6.00    15.99940      O( 1.00)

     No symmetry found



   Cartesian axes

     site n.     atom                  positions (alat units)
         1           O   tau(   1) = (  -0.1049586   0.0327581   0.4150534  )
         2           O   tau(   2) = (   0.0763718   0.2750527   0.0194694  )
         3           O   tau(   3) = (   0.3948223   0.1866056   0.4150350  )
         4           O   tau(   4) = (   0.5761827   0.1210611   0.0193738  )
         5           N   tau(   5) = (  -0.0834780   0.0529274   0.3033002  )
         6           N   tau(   6) = (  -0.2649350   0.2548688   0.6989894  )
         7           N   tau(   7) = (   0.4165240   0.2067704   0.3033555  )
         8           N   tau(   8) = (   0.2350511   0.1008767   0.6989173  )
         9           N   tau(   9) = (   0.8450222   0.0058995   0.2204551  )
        10           N   tau(  10) = (   0.6636947   0.3020441   0.6161676  )
        11           N   tau(  11) = (   0.3451233   0.1597009   0.2204656  )
        12           N   tau(  12) = (   0.1636966   0.1480410   0.6160838  )
        13           N   tau(  13) = (   0.8605336   0.0686803   0.1299305  )
        14           N   tau(  14) = (   0.6792703   0.2393345   0.5255911  )
        15           N   tau(  15) = (   0.3607457   0.2224169   0.1299282  )
        16           N   tau(  16) = (   0.1792674   0.0853161   0.5255278  )
        17           N   tau(  17) = (  -0.0656000   0.1505935   0.1472948  )
        18           N   tau(  18) = (  -0.2469215   0.1573699   0.5429866  )
        19           N   tau(  19) = (   0.4345926  -0.0034986   0.1473298  )
        20           N   tau(  20) = (   0.2530480   0.3111550   0.5429424  )
        21           N   tau(  21) = (   0.0394414   0.2097650   0.3107126  )
        22           N   tau(  22) = (  -0.1418414   0.0980239   0.7063726  )
        23           N   tau(  23) = (   0.5394869   0.3637047   0.3107810  )
        24           N   tau(  24) = (   0.3581493  -0.0559415   0.7063490  )
        25           C   tau(  25) = (  -0.0312434   0.1419721   0.2578152  )
        26           C   tau(  26) = (  -0.2124818   0.1659223   0.6535005  )
        27           C   tau(  27) = (   0.4689694   0.2957311   0.2578700  )
        28           C   tau(  28) = (   0.2874345   0.0118785   0.6534689  )
        29           H   tau(  29) = (   0.0681737   0.1855951   0.3893153  )
        30           H   tau(  30) = (  -0.1130561   0.1222762   0.7849817  )
        31           H   tau(  31) = (   0.5684381   0.3395277   0.3893252  )
        32           H   tau(  32) = (   0.3869783  -0.0315882   0.7849074  )
        33           H   tau(  33) = (   0.0947915   0.2558957   0.2633253  )
        34           H   tau(  34) = (  -0.0864489   0.0520016   0.6588435  )
        35           H   tau(  35) = (   0.5948456   0.1020855   0.2634038  )
        36           H   tau(  36) = (   0.4134835   0.2057466   0.6588621  )
        37           H   tau(  37) = (  -0.1683700   0.0850111   0.4432731  )
        38           H   tau(  38) = (   0.0128747   0.2229110   0.0477510  )
        39           H   tau(  39) = (   0.3313629   0.2388573   0.4432180  )
        40           H   tau(  40) = (   0.5127604   0.0687729   0.0475157  )

     number of k points=    12
                       cart. coord. in units 2pi/alat
        k(    1) = (   0.0000000   0.0000000   0.0000000), wk =   0.1000000
        k(    2) = (   0.0000000   0.0000000  -0.6319381), wk =   0.1000000
        k(    3) = (   0.0000000   0.6497597   0.0000000), wk =   0.2000000
        k(    4) = (   0.0000000   0.6497597  -0.6319381), wk =   0.2000000
        k(    5) = (   0.0000000   1.2995193   0.0000000), wk =   0.2000000
        k(    6) = (   0.0000000   1.2995193  -0.6319381), wk =   0.2000000
        k(    7) = (  -0.5000000   0.0000000  -0.2292346), wk =   0.1000000
        k(    8) = (  -0.5000000   0.0000000  -0.8611727), wk =   0.1000000
        k(    9) = (  -0.5000000   0.6497597  -0.2292346), wk =   0.2000000
        k(   10) = (  -0.5000000   0.6497597  -0.8611727), wk =   0.2000000
        k(   11) = (  -0.5000000   1.2995193  -0.2292346), wk =   0.2000000
        k(   12) = (  -0.5000000   1.2995193  -0.8611727), wk =   0.2000000

     Dense  grid:   361057 G-vectors     FFT dimensions: ( 144,  45, 125)

     Estimated max dynamical RAM per process >     217.52MB

     Estimated total allocated dynamical RAM >    1740.15MB

     Check: negative/imaginary core charge=   -0.000002    0.000000

     Initial potential from superposition of free atoms

     starting charge  151.99957, renormalised to  152.00000
     Starting wfc are  124 randomized atomic wfcs
     Checking if some PAW data can be deallocated... 

     total cpu time spent up to now is       12.9 secs

     per-process dynamical memory:   209.3 Mb

     Self-consistent Calculation

     iteration #  1     ecut=   100.00 Ry     beta=0.50
     Davidson diagonalization with overlap
     ethr =  1.00E-02,  avg # of iterations =  3.0

     total cpu time spent up to now is       38.5 secs

     total energy              =    -817.24107210 Ry
     Harris-Foulkes estimate   =    -819.10933005 Ry
     estimated scf accuracy    <       3.58429831 Ry

     iteration #  2     ecut=   100.00 Ry     beta=0.50
     Davidson diagonalization with overlap
     ethr =  2.36E-03,  avg # of iterations =  3.0

     total cpu time spent up to now is       59.2 secs

     total energy              =    -817.84238673 Ry
     Harris-Foulkes estimate   =    -818.08621172 Ry
     estimated scf accuracy    <       0.54909521 Ry

     iteration #  3     ecut=   100.00 Ry     beta=0.50
     Davidson diagonalization with overlap
     ethr =  3.61E-04,  avg # of iterations =  7.8

     total cpu time spent up to now is       81.4 secs

     total energy              =    -817.93678519 Ry
     Harris-Foulkes estimate   =    -817.97653624 Ry
     estimated scf accuracy    <       0.11086551 Ry

     iteration #  4     ecut=   100.00 Ry     beta=0.50
     Davidson diagonalization with overlap
     ethr =  7.29E-05,  avg # of iterations =  4.6

     total cpu time spent up to now is      102.1 secs

     total energy              =    -817.95516844 Ry
     Harris-Foulkes estimate   =    -817.96300793 Ry
     estimated scf accuracy    <       0.02364547 Ry

     iteration #  5     ecut=   100.00 Ry     beta=0.50
     Davidson diagonalization with overlap
     ethr =  1.56E-05,  avg # of iterations =  6.2

     total cpu time spent up to now is      122.0 secs

     total energy              =    -817.95958080 Ry
     Harris-Foulkes estimate   =    -817.96028095 Ry
     estimated scf accuracy    <       0.00256489 Ry

     iteration #  6     ecut=   100.00 Ry     beta=0.50
     Davidson diagonalization with overlap
     ethr =  1.69E-06,  avg # of iterations = 10.5

     total cpu time spent up to now is      151.0 secs

     total energy              =    -817.96023616 Ry
     Harris-Foulkes estimate   =    -817.96027610 Ry
     estimated scf accuracy    <       0.00021648 Ry

     iteration #  7     ecut=   100.00 Ry     beta=0.50
     Davidson diagonalization with overlap
     ethr =  1.42E-07,  avg # of iterations =  2.0

     total cpu time spent up to now is      169.9 secs

     total energy              =    -817.96027156 Ry
     Harris-Foulkes estimate   =    -817.96027566 Ry
     estimated scf accuracy    <       0.00002653 Ry

     iteration #  8     ecut=   100.00 Ry     beta=0.50
     Davidson diagonalization with overlap
     ethr =  1.75E-08,  avg # of iterations =  2.8

     total cpu time spent up to now is      189.8 secs

     total energy              =    -817.96027759 Ry
     Harris-Foulkes estimate   =    -817.96027957 Ry
     estimated scf accuracy    <       0.00000654 Ry

     iteration #  9     ecut=   100.00 Ry     beta=0.50
     Davidson diagonalization with overlap
     ethr =  4.30E-09,  avg # of iterations =  2.6

     total cpu time spent up to now is      207.4 secs

     total energy              =    -817.96027894 Ry
     Harris-Foulkes estimate   =    -817.96027948 Ry
     estimated scf accuracy    <       0.00000173 Ry

     iteration # 10     ecut=   100.00 Ry     beta=0.50
     Davidson diagonalization with overlap
     ethr =  1.14E-09,  avg # of iterations =  2.1

     total cpu time spent up to now is      224.1 secs

     total energy              =    -817.96027931 Ry
     Harris-Foulkes estimate   =    -817.96027935 Ry
     estimated scf accuracy    <       0.00000019 Ry

     iteration # 11     ecut=   100.00 Ry     beta=0.50
     Davidson diagonalization with overlap
     ethr =  1.27E-10,  avg # of iterations =  3.0

     total cpu time spent up to now is      248.4 secs

     total energy              =    -817.96027937 Ry
     Harris-Foulkes estimate   =    -817.96027938 Ry
     estimated scf accuracy    <       0.00000002 Ry

     iteration # 12     ecut=   100.00 Ry     beta=0.50
     Davidson diagonalization with overlap
     ethr =  1.23E-11,  avg # of iterations =  3.0

     total cpu time spent up to now is      267.5 secs

     End of self-consistent calculation

          k = 0.0000 0.0000 0.0000 ( 45081 PWs)   bands (ev):

   -22.0829 -22.0754 -22.0078 -22.0027 -19.9608 -19.9526 -19.7794 -19.7707
   -16.9980 -16.9831 -16.9758 -16.9410 -15.1800 -15.1753 -14.8515 -14.8436
   -13.6265 -13.5791 -13.5776 -13.4941  -9.7853  -9.7189  -9.6171  -9.5501
    -9.2081  -9.1710  -8.8758  -8.8617  -7.8674  -7.7168  -7.5602  -7.4575
    -6.3658  -6.3487  -6.3464  -6.2963  -5.5884  -5.5731  -5.5203  -5.4229
    -4.8234  -4.8140  -4.8102  -4.7336  -3.6907  -3.5710  -3.2023  -3.1615
    -3.0276  -3.0094  -2.7111  -2.6531  -1.9513  -1.8785  -1.8504  -1.6347
    -1.0295  -0.9447  -0.9332  -0.8775  -0.5612  -0.4778  -0.0475  -0.0024
     0.0897   0.1499   0.2116   0.3894   0.4900   0.5430   0.6050   0.7127
     0.8227   0.8606   0.8906   1.0244   6.3359   6.3783   6.4322   6.4830
     6.7251   6.7396   6.9806   7.1433   7.3056   7.4256   7.6508   7.7166
     8.2529   8.8221   8.9351

          k = 0.0000 0.0000-0.6319 ( 45082 PWs)   bands (ev):

   -22.0451 -22.0447 -22.0435 -22.0402 -19.8678 -19.8666 -19.8653 -19.8635
   -16.9841 -16.9796 -16.9719 -16.9682 -15.0197 -15.0142 -15.0135 -15.0133
   -13.5746 -13.5730 -13.5571 -13.5559  -9.7055  -9.7016  -9.7005  -9.6976
    -9.0038  -9.0013  -8.9724  -8.9700  -7.6851  -7.6814  -7.6398  -7.6360
    -6.3704  -6.3677  -6.3325  -6.3296  -5.5588  -5.5572  -5.5012  -5.5002
    -4.8257  -4.8242  -4.7775  -4.7758  -3.2374  -3.2340  -3.1988  -3.1959
    -3.0790  -3.0781  -3.0674  -3.0670  -1.8806  -1.8787  -1.7250  -1.7229
    -0.9099  -0.9082  -0.8993  -0.8986  -0.3318  -0.3299  -0.2798  -0.2784
     0.2010   0.2021   0.2230   0.2236   0.5799   0.5809   0.6025   0.6027
     0.8454   0.8468   0.9709   0.9724   6.4058   6.4097   6.4345   6.4364
     6.7604   6.7617   6.9747   6.9762   7.3998   7.4006   7.5222   7.5228
     8.5270   8.5285   9.1776

          k = 0.0000 0.6498 0.0000 ( 45146 PWs)   bands (ev):

   -21.9995 -21.9930 -21.9359 -21.9313 -19.9052 -19.8982 -19.7522 -19.7450
   -17.0136 -17.0087 -16.9848 -16.9650 -15.2610 -15.2579 -14.9705 -14.9662
   -13.7680 -13.7385 -13.7003 -13.6463  -9.7466  -9.7043  -9.5732  -9.5280
    -9.2094  -9.1633  -8.9402  -8.9380  -7.8915  -7.7589  -7.5251  -7.4495
    -6.3204  -6.2736  -6.2575  -6.2416  -5.5917  -5.5426  -5.4490  -5.4321
    -5.4141  -5.3604  -5.3154  -5.3038  -3.7905  -3.7225  -3.3101  -3.2779
    -2.5465  -2.4841  -2.0929  -2.0558  -1.9037  -1.8610  -1.6607  -1.6315
    -1.0765  -1.0041  -0.9300  -0.8586  -0.7742  -0.7458  -0.1708  -0.1488
    -0.0501  -0.0257   0.3256   0.3657   0.5628   0.7082   0.8179   0.8893
     1.3908   1.4706   1.5027   1.6564   5.9682   6.0138   6.0858   6.1827
     6.8111   6.8766   7.0763   7.1095   7.3918   7.4945   7.9055   8.0375
     8.4897   8.8292   9.1049

          k = 0.0000 0.6498-0.6319 ( 45124 PWs)   bands (ev):

   -21.9674 -21.9669 -21.9661 -21.9626 -19.8271 -19.8258 -19.8245 -19.8229
   -17.0015 -16.9970 -16.9910 -16.9876 -15.1212 -15.1155 -15.1144 -15.1140
   -13.7164 -13.7145 -13.7046 -13.7033  -9.6638  -9.6600  -9.6594  -9.6566
    -9.0514  -9.0490  -9.0229  -9.0205  -7.6943  -7.6905  -7.6457  -7.6419
    -6.2978  -6.2952  -6.2629  -6.2601  -5.4906  -5.4894  -5.4663  -5.4657
    -5.3835  -5.3804  -5.3742  -5.3721  -3.5057  -3.5036  -3.4699  -3.4686
    -2.4089  -2.4072  -2.3643  -2.3626  -1.7137  -1.7125  -1.6907  -1.6895
    -1.0091  -1.0080  -0.9975  -0.9969  -0.5375  -0.5363  -0.4977  -0.4969
     0.2473   0.2495   0.3468   0.3485   0.6681   0.6694   0.7143   0.7150
     1.4395   1.4410   1.5854   1.5870   6.0180   6.0218   6.0870   6.0901
     6.9447   6.9462   6.9768   6.9782   7.5215   7.5220   7.8018   7.8031
     8.7100   8.7129   9.3354

          k = 0.0000 1.2995 0.0000 ( 45144 PWs)   bands (ev):

   -21.8478 -21.8435 -21.8190 -21.8154 -19.7967 -19.7924 -19.7196 -19.7151
   -17.0789 -17.0665 -17.0515 -17.0442 -15.3547 -15.3497 -15.1443 -15.1398
   -13.9928 -13.9861 -13.8924 -13.8779  -9.6289  -9.6075  -9.5426  -9.5174
    -9.1589  -9.1087  -9.0513  -9.0208  -7.8783  -7.8228  -7.5095  -7.4836
    -6.3385  -6.3330  -6.1935  -6.1920  -6.1650  -6.1293  -6.0984  -6.0586
    -5.2684  -5.2565  -5.1855  -5.1644  -3.8425  -3.8324  -3.3034  -3.2663
    -2.7549  -2.6586  -2.1501  -2.1193  -1.8253  -1.7943  -1.3836  -1.3494
    -1.1553  -1.1214  -0.8861  -0.8734  -0.4676  -0.4177  -0.0215  -0.0048
     0.0914   0.1587   0.4333   0.4915   0.9354   0.9806   1.0912   1.1232
     2.3000   2.3469   2.3572   2.4726   5.1432   5.1674   5.4686   5.5302
     6.8264   6.8936   7.1412   7.1798   8.0309   8.0655   8.3092   8.5156
     8.9720   9.1361   9.1584

          k = 0.0000 1.2995-0.6319 ( 45190 PWs)   bands (ev):

   -21.8330 -21.8325 -21.8324 -21.8286 -19.7582 -19.7566 -19.7554 -19.7541
   -17.0656 -17.0604 -17.0588 -17.0568 -15.2562 -15.2496 -15.2486 -15.2486
   -13.9371 -13.9342 -13.9325 -13.9314  -9.5737  -9.5714  -9.5705  -9.5680
    -9.0956  -9.0930  -9.0820  -9.0796  -7.6990  -7.6947  -7.6770  -7.6728
    -6.2598  -6.2587  -6.2467  -6.2458  -6.1276  -6.1256  -6.1195  -6.1179
    -5.2292  -5.2263  -5.2167  -5.2152  -3.5421  -3.5404  -3.5329  -3.5321
    -2.5339  -2.5313  -2.5058  -2.5034  -1.5419  -1.5397  -1.5343  -1.5325
    -1.0146  -1.0137  -0.9800  -0.9793  -0.2877  -0.2858  -0.2821  -0.2806
     0.4307   0.4338   0.5027   0.5051   0.9148   0.9154   0.9372   0.9382
     2.3382   2.3388   2.4171   2.4177   5.2926   5.2961   5.3311   5.3341
     6.9837   6.9882   7.0269   7.0309   8.1943   8.1960   8.4609   8.4643
     8.9842   8.9886   9.1701

          k =-0.5000 0.0000-0.2292 ( 45098 PWs)   bands (ev):

   -22.0802 -22.0782 -22.0064 -22.0041 -19.9579 -19.9554 -19.7766 -19.7735
   -16.9889 -16.9859 -16.9630 -16.9608 -15.1790 -15.1761 -14.8494 -14.8454
   -13.6033 -13.6012 -13.5375 -13.5354  -9.7557  -9.7511  -9.5874  -9.5833
    -9.1911  -9.1897  -8.8689  -8.8667  -7.7893  -7.7871  -7.5089  -7.5059
    -6.3496  -6.3473  -6.3325  -6.3307  -5.5593  -5.5538  -5.5039  -5.4990
    -4.8147  -4.8120  -4.7799  -4.7763  -3.6294  -3.6266  -3.1832  -3.1822
    -3.0179  -3.0160  -2.6821  -2.6782  -1.9152  -1.9130  -1.7522  -1.7500
    -0.9769  -0.9730  -0.9192  -0.9134  -0.5208  -0.5166  -0.0320  -0.0300
     0.1229   0.1269   0.2919   0.2949   0.5683   0.5702   0.6684   0.6718
     0.8324   0.8359   0.9089   0.9108   6.3528   6.3556   6.4622   6.4667
     6.7367   6.7406   7.0695   7.0707   7.3606   7.3610   7.6971   7.6990
     8.4433   8.4467   8.8899

          k =-0.5000 0.0000-0.8612 ( 45102 PWs)   bands (ev):

   -22.0474 -22.0459 -22.0414 -22.0387 -19.8707 -19.8693 -19.8624 -19.8608
   -16.9930 -16.9907 -16.9605 -16.9589 -15.0211 -15.0170 -15.0122 -15.0108
   -13.5988 -13.5970 -13.5332 -13.5315  -9.7361  -9.7326  -9.6669  -9.6633
    -8.9929  -8.9914  -8.9829  -8.9821  -7.7263  -7.7253  -7.6002  -7.5994
    -6.3703  -6.3696  -6.3314  -6.3310  -5.5799  -5.5755  -5.4779  -5.4734
    -4.8231  -4.8209  -4.7783  -4.7760  -3.2624  -3.2588  -3.1715  -3.1682
    -3.0940  -3.0918  -3.0613  -3.0596  -1.8325  -1.8308  -1.7761  -1.7745
    -0.9474  -0.9464  -0.8562  -0.8555  -0.3256  -0.3227  -0.2906  -0.2879
     0.1740   0.1754   0.2216   0.2225   0.5470   0.5474   0.6731   0.6735
     0.8330   0.8333   0.9810   0.9819   6.4085   6.4097   6.4514   6.4526
     6.7041   6.7089   7.0087   7.0132   7.4006   7.4051   7.4276   7.4303
     8.9230   8.9247   9.0326

          k =-0.5000 0.6498-0.2292 ( 45152 PWs)   bands (ev):

   -21.9972 -21.9952 -21.9347 -21.9325 -19.9029 -19.9004 -19.7501 -19.7471
   -17.0088 -17.0056 -16.9804 -16.9778 -15.2610 -15.2579 -14.9704 -14.9664
   -13.7478 -13.7457 -13.6807 -13.6786  -9.7265  -9.7223  -9.5550  -9.5514
    -9.1890  -9.1871  -8.9393  -8.9373  -7.8236  -7.8209  -7.4891  -7.4857
    -6.2944  -6.2922  -6.2536  -6.2512  -5.5577  -5.5566  -5.4466  -5.4413
    -5.3890  -5.3867  -5.3220  -5.3177  -3.7568  -3.7529  -3.2939  -3.2913
    -2.5171  -2.5149  -2.0764  -2.0736  -1.8852  -1.8833  -1.6455  -1.6437
    -1.0417  -1.0381  -0.8985  -0.8935  -0.7600  -0.7562  -0.1666  -0.1638
    -0.0342  -0.0317   0.3528   0.3557   0.6693   0.6742   0.7954   0.7991
     1.4519   1.4542   1.5670   1.5691   5.9908   5.9938   6.1295   6.1331
     6.8468   6.8509   7.0988   7.1004   7.4145   7.4159   8.0117   8.0139
     8.7086   8.7112   8.9836

          k =-0.5000 0.6498-0.8612 ( 45124 PWs)   bands (ev):

   -21.9694 -21.9681 -21.9641 -21.9614 -19.8295 -19.8281 -19.8221 -19.8206
   -17.0091 -17.0064 -16.9816 -16.9797 -15.1215 -15.1163 -15.1142 -15.1131
   -13.7417 -13.7400 -13.6795 -13.6778  -9.6938  -9.6907  -9.6267  -9.6236
    -9.0490  -9.0482  -9.0243  -9.0239  -7.7258  -7.7249  -7.6140  -7.6133
    -6.3042  -6.3031  -6.2555  -6.2541  -5.5159  -5.5128  -5.4509  -5.4491
    -5.3913  -5.3890  -5.3532  -5.3505  -3.5189  -3.5164  -3.4598  -3.4576
    -2.4432  -2.4415  -2.3319  -2.3302  -1.7199  -1.7191  -1.6767  -1.6756
    -1.0314  -1.0301  -0.9762  -0.9753  -0.5516  -0.5488  -0.4903  -0.4876
     0.2329   0.2344   0.3457   0.3474   0.5883   0.5896   0.8145   0.8156
     1.4849   1.4866   1.5363   1.5380   6.0249   6.0270   6.0833   6.0854
     6.9077   6.9105   7.0242   7.0264   7.4829   7.4847   7.7766   7.7785
     8.8421   8.8457   9.1716

          k =-0.5000 1.2995-0.2292 ( 45198 PWs)   bands (ev):

   -21.8466 -21.8447 -21.8183 -21.8161 -19.7958 -19.7932 -19.7188 -19.7160
   -17.0706 -17.0667 -17.0535 -17.0507 -15.3539 -15.3504 -15.1441 -15.1400
   -13.9838 -13.9820 -13.8927 -13.8906  -9.6188  -9.6156  -9.5316  -9.5288
    -9.1364  -9.1338  -9.0370  -9.0350  -7.8479  -7.8444  -7.5050  -7.5012
    -6.3325  -6.3316  -6.1960  -6.1947  -6.1491  -6.1479  -6.0753  -6.0734
    -5.2653  -5.2604  -5.1765  -5.1714  -3.8400  -3.8370  -3.2895  -3.2857
    -2.7141  -2.7120  -2.1299  -2.1274  -1.8114  -1.8098  -1.3687  -1.3648
    -1.1311  -1.1271  -0.8897  -0.8858  -0.4444  -0.4413  -0.0128  -0.0090
     0.1158   0.1185   0.5049   0.5082   0.9291   0.9329   1.0881   1.0913
     2.3155   2.3175   2.4281   2.4302   5.1523   5.1549   5.4945   5.4976
     6.8525   6.8566   7.1756   7.1780   7.9789   7.9817   8.5244   8.5291
     8.9928   8.9952   9.4075

          k =-0.5000 1.2995-0.8612 ( 45158 PWs)   bands (ev):

   -21.8345 -21.8336 -21.8305 -21.8278 -19.7597 -19.7582 -19.7538 -19.7525
   -17.0737 -17.0706 -17.0496 -17.0474 -15.2571 -15.2516 -15.2482 -15.2462
   -13.9626 -13.9609 -13.9065 -13.9050  -9.5980  -9.5959  -9.5453  -9.5433
    -9.1105  -9.1090  -9.0660  -9.0649  -7.7349  -7.7339  -7.6362  -7.6353
    -6.2777  -6.2762  -6.2304  -6.2288  -6.1509  -6.1492  -6.0975  -6.0956
    -5.2456  -5.2408  -5.2027  -5.1979  -3.5612  -3.5593  -3.5106  -3.5090
    -2.5767  -2.5745  -2.4642  -2.4623  -1.5786  -1.5778  -1.4897  -1.4892
    -1.0597  -1.0585  -0.9392  -0.9382  -0.3189  -0.3160  -0.2485  -0.2458
     0.3705   0.3730   0.5347   0.5379   0.8628   0.8637   1.0165   1.0168
     2.3379   2.3386   2.4116   2.4123   5.2963   5.2993   5.3314   5.3340
     6.9562   6.9595   7.0621   7.0656   8.2083   8.2104   8.4267   8.4283
     8.8847   8.8895   9.2654

     highest occupied, lowest unoccupied level (ev):     2.4726    5.1432

!    total energy              =    -817.96027938 Ry
     Harris-Foulkes estimate   =    -817.96027938 Ry
     estimated scf accuracy    <          5.1E-09 Ry

     total all-electron energy =     -3110.380225 Ry

     The total energy is the sum of the following terms:

     one-electron contribution =    -507.39050601 Ry
     hartree contribution      =     316.47621287 Ry
     xc contribution           =    -163.55695039 Ry
     ewald contribution        =    -233.03613083 Ry
     Dispersion Correction     =      -0.18923167 Ry
     one-center paw contrib.   =    -230.26367336 Ry

     convergence has been achieved in  12 iterations

     Forces acting on atoms (cartesian axes, Ry/au):

     atom    1 type  4   force =     0.02180058   -0.00840237    0.00096638
     atom    2 type  4   force =     0.02177993    0.00872781    0.00179524
     atom    3 type  4   force =     0.02200898   -0.00852610    0.00144022
     atom    4 type  4   force =     0.02199418    0.00858876    0.00148377
     atom    5 type  2   force =    -0.10592183    0.02340666   -0.01831636
     atom    6 type  2   force =    -0.10489513   -0.02348400   -0.01835045
     atom    7 type  2   force =    -0.10544448    0.02379589   -0.01862984
     atom    8 type  2   force =    -0.10513405   -0.02318474   -0.01821805
     atom    9 type  2   force =    -0.03978330    0.06896949    0.02059113
     atom   10 type  2   force =    -0.03954977   -0.06939249    0.02051420
     atom   11 type  2   force =    -0.03953941    0.06880645    0.02063255
     atom   12 type  2   force =    -0.03964300   -0.06939317    0.02046733
     atom   13 type  2   force =    -0.03002137   -0.04762401    0.00603042
     atom   14 type  2   force =    -0.02990958    0.04716543    0.00626583
     atom   15 type  2   force =    -0.03025884   -0.04751612    0.00598551
     atom   16 type  2   force =    -0.03009906    0.04726486    0.00599652
     atom   17 type  2   force =     0.06895341   -0.00937480    0.01304701
     atom   18 type  2   force =     0.06953972    0.00930511    0.01247643
     atom   19 type  2   force =     0.06940019   -0.00903342    0.01293522
     atom   20 type  2   force =     0.06941563    0.00912785    0.01248419
     atom   21 type  2   force =     0.08788759   -0.00955512    0.04165798
     atom   22 type  2   force =     0.08803100    0.00985199    0.04160615
     atom   23 type  2   force =     0.08864935   -0.00964907    0.04192712
     atom   24 type  2   force =     0.08770744    0.00985553    0.04172411
     atom   25 type  1   force =    -0.00334413   -0.01691190   -0.06304005
     atom   26 type  1   force =    -0.00485425    0.01731492   -0.06331872
     atom   27 type  1   force =    -0.00474346   -0.01705946   -0.06316776
     atom   28 type  1   force =    -0.00418630    0.01733258   -0.06335970
     atom   29 type  3   force =     0.00288488   -0.00137256   -0.00498004
     atom   30 type  3   force =     0.00279735    0.00100708   -0.00569549
     atom   31 type  3   force =     0.00249847   -0.00145141   -0.00515832
     atom   32 type  3   force =     0.00277481    0.00095903   -0.00561626
     atom   33 type  3   force =     0.00342058   -0.00276904   -0.00062220
     atom   34 type  3   force =     0.00296905    0.00322277    0.00001727
     atom   35 type  3   force =     0.00294943   -0.00316515   -0.00062563
     atom   36 type  3   force =     0.00304259    0.00318741   -0.00013586
     atom   37 type  3   force =    -0.00593890    0.00818161    0.00474971
     atom   38 type  3   force =    -0.00582118   -0.00824710    0.00458489
     atom   39 type  3   force =    -0.00566694    0.00817995    0.00470659
     atom   40 type  3   force =    -0.00575015   -0.00813916    0.00514892

     Total force =     0.408113     Total SCF correction =     0.000182


     Computing stress (Cartesian axis) and pressure

          total   stress  (Ry/bohr**3)                   (kbar)     P=   54.98
   0.00046339   0.00000151  -0.00001227         68.17      0.22     -1.80
   0.00000151   0.00087629   0.00000048          0.22    128.91      0.07
  -0.00001227   0.00000048  -0.00021834         -1.80      0.07    -32.12


     Writing output data file scf.save
 
     init_run     :     11.84s CPU     12.13s WALL (       1 calls)
     electrons    :    247.01s CPU    254.74s WALL (       1 calls)
     forces       :      5.99s CPU      6.04s WALL (       1 calls)
     stress       :     16.49s CPU     16.51s WALL (       1 calls)

     Called by init_run:
     wfcinit      :      7.44s CPU      7.65s WALL (       1 calls)
     potinit      :      1.51s CPU      1.55s WALL (       1 calls)

     Called by electrons:
     c_bands      :    216.75s CPU    223.36s WALL (      12 calls)
     sum_band     :     26.23s CPU     27.15s WALL (      12 calls)
     v_of_rho     :      0.63s CPU      0.69s WALL (      13 calls)
     newd         :      1.25s CPU      1.27s WALL (      13 calls)
     PAW_pot      :      1.99s CPU      2.00s WALL (      13 calls)
     mix_rho      :      0.11s CPU      0.12s WALL (      12 calls)

     Called by c_bands:
     init_us_2    :      2.00s CPU      2.01s WALL (     324 calls)
     cegterg      :    209.79s CPU    216.36s WALL (     144 calls)

     Called by sum_band:
     sum_band:bec :      0.03s CPU      0.03s WALL (     144 calls)
     addusdens    :      1.20s CPU      1.22s WALL (      12 calls)

     Called by *egterg:
     h_psi        :    128.82s CPU    133.47s WALL (     763 calls)
     s_psi        :     19.84s CPU     19.84s WALL (     763 calls)
     g_psi        :      0.83s CPU      0.82s WALL (     607 calls)
     cdiaghg      :     15.60s CPU     15.58s WALL (     751 calls)

     Called by h_psi:
     h_psi:pot    :    127.89s CPU    132.53s WALL (     763 calls)
     h_psi:calbec :     19.58s CPU     19.68s WALL (     763 calls)
     vloc_psi     :     88.48s CPU     93.02s WALL (     763 calls)
     add_vuspsi   :     19.82s CPU     19.82s WALL (     763 calls)

     General routines
     calbec       :     29.50s CPU     29.63s WALL (     967 calls)
     fft          :      0.53s CPU      0.66s WALL (     193 calls)
     fftw         :     95.05s CPU    100.21s WALL (   86444 calls)
 
     Parallel routines
     fft_scatter  :     26.74s CPU     29.71s WALL (   86637 calls)
 
     PWSCF        :  4m45.49s CPU     4m55.42s WALL

 
   This run was terminated on:  20:16:18   5Nov2017            

=------------------------------------------------------------------------------=
   JOB DONE.
=------------------------------------------------------------------------------=
