
     Program PWSCF v.6.1 (svn rev. 13369) starts on 15Dec2017 at  7:27:15 

     This program is part of the open-source Quantum ESPRESSO suite
     for quantum simulation of materials; please cite
         "P. Giannozzi et al., J. Phys.:Condens. Matter 21 395502 (2009);
          URL http://www.quantum-espresso.org", 
     in publications or presentations arising from this work. More details at
     http://www.quantum-espresso.org/quote

     Parallel version (MPI), running on     8 processors
     R & G space division:  proc/nbgrp/npool/nimage =       8
     Waiting for input...
     Reading input from standard input

     Current dimensions of program PWSCF are:
     Max number of different atomic species (ntypx) = 10
     Max number of k-points (npk) =  40000
     Max angular momentum in pseudopotentials (lmaxx) =  3
               file C.pbe-n-kjpaw_psl.0.1.UPF: wavefunction(s)  2P renormalized
               file N.pbe-n-kjpaw_psl.0.1.UPF: wavefunction(s)  2P renormalized
               file H.pbe-kjpaw_psl.0.1.UPF: wavefunction(s)  1S renormalized
               file O.pbe-n-kjpaw_psl.0.1.UPF: wavefunction(s)  2P renormalized

     -------------------------------------
     Parameters for Dispersion Correction:
     -------------------------------------
       atom      VdW radius       C_6     

        C          2.744         60.710
        N          2.640         42.670
        H          1.892          4.857
        O          2.536         24.284

     Subspace diagonalization in iterative solution of the eigenvalue problem:
     a serial algorithm will be used

 
     Parallelization info
     --------------------
     sticks:   dense  smooth     PW     G-vecs:    dense   smooth      PW
     Min         947     947    250               102200   102200   13898
     Max         948     948    251               102204   102204   13900
     Sum        7577    7577   2005               817613   817613  111195
 


     bravais-lattice index     =            0
     lattice parameter (alat)  =      13.0542  a.u.
     unit-cell volume          =    6051.5919 (a.u.)^3
     number of atoms/cell      =           94
     number of atomic types    =            4
     number of electrons       =       312.00
     number of Kohn-Sham states=          187
     kinetic-energy cutoff     =     100.0000  Ry
     charge density cutoff     =     400.0000  Ry
     convergence threshold     =      1.0E-08
     mixing beta               =       0.5000
     number of iterations used =            8  plain     mixing
     Exchange-correlation      =  SLA  PW   PBX  PBC ( 1  4  3  4 0 0)

     celldm(1)=  13.054228  celldm(2)=   0.000000  celldm(3)=   0.000000
     celldm(4)=   0.000000  celldm(5)=   0.000000  celldm(6)=   0.000000

     crystal axes: (cart. coord. in units of alat)
               a(1) = (   1.000000   0.000000   0.000000 )  
               a(2) = (   0.073688   1.396726   0.000000 )  
               a(3) = (   0.542059   0.165025   1.947623 )  

     reciprocal axes: (cart. coord. in units 2 pi/alat)
               b(1) = (  1.000000 -0.052758 -0.273848 )  
               b(2) = (  0.000000  0.715960 -0.060664 )  
               b(3) = (  0.000000  0.000000  0.513446 )  


     PseudoPot. # 1 for  C read from file:
     /scratch/ahofstet/pseudo/C.pbe-n-kjpaw_psl.0.1.UPF
     MD5 check sum: 430fe95172b1e11ef3f8ed03bac87931
     Pseudo is Projector augmented-wave + core cor, Zval =  4.0
     Generated using "atomic" code by A. Dal Corso  v.5.0.99 svn rev. 10869
     Shape of augmentation charge: BESSEL
     Using radial grid of 1073 points,  4 beta functions with: 
                l(1) =   0
                l(2) =   0
                l(3) =   1
                l(4) =   1
     Q(r) pseudized with 0 coefficients 


     PseudoPot. # 2 for  N read from file:
     /scratch/ahofstet/pseudo/N.pbe-n-kjpaw_psl.0.1.UPF
     MD5 check sum: f73187c8b701007e77325f868c9291d7
     Pseudo is Projector augmented-wave + core cor, Zval =  5.0
     Generated using "atomic" code by A. Dal Corso  v.5.0.99 svn rev. 10869
     Shape of augmentation charge: PSQ
     Using radial grid of 1085 points,  4 beta functions with: 
                l(1) =   0
                l(2) =   0
                l(3) =   1
                l(4) =   1
     Q(r) pseudized with 0 coefficients 


     PseudoPot. # 3 for  H read from file:
     /scratch/ahofstet/pseudo/H.pbe-kjpaw_psl.0.1.UPF
     MD5 check sum: 94e484f906d9e9773b2f6e52662335b2
     Pseudo is Projector augmented-wave, Zval =  1.0
     Generated using "atomic" code by A. Dal Corso  v.5.0.99 svn rev. 10869
     Shape of augmentation charge: PSQ
     Using radial grid of  929 points,  2 beta functions with: 
                l(1) =   0
                l(2) =   0
     Q(r) pseudized with 0 coefficients 


     PseudoPot. # 4 for  O read from file:
     /scratch/ahofstet/pseudo/O.pbe-n-kjpaw_psl.0.1.UPF
     MD5 check sum: 3f94a2996a3169367d6eb21d9b593f20
     Pseudo is Projector augmented-wave + core cor, Zval =  6.0
     Generated using "atomic" code by A. Dal Corso  v.5.0.99 svn rev. 10869
     Shape of augmentation charge: BESSEL
     Using radial grid of 1095 points,  4 beta functions with: 
                l(1) =   0
                l(2) =   0
                l(3) =   1
                l(4) =   1
     Q(r) pseudized with 0 coefficients 


     atomic species   valence    mass     pseudopotential
        C              4.00    12.01070      C( 1.00)
        N              5.00    14.00670      N( 1.00)
        H              1.00     1.00794      H( 1.00)
        O              6.00    15.99940      O( 1.00)

      2 Sym. Ops., with inversion, found



   Cartesian axes

     site n.     atom                  positions (alat units)
         1           O   tau(   1) = (   0.6479636   0.1427470   1.5100528  )
         2           O   tau(   2) = (   0.9677836   1.4190035   0.4375703  )
         3           O   tau(   3) = (   0.5668235   1.3028783   0.8803587  )
         4           O   tau(   4) = (   1.0489237   0.2588722   1.0672643  )
         5           N   tau(   5) = (   0.7855654   0.9862667   1.7458402  )
         6           N   tau(   6) = (   0.8301819   0.5754839   0.2017828  )
         7           N   tau(   7) = (   0.2958116   0.8599939  -0.0170736  )
         8           N   tau(   8) = (   1.3199357   0.7017566   1.9646966  )
         9           N   tau(   9) = (   0.3124077   1.0449697   0.0128822  )
        10           N   tau(  10) = (   1.3033395   0.5167809   1.9347408  )
        11           N   tau(  11) = (   0.8122906   1.2950986   1.7921881  )
        12           N   tau(  12) = (   0.8034566   0.2666519   0.1554349  )
        13           C   tau(  13) = (   0.6939360   1.3891517   1.3885407  )
        14           C   tau(  14) = (   0.9218112   0.1725989   0.5590823  )
        15           C   tau(  15) = (   0.7155339   1.1972473   1.4581201  )
        16           C   tau(  16) = (   0.9002134   0.3645033   0.4895029  )
        17           C   tau(  17) = (   0.6800165   1.0449791   1.3271298  )
        18           C   tau(  18) = (   0.9357307   0.5167714   0.6204932  )
        19           C   tau(  19) = (   0.6288486   1.0769263   1.1356495  )
        20           C   tau(  20) = (   0.9868986   0.4848243   0.8119735  )
        21           C   tau(  21) = (   0.6126300   1.2683937   1.0692873  )
        22           C   tau(  22) = (   1.0031173   0.2933568   0.8783357  )
        23           C   tau(  23) = (   0.6442195   1.4220151   1.1957214  )
        24           C   tau(  24) = (   0.9715277   0.1397354   0.7519016  )
        25           C   tau(  25) = (   0.7685536   1.1593595   1.6572437  )
        26           C   tau(  26) = (   0.8471937   0.4023911   0.2903793  )
        27           H   tau(  27) = (   0.5901035   0.2642299   1.4531422  )
        28           H   tau(  28) = (   1.0256437   1.2975206   0.4944808  )
        29           H   tau(  29) = (   0.5610493   1.4461890   0.8566541  )
        30           H   tau(  30) = (   1.0546980   0.1155616   1.0909689  )
        31           H   tau(  31) = (   0.8179706   1.4440817   1.7808170  )
        32           H   tau(  32) = (   0.7977767   0.1176688   0.1668060  )
        33           H   tau(  33) = (   0.6937956   0.8964137   1.3784124  )
        34           H   tau(  34) = (   0.9219517   0.6653368   0.5692106  )
        35           H   tau(  35) = (   0.6021539   0.9552248   1.0387951  )
        36           H   tau(  36) = (   1.0135933   0.6065258   0.9088279  )
        37           H   tau(  37) = (   0.5588583   0.1729886   1.1435321  )
        38           H   tau(  38) = (   1.0568889   1.3887619   0.8040909  )
        39           O   tau(  39) = (   1.2515559   0.8834952   1.6125569  )
        40           O   tau(  40) = (   0.3641913   0.6782553   0.3350662  )
        41           O   tau(  41) = (   0.8204129   1.2595528   0.0778618  )
        42           O   tau(  42) = (   0.7953343   0.3021978   1.8697612  )
        43           N   tau(  43) = (   1.1366001   1.2399486   1.1330277  )
        44           N   tau(  44) = (   0.4791472   0.3218020   0.8145953  )
        45           N   tau(  45) = (   1.1000035   1.1136634   0.9880275  )
        46           N   tau(  46) = (   0.5157438   0.4480872   0.9595956  )
        47           N   tau(  47) = (   1.1062458   0.9355415   1.0482499  )
        48           N   tau(  48) = (   0.5095014   0.6262091   0.8993732  )
        49           N   tau(  49) = (   1.1483656   0.9444145   1.2371763  )
        50           N   tau(  50) = (   0.4673817   0.6173360   0.7104467  )
        51           C   tau(  51) = (   1.2583365   1.0774508   1.6387800  )
        52           C   tau(  52) = (   0.3574108   0.4842997   0.3088430  )
        53           C   tau(  53) = (   1.2152390   1.2031075   1.4828777  )
        54           C   tau(  54) = (   0.4005083   0.3586431   0.4647453  )
        55           C   tau(  55) = (   1.2234735   1.4040903   1.5181029  )
        56           C   tau(  56) = (   0.3922738   0.1576602   0.4295201  )
        57           C   tau(  57) = (   1.2715355   1.4802940   1.6968712  )
        58           C   tau(  58) = (   0.3442118   0.0814565   0.2507518  )
        59           C   tau(  59) = (   1.3149036   1.3524292   1.8490857  )
        60           C   tau(  60) = (   0.3008437   0.2093213   0.0985374  )
        61           C   tau(  61) = (   1.3086935   1.1534197   1.8187135  )
        62           C   tau(  62) = (   0.3070538   0.4083308   0.1289095  )
        63           C   tau(  63) = (   1.1679417   1.1321120   1.2921981  )
        64           C   tau(  64) = (   0.4478056   0.4296385   0.6554250  )
        65           H   tau(  65) = (   1.2766369   0.8197099   1.7411111  )
        66           H   tau(  66) = (   0.3391104   0.7420406   0.2065119  )
        67           H   tau(  67) = (   0.8265280   1.1524138   0.1754335  )
        68           H   tau(  68) = (   0.7892192   0.4093367   1.7721895  )
        69           H   tau(  69) = (   1.1575579   0.8165698   1.3148408  )
        70           H   tau(  70) = (   0.4581894   0.7451808   0.6327823  )
        71           H   tau(  71) = (   1.1887030   1.5029394   1.4004088  )
        72           H   tau(  72) = (   0.4270443   0.0588112   0.5472143  )
        73           H   tau(  73) = (   1.2020975   0.2392274   1.7207718  )
        74           H   tau(  74) = (   0.4136498   1.3225231   0.2268512  )
        75           H   tau(  75) = (   1.3435528   1.0548800   1.9362138  )
        76           H   tau(  76) = (   0.2721944   0.5068706   0.0114093  )
        77           O   tau(  77) = (   0.5051930   0.4684008   1.3685799  )
        78           O   tau(  78) = (   1.1105542   1.0933497   0.5790431  )
        79           H   tau(  79) = (   0.5166865   0.4613770   1.2248929  )
        80           H   tau(  80) = (   1.0990608   1.1003735   0.7227301  )
        81           H   tau(  81) = (   1.3656065   0.4954396   1.3924524  )
        82           H   tau(  82) = (   0.2501408   1.0663109   0.5551706  )
        83           O   tau(  83) = (   0.7978801   0.5936157   1.5991832  )
        84           O   tau(  84) = (   0.8178672   0.9681349   0.3484398  )
        85           H   tau(  85) = (   0.7895845   0.7291752   1.6483143  )
        86           H   tau(  86) = (   0.8261628   0.8325754   0.2993087  )
        87           H   tau(  87) = (   0.6836044   0.5716484   1.5142916  )
        88           H   tau(  88) = (   0.9321429   0.9901021   0.4333315  )
        89           O   tau(  89) = (   1.1189957   0.5478863   1.3601579  )
        90           O   tau(  90) = (   0.4967515   1.0138643   0.5874651  )
        91           H   tau(  91) = (   1.0782002   0.4569055   1.2585117  )
        92           H   tau(  92) = (   0.5375471   1.1048451   0.6891113  )
        93           H   tau(  93) = (   1.0101727   0.5567844   1.4538068  )
        94           H   tau(  94) = (   0.6055746   1.0049661   0.4938162  )

     number of k points=     8
                       cart. coord. in units 2pi/alat
        k(    1) = (   0.0000000   0.0000000   0.0000000), wk =   0.1666667
        k(    2) = (   0.0000000   0.0000000  -0.2567232), wk =   0.1666667
        k(    3) = (   0.0000000  -0.3579801   0.0303321), wk =   0.1666667
        k(    4) = (   0.0000000  -0.3579801  -0.2263910), wk =   0.1666667
        k(    5) = (   0.3333333  -0.0175859  -0.0912827), wk =   0.3333333
        k(    6) = (   0.3333333  -0.0175859  -0.3480059), wk =   0.3333333
        k(    7) = (   0.3333333  -0.3755660  -0.0609505), wk =   0.3333333
        k(    8) = (   0.3333333  -0.3755660  -0.3176737), wk =   0.3333333

     Dense  grid:   817613 G-vectors     FFT dimensions: (  90, 120, 180)

     Estimated max dynamical RAM per process >     805.39MB

     Estimated total allocated dynamical RAM >    6443.10MB

     Check: negative/imaginary core charge=   -0.000002    0.000000

     Initial potential from superposition of free atoms

     starting charge  311.99835, renormalised to  312.00000
     Starting wfc are  268 randomized atomic wfcs
     Checking if some PAW data can be deallocated... 

     total cpu time spent up to now is       51.8 secs

     per-process dynamical memory:   563.3 Mb

     Self-consistent Calculation

     iteration #  1     ecut=   100.00 Ry     beta=0.50
     Davidson diagonalization with overlap
     ethr =  1.00E-02,  avg # of iterations =  3.1

     total cpu time spent up to now is      191.3 secs

     total energy              =   -1592.32999665 Ry
     Harris-Foulkes estimate   =   -1597.03965552 Ry
     estimated scf accuracy    <       8.77269705 Ry

     iteration #  2     ecut=   100.00 Ry     beta=0.50
     Davidson diagonalization with overlap
     ethr =  2.81E-03,  avg # of iterations =  3.0

     total cpu time spent up to now is      282.1 secs

     total energy              =   -1593.67226496 Ry
     Harris-Foulkes estimate   =   -1594.02232455 Ry
     estimated scf accuracy    <       0.85010679 Ry

     iteration #  3     ecut=   100.00 Ry     beta=0.50
     Davidson diagonalization with overlap
     ethr =  2.72E-04,  avg # of iterations =  8.2

     total cpu time spent up to now is      433.5 secs

     total energy              =   -1593.93714028 Ry
     Harris-Foulkes estimate   =   -1594.01540378 Ry
     estimated scf accuracy    <       0.20526263 Ry

     iteration #  4     ecut=   100.00 Ry     beta=0.50
     Davidson diagonalization with overlap
     ethr =  6.58E-05,  avg # of iterations =  4.6

     total cpu time spent up to now is      515.8 secs

     total energy              =   -1593.95194981 Ry
     Harris-Foulkes estimate   =   -1593.96839378 Ry
     estimated scf accuracy    <       0.04493958 Ry

     iteration #  5     ecut=   100.00 Ry     beta=0.50
     Davidson diagonalization with overlap
     ethr =  1.44E-05,  avg # of iterations =  9.6

     total cpu time spent up to now is      680.4 secs

     total energy              =   -1593.96667597 Ry
     Harris-Foulkes estimate   =   -1593.98126862 Ry
     estimated scf accuracy    <       0.04345427 Ry

     iteration #  6     ecut=   100.00 Ry     beta=0.50
     Davidson diagonalization with overlap
     ethr =  1.39E-05,  avg # of iterations =  2.0

     total cpu time spent up to now is      754.3 secs

     total energy              =   -1593.96633989 Ry
     Harris-Foulkes estimate   =   -1593.97103423 Ry
     estimated scf accuracy    <       0.00794859 Ry

     iteration #  7     ecut=   100.00 Ry     beta=0.50
     Davidson diagonalization with overlap
     ethr =  2.55E-06,  avg # of iterations =  7.5

     total cpu time spent up to now is      923.2 secs

     total energy              =   -1593.97111403 Ry
     Harris-Foulkes estimate   =   -1593.97262354 Ry
     estimated scf accuracy    <       0.00492996 Ry

     iteration #  8     ecut=   100.00 Ry     beta=0.50
     Davidson diagonalization with overlap
     ethr =  1.58E-06,  avg # of iterations =  1.0

     total cpu time spent up to now is      994.3 secs

     total energy              =   -1593.97060539 Ry
     Harris-Foulkes estimate   =   -1593.97134836 Ry
     estimated scf accuracy    <       0.00178147 Ry

     iteration #  9     ecut=   100.00 Ry     beta=0.50
     Davidson diagonalization with overlap
     ethr =  5.71E-07,  avg # of iterations =  4.1

     total cpu time spent up to now is     1109.1 secs

     total energy              =   -1593.97129075 Ry
     Harris-Foulkes estimate   =   -1593.97132575 Ry
     estimated scf accuracy    <       0.00011287 Ry

     iteration # 10     ecut=   100.00 Ry     beta=0.50
     Davidson diagonalization with overlap
     ethr =  3.62E-08,  avg # of iterations =  2.0

     total cpu time spent up to now is     1184.4 secs

     total energy              =   -1593.97128890 Ry
     Harris-Foulkes estimate   =   -1593.97130357 Ry
     estimated scf accuracy    <       0.00003346 Ry

     iteration # 11     ecut=   100.00 Ry     beta=0.50
     Davidson diagonalization with overlap
     ethr =  1.07E-08,  avg # of iterations =  4.0

     total cpu time spent up to now is     1313.1 secs

     total energy              =   -1593.97130594 Ry
     Harris-Foulkes estimate   =   -1593.97130849 Ry
     estimated scf accuracy    <       0.00000900 Ry

     iteration # 12     ecut=   100.00 Ry     beta=0.50
     Davidson diagonalization with overlap
     ethr =  2.89E-09,  avg # of iterations =  1.0

     total cpu time spent up to now is     1384.3 secs

     total energy              =   -1593.97130485 Ry
     Harris-Foulkes estimate   =   -1593.97130648 Ry
     estimated scf accuracy    <       0.00000343 Ry

     iteration # 13     ecut=   100.00 Ry     beta=0.50
     Davidson diagonalization with overlap
     ethr =  1.10E-09,  avg # of iterations =  4.0

     total cpu time spent up to now is     1505.3 secs

     total energy              =   -1593.97130635 Ry
     Harris-Foulkes estimate   =   -1593.97130647 Ry
     estimated scf accuracy    <       0.00000059 Ry

     iteration # 14     ecut=   100.00 Ry     beta=0.50
     Davidson diagonalization with overlap
     ethr =  1.89E-10,  avg # of iterations =  1.5

     total cpu time spent up to now is     1577.1 secs

     total energy              =   -1593.97130622 Ry
     Harris-Foulkes estimate   =   -1593.97130637 Ry
     estimated scf accuracy    <       0.00000035 Ry

     iteration # 15     ecut=   100.00 Ry     beta=0.50
     Davidson diagonalization with overlap
     ethr =  1.11E-10,  avg # of iterations =  4.0

     total cpu time spent up to now is     1681.9 secs

     total energy              =   -1593.97130632 Ry
     Harris-Foulkes estimate   =   -1593.97130633 Ry
     estimated scf accuracy    <       0.00000003 Ry

     iteration # 16     ecut=   100.00 Ry     beta=0.50
     Davidson diagonalization with overlap
     ethr =  9.10E-12,  avg # of iterations =  3.0

     total cpu time spent up to now is     1768.8 secs

     total energy              =   -1593.97130632 Ry
     Harris-Foulkes estimate   =   -1593.97130633 Ry
     estimated scf accuracy    <       0.00000002 Ry

     iteration # 17     ecut=   100.00 Ry     beta=0.50
     Davidson diagonalization with overlap
     ethr =  6.43E-12,  avg # of iterations =  4.2

     total cpu time spent up to now is     1849.9 secs

     End of self-consistent calculation

          k = 0.0000 0.0000 0.0000 (102205 PWs)   bands (ev):

   -22.0289 -22.0245 -21.9779 -21.9742 -19.8219 -19.7984 -19.7651 -19.7580
   -19.7440 -19.7333 -19.6655 -19.6601 -18.8544 -18.8530 -18.3800 -18.3778
   -18.3134 -18.3108 -16.8525 -16.8499 -16.8201 -16.8195 -15.7471 -15.7297
   -15.6725 -15.6578 -14.3767 -14.3764 -14.3353 -14.3249 -12.1156 -12.0860
   -12.0398 -12.0302 -11.6810 -11.6636 -11.6269 -11.6214 -10.0645 -10.0415
    -9.9414  -9.9307  -9.8988  -9.8956  -9.8294  -9.8128  -8.8592  -8.8537
    -8.7410  -8.7251  -8.5781  -8.5392  -8.4186  -8.4041  -7.3528  -7.3481
    -7.2153  -7.2098  -6.8817  -6.8398  -6.7603  -6.7564  -6.7534  -6.6990
    -6.5705  -6.4939  -6.4537  -6.4014  -6.4003  -6.3922  -6.2149  -6.1857
    -5.9187  -5.9023  -5.8133  -5.7707  -5.7370  -5.6848  -5.5806  -5.5181
    -4.7244  -4.7105  -4.6605  -4.6223  -4.1425  -4.1305  -3.8456  -3.8413
    -3.7961  -3.7924  -3.6867  -3.6537  -3.5647  -3.5387  -3.5064  -3.4113
    -3.3932  -3.3817  -3.3583  -3.3507  -3.1687  -3.0098  -2.9886  -2.9600
    -2.8702  -2.8111  -2.7589  -2.7180  -2.6844  -2.5408  -2.4376  -2.3755
    -2.3197  -2.2595  -2.0176  -2.0165  -1.8751  -1.8551  -1.8474  -1.7200
    -1.6472  -1.6210  -1.5683  -1.5221  -1.4685  -1.4524  -1.3745  -1.3634
    -1.3381  -1.3261  -1.0398  -0.9964  -0.8211  -0.8058  -0.7837  -0.7809
    -0.7603  -0.7492  -0.7119  -0.6433  -0.6425  -0.6183  -0.5714  -0.5474
    -0.5219  -0.4984  -0.3458  -0.3370   0.8639   0.9419   0.9614   1.0262
     1.1617   1.3145   1.5938   1.6126   4.7279   4.8584   4.8616   4.8932
     5.0593   5.1643   5.1952   5.2578   5.6896   5.7063   5.9072   6.0699
     6.4843   6.5721   7.0367   7.1780   7.1865   7.3273   7.6968   7.8426
     7.9341   8.3302   8.3850   8.4810   8.6679   8.7968   8.8818   8.9247
     8.9908   9.1274   9.2271

          k = 0.0000 0.0000-0.2567 (102172 PWs)   bands (ev):

   -22.0288 -22.0246 -21.9780 -21.9742 -19.8196 -19.8017 -19.7699 -19.7555
   -19.7381 -19.7343 -19.6670 -19.6602 -18.8551 -18.8523 -18.3798 -18.3780
   -18.3131 -18.3110 -16.8526 -16.8499 -16.8205 -16.8190 -15.7544 -15.7227
   -15.6789 -15.6505 -14.3794 -14.3751 -14.3324 -14.3274 -12.1125 -12.0909
   -12.0430 -12.0166 -11.6778 -11.6721 -11.6285 -11.6258 -10.0376 -10.0221
    -9.9593  -9.9538  -9.9154  -9.8992  -9.8210  -9.8079  -8.8807  -8.8603
    -8.7129  -8.7056  -8.5356  -8.5046  -8.4567  -8.4531  -7.3947  -7.3645
    -7.1745  -7.1482  -6.9590  -6.9520  -6.7624  -6.7020  -6.6338  -6.6330
    -6.5799  -6.5578  -6.5275  -6.4588  -6.3393  -6.3043  -6.2220  -6.2132
    -5.8611  -5.8457  -5.8233  -5.8058  -5.7760  -5.7595  -5.5545  -5.5366
    -4.7210  -4.7183  -4.6158  -4.5958  -4.1932  -4.1431  -3.8342  -3.8253
    -3.7795  -3.7639  -3.7482  -3.5868  -3.5736  -3.5519  -3.4870  -3.4574
    -3.3992  -3.3853  -3.2966  -3.2570  -3.1496  -3.0869  -3.0422  -3.0209
    -2.8899  -2.8423  -2.8048  -2.7020  -2.6508  -2.5657  -2.3954  -2.3884
    -2.2574  -2.2050  -2.0441  -2.0390  -1.8723  -1.8487  -1.7700  -1.7444
    -1.6801  -1.6751  -1.5604  -1.5406  -1.4875  -1.4432  -1.3669  -1.3615
    -1.3490  -1.3136  -1.0266  -1.0024  -0.8202  -0.8008  -0.7796  -0.7644
    -0.7291  -0.7285  -0.6885  -0.6649  -0.6580  -0.6427  -0.5778  -0.5685
    -0.5238  -0.4798  -0.3917  -0.2935   0.8754   0.9399   0.9480   1.0307
     1.1862   1.2963   1.5799   1.6215   4.7648   4.8078   4.8823   4.8847
     5.1188   5.1256   5.1694   5.2611   5.6663   5.7146   5.9603   6.0325
     6.4875   6.5324   7.0723   7.1245   7.2338   7.2885   7.6817   7.7103
     8.1201   8.3204   8.3953   8.6629   8.6981   8.7371   8.7712   8.9729
     9.0364   9.1177   9.1982

          k = 0.0000-0.3580 0.0303 (102150 PWs)   bands (ev):

   -22.0281 -22.0252 -21.9773 -21.9747 -19.8228 -19.7996 -19.7708 -19.7688
   -19.7306 -19.7281 -19.6674 -19.6605 -18.8551 -18.8498 -18.3804 -18.3778
   -18.3123 -18.3096 -16.8558 -16.8487 -16.8218 -16.8186 -15.7557 -15.7210
   -15.6779 -15.6512 -14.3885 -14.3753 -14.3330 -14.3155 -12.1036 -12.0939
   -12.0393 -12.0358 -11.6778 -11.6736 -11.6329 -11.6244 -10.0428 -10.0283
    -9.9376  -9.9314  -9.9200  -9.9083  -9.8291  -9.8107  -8.8349  -8.8134
    -8.7747  -8.7605  -8.6140  -8.6084  -8.3413  -8.3396  -7.3519  -7.3303
    -7.1518  -7.1262  -6.8893  -6.8518  -6.7605  -6.7458  -6.7002  -6.6769
    -6.6108  -6.5512  -6.5501  -6.5058  -6.4183  -6.4095  -6.2335  -6.1884
    -5.8522  -5.8489  -5.8151  -5.7807  -5.7596  -5.7566  -5.5643  -5.5361
    -4.7108  -4.6888  -4.6030  -4.5827  -4.0482  -3.9839  -3.9296  -3.9109
    -3.8659  -3.7875  -3.7225  -3.6868  -3.6025  -3.5972  -3.5368  -3.4716
    -3.4020  -3.3768  -3.2676  -3.2383  -3.1768  -3.0506  -2.9028  -2.8999
    -2.8660  -2.8231  -2.7864  -2.7416  -2.6670  -2.6227  -2.5852  -2.5576
    -2.4840  -2.2147  -1.9754  -1.9264  -1.7753  -1.7744  -1.7161  -1.6897
    -1.6097  -1.5502  -1.5113  -1.4997  -1.4840  -1.4193  -1.3930  -1.3562
    -1.3330  -1.3230  -1.0096  -0.9791  -0.8151  -0.7945  -0.7846  -0.7838
    -0.7457  -0.7387  -0.6970  -0.6929  -0.6809  -0.6541  -0.6180  -0.6054
    -0.5614  -0.5333  -0.3534  -0.3371   0.8724   0.9201   0.9633   1.0312
     1.1981   1.2942   1.5784   1.6210   4.7434   4.8390   4.8728   4.8905
     5.1120   5.1628   5.1867   5.2430   5.6318   5.7216   5.9615   5.9745
     6.5102   6.5587   7.1198   7.1468   7.1917   7.2987   7.7608   7.8591
     8.0160   8.0457   8.2744   8.3309   8.6235   8.6326   9.0111   9.0721
     9.1409   9.1684   9.2523

          k = 0.0000-0.3580-0.2264 (102198 PWs)   bands (ev):

   -22.0281 -22.0252 -21.9774 -21.9746 -19.8220 -19.8044 -19.7703 -19.7632
   -19.7329 -19.7279 -19.6679 -19.6600 -18.8552 -18.8498 -18.3801 -18.3781
   -18.3127 -18.3093 -16.8555 -16.8483 -16.8218 -16.8193 -15.7497 -15.7269
   -15.6764 -15.6531 -14.3896 -14.3725 -14.3326 -14.3167 -12.1055 -12.1014
   -12.0423 -12.0293 -11.6837 -11.6692 -11.6274 -11.6211 -10.0793 -10.0597
    -9.9399  -9.9246  -9.8857  -9.8821  -9.8186  -9.8037  -8.8515  -8.8367
    -8.7735  -8.7667  -8.5713  -8.5630  -8.3846  -8.3841  -7.3140  -7.2774
    -7.1493  -7.1444  -6.9302  -6.8944  -6.7713  -6.7213  -6.6980  -6.6889
    -6.6154  -6.5178  -6.5039  -6.5037  -6.4574  -6.4207  -6.2360  -6.1703
    -5.9193  -5.8892  -5.7777  -5.7704  -5.7380  -5.7260  -5.5529  -5.5483
    -4.7014  -4.6872  -4.6011  -4.5532  -4.0539  -3.9800  -3.9176  -3.9141
    -3.8259  -3.8173  -3.7781  -3.7693  -3.6869  -3.5931  -3.4602  -3.4416
    -3.4223  -3.3668  -3.2585  -3.2037  -3.1531  -3.0062  -2.9575  -2.8813
    -2.8806  -2.7890  -2.7563  -2.7389  -2.6680  -2.6555  -2.5906  -2.5724
    -2.4154  -2.3518  -1.9552  -1.8542  -1.7945  -1.7804  -1.7186  -1.7182
    -1.5830  -1.5611  -1.5138  -1.5085  -1.4886  -1.4658  -1.3552  -1.3467
    -1.3436  -1.3163  -1.0266  -0.9394  -0.8087  -0.7944  -0.7738  -0.7560
    -0.7403  -0.7376  -0.7258  -0.6886  -0.6811  -0.6501  -0.6213  -0.5925
    -0.5799  -0.5481  -0.3483  -0.3469   0.8612   0.9326   0.9465   1.0408
     1.2138   1.2885   1.5675   1.6285   4.7465   4.8396   4.8586   4.9043
     5.1208   5.1467   5.1764   5.2564   5.6486   5.7003   5.9634   5.9787
     6.5053   6.5209   7.1423   7.1489   7.2167   7.2544   7.7198   7.8399
     7.8895   8.2448   8.2614   8.4467   8.5689   8.7876   8.8132   9.0381
     9.0793   9.2447   9.2707

          k = 0.3333-0.0176-0.0913 (102151 PWs)   bands (ev):

   -22.0276 -22.0254 -21.9776 -21.9743 -19.8158 -19.8039 -19.7640 -19.7585
   -19.7418 -19.7351 -19.6661 -19.6601 -18.7884 -18.7862 -18.5719 -18.5689
   -18.1893 -18.1847 -16.8532 -16.8496 -16.8202 -16.8194 -15.7323 -15.7170
   -15.6849 -15.6710 -14.3844 -14.3822 -14.3315 -14.3262 -12.1072 -12.0908
   -12.0425 -12.0316 -11.6764 -11.6682 -11.6304 -11.6232 -10.0660 -10.0441
    -9.9423  -9.9278  -9.9030  -9.8976  -9.8230  -9.8129  -8.8590  -8.8549
    -8.7376  -8.7286  -8.5715  -8.5466  -8.4247  -8.3984  -7.3518  -7.3492
    -7.2158  -7.2123  -6.8777  -6.8523  -6.7638  -6.7556  -6.7405  -6.6863
    -6.5715  -6.4858  -6.4536  -6.4248  -6.3889  -6.3707  -6.2350  -6.1852
    -5.9298  -5.9046  -5.7485  -5.7337  -5.6712  -5.6414  -5.5149  -5.4846
    -4.7237  -4.7152  -4.6881  -4.6121  -4.2127  -4.1641  -3.9228  -3.8843
    -3.7945  -3.7725  -3.7296  -3.6414  -3.5980  -3.5701  -3.4709  -3.4425
    -3.4104  -3.3515  -3.3096  -3.2003  -3.1611  -2.9927  -2.9655  -2.9193
    -2.8389  -2.8162  -2.7586  -2.6911  -2.6685  -2.5869  -2.4542  -2.3681
    -2.3506  -2.3124  -2.0412  -1.9735  -1.8988  -1.8633  -1.8130  -1.7360
    -1.6780  -1.6556  -1.6479  -1.5960  -1.5308  -1.4957  -1.4430  -1.4297
    -1.3810  -1.3143  -0.9932  -0.9683  -0.8711  -0.8467  -0.7853  -0.7675
    -0.7505  -0.7317  -0.6684  -0.6439  -0.6191  -0.6067  -0.5655  -0.5412
    -0.5350  -0.4968  -0.4656  -0.3752   0.8627   0.9363   0.9601   1.0163
     1.2359   1.3369   1.5078   1.6329   4.6450   4.7565   4.8427   4.8784
     5.0512   5.1817   5.2302   5.2886   5.7142   5.7779   5.8914   5.9942
     6.8253   6.9391   6.9772   7.1005   7.1705   7.3947   7.7344   7.8873
     8.1289   8.1761   8.3617   8.4201   8.5878   8.7694   8.9185   9.0219
     9.1292   9.2455   9.2870

          k = 0.3333-0.0176-0.3480 (102167 PWs)   bands (ev):

   -22.0276 -22.0254 -21.9776 -21.9743 -19.8146 -19.8054 -19.7663 -19.7589
   -19.7390 -19.7336 -19.6667 -19.6609 -18.7887 -18.7858 -18.5719 -18.5689
   -18.1895 -18.1846 -16.8532 -16.8496 -16.8202 -16.8194 -15.7393 -15.7121
   -15.6894 -15.6639 -14.3862 -14.3811 -14.3336 -14.3244 -12.1116 -12.0866
   -12.0426 -12.0227 -11.6775 -11.6718 -11.6332 -11.6268 -10.0472 -10.0157
    -9.9679  -9.9499  -9.9114  -9.8971  -9.8263  -9.8028  -8.8810  -8.8597
    -8.7147  -8.7041  -8.5366  -8.5047  -8.4647  -8.4454  -7.3886  -7.3733
    -7.1708  -7.1524  -6.9783  -6.9361  -6.7595  -6.7014  -6.6591  -6.6029
    -6.5892  -6.5470  -6.5315  -6.4288  -6.3463  -6.2906  -6.2319  -6.2281
    -5.8633  -5.8452  -5.8272  -5.8134  -5.6743  -5.6371  -5.5285  -5.4807
    -4.7399  -4.7067  -4.6204  -4.5921  -4.2881  -4.1643  -3.9062  -3.8635
    -3.8023  -3.7689  -3.7074  -3.6542  -3.6042  -3.5697  -3.5081  -3.4255
    -3.3346  -3.3036  -3.2807  -3.1840  -3.1338  -3.0529  -3.0333  -3.0126
    -2.8857  -2.8473  -2.7926  -2.7040  -2.6214  -2.5807  -2.4130  -2.3715
    -2.3016  -2.2289  -2.0313  -2.0192  -1.8999  -1.8820  -1.7806  -1.7503
    -1.6967  -1.6791  -1.6454  -1.6126  -1.5358  -1.4885  -1.4529  -1.4287
    -1.3709  -1.3173  -0.9933  -0.9677  -0.8652  -0.8503  -0.7612  -0.7462
    -0.7226  -0.7192  -0.6873  -0.6656  -0.6360  -0.6076  -0.5852  -0.5480
    -0.5165  -0.4864  -0.4669  -0.3754   0.8824   0.9085   0.9722   1.0130
     1.2490   1.3217   1.5285   1.6143   4.6954   4.7040   4.8255   4.8869
     5.0830   5.1862   5.2187   5.2632   5.7161   5.7834   5.9071   5.9783
     6.8102   6.9267   6.9865   7.1573   7.2039   7.2836   7.7069   7.8516
     8.0291   8.2876   8.3600   8.5837   8.7008   8.7517   8.8478   8.9606
     9.0053   9.1659   9.3086

          k = 0.3333-0.3756-0.0610 (102192 PWs)   bands (ev):

   -22.0272 -22.0257 -21.9773 -21.9746 -19.8168 -19.8049 -19.7717 -19.7674
   -19.7297 -19.7283 -19.6695 -19.6594 -18.7888 -18.7837 -18.5717 -18.5676
   -18.1895 -18.1838 -16.8546 -16.8501 -16.8211 -16.8194 -15.7398 -15.7117
   -15.6892 -15.6632 -14.3982 -14.3763 -14.3330 -14.3157 -12.0979 -12.0930
   -12.0420 -12.0401 -11.6781 -11.6730 -11.6342 -11.6289 -10.0448 -10.0295
    -9.9471  -9.9360  -9.9144  -9.9000  -9.8284  -9.8101  -8.8310  -8.8179
    -8.7774  -8.7610  -8.6187  -8.6014  -8.3521  -8.3292  -7.3532  -7.3325
    -7.1462  -7.1336  -6.8961  -6.8410  -6.7537  -6.7427  -6.7015  -6.6781
    -6.6156  -6.5582  -6.5451  -6.4795  -6.4170  -6.4001  -6.2522  -6.1981
    -5.8485  -5.8403  -5.8176  -5.7910  -5.6619  -5.6447  -5.5140  -5.4962
    -4.7182  -4.6879  -4.6256  -4.5661  -4.1048  -4.0681  -4.0522  -3.9591
    -3.8689  -3.7873  -3.7343  -3.7006  -3.5663  -3.5391  -3.4709  -3.4284
    -3.4052  -3.3794  -3.2664  -3.2112  -3.1683  -3.0613  -2.9213  -2.8691
    -2.8344  -2.8133  -2.7553  -2.7199  -2.6729  -2.6378  -2.5700  -2.5263
    -2.4364  -2.2726  -1.9919  -1.9406  -1.7828  -1.7783  -1.7581  -1.7203
    -1.6409  -1.6213  -1.5783  -1.5378  -1.5036  -1.4794  -1.4459  -1.4215
    -1.3914  -1.3067  -1.0115  -0.9638  -0.8478  -0.8073  -0.7880  -0.7747
    -0.7336  -0.7141  -0.6900  -0.6733  -0.6583  -0.6363  -0.6278  -0.5913
    -0.5637  -0.5133  -0.4623  -0.3870   0.8745   0.9304   0.9425   1.0259
     1.2648   1.3132   1.5333   1.6088   4.6628   4.7456   4.8303   4.8922
     5.0922   5.1741   5.2426   5.2638   5.7127   5.7588   5.9106   5.9176
     6.8325   6.8975   7.0074   7.0847   7.2386   7.3687   7.7532   7.8188
     8.1526   8.2164   8.4153   8.5112   8.6212   8.6519   8.8044   8.8229
     9.0344   9.0755   9.2094

          k = 0.3333-0.3756-0.3177 (102223 PWs)   bands (ev):

   -22.0272 -22.0257 -21.9773 -21.9746 -19.8170 -19.8080 -19.7687 -19.7646
   -19.7317 -19.7289 -19.6692 -19.6595 -18.7889 -18.7837 -18.5718 -18.5675
   -18.1893 -18.1841 -16.8542 -16.8497 -16.8217 -16.8196 -15.7352 -15.7144
   -15.6874 -15.6675 -14.3975 -14.3761 -14.3326 -14.3162 -12.1083 -12.0906
   -12.0454 -12.0348 -11.6813 -11.6726 -11.6286 -11.6242 -10.0769 -10.0658
    -9.9356  -9.9279  -9.8969  -9.8738  -9.8215  -9.7973  -8.8510  -8.8384
    -8.7743  -8.7672  -8.5710  -8.5627  -8.3894  -8.3792  -7.3072  -7.2858
    -7.1545  -7.1423  -6.9300  -6.8959  -6.7820  -6.7055  -6.6905  -6.6872
    -6.6147  -6.5225  -6.5093  -6.4960  -6.4513  -6.4025  -6.2503  -6.1796
    -5.9081  -5.8965  -5.7560  -5.7433  -5.6639  -5.6399  -5.5186  -5.4941
    -4.7110  -4.6860  -4.5951  -4.5586  -4.1239  -4.0775  -4.0285  -3.9803
    -3.8722  -3.8140  -3.7567  -3.7071  -3.6062  -3.5565  -3.5210  -3.4553
    -3.3383  -3.3255  -3.2613  -3.2069  -3.1697  -2.9971  -2.8992  -2.8815
    -2.8236  -2.7803  -2.7642  -2.7004  -2.6712  -2.6273  -2.6025  -2.5536
    -2.4478  -2.3356  -1.9684  -1.9045  -1.7985  -1.7909  -1.7828  -1.7252
    -1.6357  -1.6177  -1.5706  -1.5412  -1.5118  -1.4799  -1.4392  -1.4314
    -1.3677  -1.3186  -1.0073  -0.9610  -0.8367  -0.8111  -0.7792  -0.7501
    -0.7219  -0.7193  -0.7063  -0.6843  -0.6698  -0.6238  -0.6068  -0.5842
    -0.5670  -0.5419  -0.4718  -0.3783   0.8751   0.9088   0.9605   1.0238
     1.2653   1.3156   1.5403   1.6028   4.6769   4.7293   4.8146   4.9071
     5.0662   5.1933   5.2481   5.2706   5.7039   5.7593   5.9130   5.9243
     6.8149   6.8773   7.0159   7.1106   7.2187   7.3387   7.7248   7.8140
     8.1793   8.3195   8.3799   8.4127   8.5147   8.7517   8.8740   8.9049
     9.0423   9.0904   9.1201

     highest occupied, lowest unoccupied level (ev):     1.6329    4.6450

!    total energy              =   -1593.97130632 Ry
     Harris-Foulkes estimate   =   -1593.97130632 Ry
     estimated scf accuracy    <          3.1E-09 Ry

     total all-electron energy =     -6036.003302 Ry

     The total energy is the sum of the following terms:

     one-electron contribution =    -839.19412970 Ry
     hartree contribution      =     543.23655029 Ry
     xc contribution           =    -332.13898499 Ry
     ewald contribution        =    -513.58442602 Ry
     Dispersion Correction     =      -0.43060122 Ry
     one-center paw contrib.   =    -451.85971468 Ry

     convergence has been achieved in  17 iterations

     Forces acting on atoms (cartesian axes, Ry/au):

     atom    1 type  4   force =     0.00023794    0.00021782    0.00099713
     atom    2 type  4   force =    -0.00023794   -0.00021782   -0.00099713
     atom    3 type  4   force =     0.00015441    0.00081313    0.00022928
     atom    4 type  4   force =    -0.00015441   -0.00081313   -0.00022928
     atom    5 type  2   force =     0.00023568   -0.00064053   -0.00244808
     atom    6 type  2   force =    -0.00023568    0.00064053    0.00244808
     atom    7 type  2   force =    -0.00075645    0.00250313    0.00195841
     atom    8 type  2   force =     0.00075645   -0.00250313   -0.00195841
     atom    9 type  2   force =    -0.00132010   -0.00361461    0.00160104
     atom   10 type  2   force =     0.00132010    0.00361461   -0.00160104
     atom   11 type  2   force =    -0.00077354    0.00250683    0.00017561
     atom   12 type  2   force =     0.00077354   -0.00250683   -0.00017561
     atom   13 type  1   force =    -0.00088722   -0.00076534    0.00085882
     atom   14 type  1   force =     0.00088722    0.00076534   -0.00085882
     atom   15 type  1   force =     0.00009931    0.00269631    0.00200641
     atom   16 type  1   force =    -0.00009931   -0.00269631   -0.00200641
     atom   17 type  1   force =     0.00164566   -0.00262241    0.00029212
     atom   18 type  1   force =    -0.00164566    0.00262241   -0.00029212
     atom   19 type  1   force =    -0.00013191   -0.00269143   -0.00134292
     atom   20 type  1   force =     0.00013191    0.00269143    0.00134292
     atom   21 type  1   force =     0.00050103    0.00219114   -0.00170018
     atom   22 type  1   force =    -0.00050103   -0.00219114    0.00170018
     atom   23 type  1   force =     0.00010594   -0.00025161   -0.00056737
     atom   24 type  1   force =    -0.00010594    0.00025161    0.00056737
     atom   25 type  1   force =     0.00177742   -0.00135837   -0.00081012
     atom   26 type  1   force =    -0.00177742    0.00135837    0.00081012
     atom   27 type  3   force =     0.00009110   -0.00012531    0.00065639
     atom   28 type  3   force =    -0.00009110    0.00012531   -0.00065639
     atom   29 type  3   force =     0.00015887    0.00045422   -0.00017966
     atom   30 type  3   force =    -0.00015887   -0.00045422    0.00017966
     atom   31 type  3   force =    -0.00013518   -0.00016783   -0.00012176
     atom   32 type  3   force =     0.00013518    0.00016783    0.00012176
     atom   33 type  3   force =    -0.00055170    0.00076775   -0.00021089
     atom   34 type  3   force =     0.00055170   -0.00076775    0.00021089
     atom   35 type  3   force =     0.00008974    0.00012544    0.00012969
     atom   36 type  3   force =    -0.00008974   -0.00012544   -0.00012969
     atom   37 type  3   force =    -0.00005563   -0.00010601   -0.00021081
     atom   38 type  3   force =     0.00005563    0.00010601    0.00021081
     atom   39 type  4   force =    -0.00005077   -0.00018100    0.00163356
     atom   40 type  4   force =     0.00005077    0.00018100   -0.00163356
     atom   41 type  4   force =    -0.00078602    0.00029433   -0.00093029
     atom   42 type  4   force =     0.00078602   -0.00029433    0.00093029
     atom   43 type  2   force =    -0.00001712    0.00209421   -0.00161577
     atom   44 type  2   force =     0.00001712   -0.00209421    0.00161577
     atom   45 type  2   force =     0.00028814   -0.00294954   -0.00022168
     atom   46 type  2   force =    -0.00028814    0.00294954    0.00022168
     atom   47 type  2   force =     0.00080166    0.00218393   -0.00291979
     atom   48 type  2   force =    -0.00080166   -0.00218393    0.00291979
     atom   49 type  2   force =    -0.00026569    0.00056892    0.00192302
     atom   50 type  2   force =     0.00026569   -0.00056892   -0.00192302
     atom   51 type  1   force =    -0.00060409   -0.00318340   -0.00048163
     atom   52 type  1   force =     0.00060409    0.00318340    0.00048163
     atom   53 type  1   force =    -0.00010816    0.00072576   -0.00126668
     atom   54 type  1   force =     0.00010816   -0.00072576    0.00126668
     atom   55 type  1   force =    -0.00077781    0.00140556   -0.00165868
     atom   56 type  1   force =     0.00077781   -0.00140556    0.00165868
     atom   57 type  1   force =     0.00095343    0.00120506   -0.00039644
     atom   58 type  1   force =    -0.00095343   -0.00120506    0.00039644
     atom   59 type  1   force =     0.00040140    0.00197155    0.00223915
     atom   60 type  1   force =    -0.00040140   -0.00197155   -0.00223915
     atom   61 type  1   force =     0.00072700   -0.00135759    0.00239963
     atom   62 type  1   force =    -0.00072700    0.00135759   -0.00239963
     atom   63 type  1   force =    -0.00065574   -0.00066255    0.00050031
     atom   64 type  1   force =     0.00065574    0.00066255   -0.00050031
     atom   65 type  3   force =     0.00096509    0.00050094   -0.00123258
     atom   66 type  3   force =    -0.00096509   -0.00050094    0.00123258
     atom   67 type  3   force =    -0.00039101    0.00019737   -0.00014095
     atom   68 type  3   force =     0.00039101   -0.00019737    0.00014095
     atom   69 type  3   force =    -0.00017609    0.00005380   -0.00037117
     atom   70 type  3   force =     0.00017609   -0.00005380    0.00037117
     atom   71 type  3   force =     0.00086586   -0.00066648    0.00068783
     atom   72 type  3   force =    -0.00086586    0.00066648   -0.00068783
     atom   73 type  3   force =     0.00009446   -0.00002000    0.00059308
     atom   74 type  3   force =    -0.00009446    0.00002000   -0.00059308
     atom   75 type  3   force =     0.00004296    0.00104789   -0.00064385
     atom   76 type  3   force =    -0.00004296   -0.00104789    0.00064385
     atom   77 type  4   force =    -0.00016252    0.00037959   -0.00082688
     atom   78 type  4   force =     0.00016252   -0.00037959    0.00082688
     atom   79 type  3   force =     0.00100140    0.00042862   -0.00010495
     atom   80 type  3   force =    -0.00100140   -0.00042862    0.00010495
     atom   81 type  3   force =    -0.00115505    0.00099450    0.00071768
     atom   82 type  3   force =     0.00115505   -0.00099450   -0.00071768
     atom   83 type  4   force =     0.00027022    0.00086569    0.00065158
     atom   84 type  4   force =    -0.00027022   -0.00086569   -0.00065158
     atom   85 type  3   force =    -0.00060550    0.00009373   -0.00040545
     atom   86 type  3   force =     0.00060550   -0.00009373    0.00040545
     atom   87 type  3   force =     0.00065814    0.00045402    0.00045777
     atom   88 type  3   force =    -0.00065814   -0.00045402   -0.00045777
     atom   89 type  4   force =     0.00037752   -0.00108564   -0.00029837
     atom   90 type  4   force =    -0.00037752    0.00108564    0.00029837
     atom   91 type  3   force =     0.00041442    0.00013279   -0.00020467
     atom   92 type  3   force =    -0.00041442   -0.00013279    0.00020467
     atom   93 type  3   force =    -0.00052983   -0.00001352    0.00099193
     atom   94 type  3   force =     0.00052983    0.00001352   -0.00099193

     Total force =     0.019259     Total SCF correction =     0.000133


     Computing stress (Cartesian axis) and pressure

          total   stress  (Ry/bohr**3)                   (kbar)     P=   -6.02
  -0.00004059   0.00000199  -0.00000236         -5.97      0.29     -0.35
   0.00000199  -0.00004535   0.00000201          0.29     -6.67      0.30
  -0.00000236   0.00000201  -0.00003681         -0.35      0.30     -5.41


     Writing output data file scf.save
 
     init_run     :     49.62s CPU     51.18s WALL (       1 calls)
     electrons    :   1730.16s CPU   1798.24s WALL (       1 calls)
     forces       :     24.73s CPU     24.92s WALL (       1 calls)
     stress       :    102.99s CPU    103.33s WALL (       1 calls)

     Called by init_run:
     wfcinit      :     38.87s CPU     40.30s WALL (       1 calls)
     potinit      :      3.86s CPU      3.89s WALL (       1 calls)

     Called by electrons:
     c_bands      :   1556.06s CPU   1614.87s WALL (      17 calls)
     sum_band     :    159.43s CPU    167.38s WALL (      17 calls)
     v_of_rho     :      2.31s CPU      2.54s WALL (      18 calls)
     newd         :      5.11s CPU      6.15s WALL (      18 calls)
     PAW_pot      :      6.73s CPU      6.73s WALL (      18 calls)
     mix_rho      :      0.51s CPU      0.55s WALL (      17 calls)

     Called by c_bands:
     init_us_2    :      7.90s CPU      7.93s WALL (     296 calls)
     cegterg      :   1524.49s CPU   1583.20s WALL (     136 calls)

     Called by sum_band:
     sum_band:bec :      0.10s CPU      0.10s WALL (     136 calls)
     addusdens    :      4.94s CPU      6.01s WALL (      17 calls)

     Called by *egterg:
     h_psi        :    822.22s CPU    868.71s WALL (     680 calls)
     s_psi        :    183.34s CPU    183.39s WALL (     680 calls)
     g_psi        :      3.75s CPU      3.75s WALL (     536 calls)
     cdiaghg      :    105.68s CPU    105.74s WALL (     672 calls)

     Called by h_psi:
     h_psi:pot    :    816.66s CPU    863.08s WALL (     680 calls)
     h_psi:calbec :    175.80s CPU    176.20s WALL (     680 calls)
     vloc_psi     :    457.09s CPU    503.06s WALL (     680 calls)
     add_vuspsi   :    183.77s CPU    183.82s WALL (     680 calls)

     General routines
     calbec       :    256.52s CPU    257.06s WALL (     856 calls)
     fft          :      2.13s CPU      2.51s WALL (     258 calls)
     fftw         :    484.69s CPU    535.07s WALL (  168470 calls)
 
     Parallel routines
     fft_scatter  :     94.47s CPU    137.80s WALL (  168728 calls)
 
     PWSCF        : 31m58.42s CPU    34m 8.48s WALL

 
   This run was terminated on:   8: 1:23  15Dec2017            

=------------------------------------------------------------------------------=
   JOB DONE.
=------------------------------------------------------------------------------=
