
     Program PWSCF v.6.1 (svn rev. 13369) starts on  4Nov2017 at  5:27:44 

     This program is part of the open-source Quantum ESPRESSO suite
     for quantum simulation of materials; please cite
         "P. Giannozzi et al., J. Phys.:Condens. Matter 21 395502 (2009);
          URL http://www.quantum-espresso.org", 
     in publications or presentations arising from this work. More details at
     http://www.quantum-espresso.org/quote

     Parallel version (MPI), running on     8 processors
     R & G space division:  proc/nbgrp/npool/nimage =       8
     Waiting for input...
     Reading input from standard input

     Current dimensions of program PWSCF are:
     Max number of different atomic species (ntypx) = 10
     Max number of k-points (npk) =  40000
     Max angular momentum in pseudopotentials (lmaxx) =  3
               file C.pbe-n-kjpaw_psl.0.1.UPF: wavefunction(s)  2P renormalized
               file N.pbe-n-kjpaw_psl.0.1.UPF: wavefunction(s)  2P renormalized
               file H.pbe-kjpaw_psl.0.1.UPF: wavefunction(s)  1S renormalized
               file O.pbe-n-kjpaw_psl.0.1.UPF: wavefunction(s)  2P renormalized

     -------------------------------------
     Parameters for Dispersion Correction:
     -------------------------------------
       atom      VdW radius       C_6     

        C          2.744         60.710
        N          2.640         42.670
        H          1.892          4.857
        O          2.536         24.284

     Subspace diagonalization in iterative solution of the eigenvalue problem:
     a serial algorithm will be used

 
     Parallelization info
     --------------------
     sticks:   dense  smooth     PW     G-vecs:    dense   smooth      PW
     Min         894     894    236                74142    74142   10041
     Max         895     895    237                74146    74146   10045
     Sum        7153    7153   1893               593151   593151   80347
 


     bravais-lattice index     =            0
     lattice parameter (alat)  =      11.2609  a.u.
     unit-cell volume          =    4391.7606 (a.u.)^3
     number of atoms/cell      =           80
     number of atomic types    =            4
     number of electrons       =       264.00
     number of Kohn-Sham states=          158
     kinetic-energy cutoff     =     100.0000  Ry
     charge density cutoff     =     400.0000  Ry
     convergence threshold     =      1.0E-08
     mixing beta               =       0.5000
     number of iterations used =            8  plain     mixing
     Exchange-correlation      =  SLA  PW   PBX  PBC ( 1  4  3  4 0 0)

     celldm(1)=  11.260878  celldm(2)=   0.000000  celldm(3)=   0.000000
     celldm(4)=   0.000000  celldm(5)=   0.000000  celldm(6)=   0.000000

     crystal axes: (cart. coord. in units of alat)
               a(1) = (   1.000000   0.000000   0.000000 )  
               a(2) = (   0.000000   1.776137   0.000000 )  
               a(3) = (  -0.391501   0.000000   1.731591 )  

     reciprocal axes: (cart. coord. in units 2 pi/alat)
               b(1) = (  1.000000  0.000000  0.226093 )  
               b(2) = (  0.000000  0.563020  0.000000 )  
               b(3) = (  0.000000  0.000000  0.577503 )  


     PseudoPot. # 1 for  C read from file:
     /scratch/ahofstet/pseudo/C.pbe-n-kjpaw_psl.0.1.UPF
     MD5 check sum: 430fe95172b1e11ef3f8ed03bac87931
     Pseudo is Projector augmented-wave + core cor, Zval =  4.0
     Generated using "atomic" code by A. Dal Corso  v.5.0.99 svn rev. 10869
     Shape of augmentation charge: BESSEL
     Using radial grid of 1073 points,  4 beta functions with: 
                l(1) =   0
                l(2) =   0
                l(3) =   1
                l(4) =   1
     Q(r) pseudized with 0 coefficients 


     PseudoPot. # 2 for  N read from file:
     /scratch/ahofstet/pseudo/N.pbe-n-kjpaw_psl.0.1.UPF
     MD5 check sum: f73187c8b701007e77325f868c9291d7
     Pseudo is Projector augmented-wave + core cor, Zval =  5.0
     Generated using "atomic" code by A. Dal Corso  v.5.0.99 svn rev. 10869
     Shape of augmentation charge: PSQ
     Using radial grid of 1085 points,  4 beta functions with: 
                l(1) =   0
                l(2) =   0
                l(3) =   1
                l(4) =   1
     Q(r) pseudized with 0 coefficients 


     PseudoPot. # 3 for  H read from file:
     /scratch/ahofstet/pseudo/H.pbe-kjpaw_psl.0.1.UPF
     MD5 check sum: 94e484f906d9e9773b2f6e52662335b2
     Pseudo is Projector augmented-wave, Zval =  1.0
     Generated using "atomic" code by A. Dal Corso  v.5.0.99 svn rev. 10869
     Shape of augmentation charge: PSQ
     Using radial grid of  929 points,  2 beta functions with: 
                l(1) =   0
                l(2) =   0
     Q(r) pseudized with 0 coefficients 


     PseudoPot. # 4 for  O read from file:
     /scratch/ahofstet/pseudo/O.pbe-n-kjpaw_psl.0.1.UPF
     MD5 check sum: 3f94a2996a3169367d6eb21d9b593f20
     Pseudo is Projector augmented-wave + core cor, Zval =  6.0
     Generated using "atomic" code by A. Dal Corso  v.5.0.99 svn rev. 10869
     Shape of augmentation charge: BESSEL
     Using radial grid of 1095 points,  4 beta functions with: 
                l(1) =   0
                l(2) =   0
                l(3) =   1
                l(4) =   1
     Q(r) pseudized with 0 coefficients 


     atomic species   valence    mass     pseudopotential
        C              4.00    12.01070      C( 1.00)
        N              5.00    14.00670      N( 1.00)
        H              1.00     1.00794      H( 1.00)
        O              6.00    15.99940      O( 1.00)

      4 Sym. Ops., with inversion, found ( 2 have fractional translation)



   Cartesian axes

     site n.     atom                  positions (alat units)
         1           O   tau(   1) = (   0.3868710   1.6150514   0.6817015  )
         2           O   tau(   2) = (   0.9173783   0.7269830   0.1840942  )
         3           O   tau(   3) = (   0.2216276   0.1610855   1.0498900  )
         4           O   tau(   4) = (  -0.3088798   1.0491540   1.5474973  )
         5           O   tau(   5) = (   0.3229490   0.6078707   0.6168939  )
         6           O   tau(   6) = (  -0.0186997   1.4959391   0.2489018  )
         7           O   tau(   7) = (   0.2855495   1.1682663   1.1146976  )
         8           O   tau(   8) = (   0.6271983   0.2801978   1.4826897  )
         9           N   tau(   9) = (   0.6230202   1.3063774   0.7163989  )
        10           N   tau(  10) = (   0.6812291   0.4183089   0.1493968  )
        11           N   tau(  11) = (  -0.0145217   0.4697595   1.0151926  )
        12           N   tau(  12) = (  -0.0727305   1.3578280   1.5821947  )
        13           N   tau(  13) = (   0.3850224   1.3205718   0.4280067  )
        14           N   tau(  14) = (  -0.0807731   0.4325033   0.4377891  )
        15           N   tau(  15) = (   0.2234762   0.4555651   1.3035848  )
        16           N   tau(  16) = (   0.6892716   1.3436336   1.2938024  )
        17           N   tau(  17) = (   0.5632607   0.8991652   0.7077761  )
        18           N   tau(  18) = (   0.7409886   0.0110967   0.1580196  )
        19           N   tau(  19) = (   0.0452378   0.8769717   1.0238154  )
        20           N   tau(  20) = (  -0.1324900   1.7650402   1.5735719  )
        21           N   tau(  21) = (   0.3845646   0.9126080   0.3806545  )
        22           N   tau(  22) = (  -0.0803153   0.0245395   0.4851413  )
        23           N   tau(  23) = (   0.2239339   0.8635290   1.3509370  )
        24           N   tau(  24) = (   0.6888139   1.7515974   1.2464502  )
        25           N   tau(  25) = (  -0.0990364   1.0588617   0.5759381  )
        26           N   tau(  26) = (   0.4032857   0.1707932   0.2898576  )
        27           N   tau(  27) = (   0.7075350   0.7172753   1.1556534  )
        28           N   tau(  28) = (   0.2052128   1.6053437   1.4417339  )
        29           N   tau(  29) = (   0.6291385   1.1431820   0.1670201  )
        30           N   tau(  30) = (   0.6751107   0.2551136   0.6987757  )
        31           N   tau(  31) = (  -0.0206400   0.6329549   1.5645714  )
        32           N   tau(  32) = (  -0.0666122   1.5210234   1.0328158  )
        33           C   tau(  33) = (   0.6633119   1.0961718   0.6037608  )
        34           C   tau(  34) = (   0.6409374   0.2081034   0.2620350  )
        35           C   tau(  35) = (  -0.0548134   0.6799651   1.1278307  )
        36           C   tau(  36) = (  -0.0324388   1.5680336   1.4695565  )
        37           C   tau(  37) = (   0.5114992   1.1193314   0.3773266  )
        38           C   tau(  38) = (   0.7927500   0.2312629   0.4884692  )
        39           C   tau(  39) = (   0.0969993   0.6568056   1.3542649  )
        40           C   tau(  40) = (  -0.1842515   1.5448740   1.2431223  )
        41           C   tau(  41) = (   0.4586541   1.4295980   0.6155805  )
        42           C   tau(  42) = (   0.8455951   0.5415295   0.2502152  )
        43           C   tau(  43) = (   0.1498444   0.3465389   1.1160110  )
        44           C   tau(  44) = (  -0.2370966   1.2346074   1.4813763  )
        45           C   tau(  45) = (   0.4143652   0.7914912   0.5732044  )
        46           C   tau(  46) = (   0.8898841   1.6795596   0.2925914  )
        47           C   tau(  47) = (   0.1941334   0.9846458   1.1583871  )
        48           C   tau(  48) = (  -0.2813856   0.0965773   1.4390001  )
        49           H   tau(  49) = (   0.7348858   1.3811836   0.8282375  )
        50           H   tau(  50) = (   0.5693635   0.4931152   0.0375582  )
        51           H   tau(  51) = (  -0.1263873   0.3949533   0.9033540  )
        52           H   tau(  52) = (   0.0391351   1.2830218   1.6940333  )
        53           H   tau(  53) = (   0.2555731   1.3858572   0.3336642  )
        54           H   tau(  54) = (   0.0486761   0.4977887   0.5321315  )
        55           H   tau(  55) = (   0.3529254   0.3902797   1.3979273  )
        56           H   tau(  56) = (   0.5598224   1.2783482   1.1994600  )
        57           H   tau(  57) = (   0.6080825   0.8349139   0.8633937  )
        58           H   tau(  58) = (   0.6961668   1.7229823   0.0024021  )
        59           H   tau(  59) = (   0.0004160   0.9412231   0.8681978  )
        60           H   tau(  60) = (  -0.0876682   0.0531546   1.7291894  )
        61           H   tau(  61) = (   0.2728770   0.8643124   0.2605585  )
        62           H   tau(  62) = (   0.0313723   1.7523809   0.6052373  )
        63           H   tau(  63) = (   0.3356216   0.9118245   1.4710330  )
        64           H   tau(  64) = (   0.5771262   0.0237561   1.1263542  )
        65           H   tau(  65) = (  -0.0231541   1.2003298   0.5150917  )
        66           H   tau(  66) = (   0.3274034   0.3122614   0.3507041  )
        67           H   tau(  67) = (   0.6316526   0.5758071   1.2164998  )
        68           H   tau(  68) = (   0.2810952   1.4638756   1.3808874  )
        69           H   tau(  69) = (  -0.0730693   0.9321624   0.4615535  )
        70           H   tau(  70) = (   0.3773185   0.0440939   0.4042422  )
        71           H   tau(  71) = (   0.6815678   0.8439746   1.2700380  )
        72           H   tau(  72) = (   0.2311800   1.7320430   1.3273493  )
        73           H   tau(  73) = (   0.7164320   0.9980103   0.1328861  )
        74           H   tau(  74) = (   0.5878173   0.1099418   0.7329097  )
        75           H   tau(  75) = (  -0.1079334   0.7781267   1.5987054  )
        76           H   tau(  76) = (   0.0206812   1.6661951   0.9986818  )
        77           H   tau(  77) = (   0.7455581   1.2707607   0.1786463  )
        78           H   tau(  78) = (   0.5586912   0.3826923   0.6871495  )
        79           H   tau(  79) = (  -0.1370595   0.5053762   1.5529452  )
        80           H   tau(  80) = (   0.0498073   1.3934447   1.0444420  )

     number of k points=     8
                       cart. coord. in units 2pi/alat
        k(    1) = (   0.0000000   0.0000000   0.0000000), wk =   0.1666667
        k(    2) = (   0.0000000   0.0000000  -0.2887517), wk =   0.1666667
        k(    3) = (   0.0000000  -0.2815098   0.0000000), wk =   0.1666667
        k(    4) = (   0.0000000  -0.2815098  -0.2887517), wk =   0.1666667
        k(    5) = (   0.3333333   0.0000000   0.0753645), wk =   0.3333333
        k(    6) = (   0.3333333   0.0000000  -0.2133872), wk =   0.3333333
        k(    7) = (   0.3333333  -0.2815098   0.0753645), wk =   0.3333333
        k(    8) = (   0.3333333  -0.2815098  -0.2133872), wk =   0.3333333

     Dense  grid:   593151 G-vectors     FFT dimensions: (  72, 128, 128)

     Estimated max dynamical RAM per process >     499.79MB

     Estimated total allocated dynamical RAM >    3998.30MB

     Check: negative/imaginary core charge=   -0.000002    0.000000

     Initial potential from superposition of free atoms

     starting charge  263.99884, renormalised to  264.00000
     Starting wfc are  224 randomized atomic wfcs
     Checking if some PAW data can be deallocated... 

     total cpu time spent up to now is       26.2 secs

     per-process dynamical memory:   381.3 Mb

     Self-consistent Calculation

     iteration #  1     ecut=   100.00 Ry     beta=0.50
     Davidson diagonalization with overlap
     ethr =  1.00E-02,  avg # of iterations =  3.4

     total cpu time spent up to now is       86.5 secs

     total energy              =   -1342.46648268 Ry
     Harris-Foulkes estimate   =   -1347.31700061 Ry
     estimated scf accuracy    <       8.89999454 Ry

     iteration #  2     ecut=   100.00 Ry     beta=0.50
     Davidson diagonalization with overlap
     ethr =  3.37E-03,  avg # of iterations =  2.5

     total cpu time spent up to now is      126.8 secs

     total energy              =   -1344.26215806 Ry
     Harris-Foulkes estimate   =   -1344.59632030 Ry
     estimated scf accuracy    <       0.80615652 Ry

     iteration #  3     ecut=   100.00 Ry     beta=0.50
     Davidson diagonalization with overlap
     ethr =  3.05E-04,  avg # of iterations =  7.4

     total cpu time spent up to now is      187.0 secs

     total energy              =   -1344.50073681 Ry
     Harris-Foulkes estimate   =   -1344.58088085 Ry
     estimated scf accuracy    <       0.21819410 Ry

     iteration #  4     ecut=   100.00 Ry     beta=0.50
     Davidson diagonalization with overlap
     ethr =  8.26E-05,  avg # of iterations =  2.6

     total cpu time spent up to now is      223.3 secs

     total energy              =   -1344.52115764 Ry
     Harris-Foulkes estimate   =   -1344.53695858 Ry
     estimated scf accuracy    <       0.05301891 Ry

     iteration #  5     ecut=   100.00 Ry     beta=0.50
     Davidson diagonalization with overlap
     ethr =  2.01E-05,  avg # of iterations =  8.9

     total cpu time spent up to now is      290.6 secs

     total energy              =   -1344.53283261 Ry
     Harris-Foulkes estimate   =   -1344.54183664 Ry
     estimated scf accuracy    <       0.02250363 Ry

     iteration #  6     ecut=   100.00 Ry     beta=0.50
     Davidson diagonalization with overlap
     ethr =  8.52E-06,  avg # of iterations =  1.6

     total cpu time spent up to now is      322.4 secs

     total energy              =   -1344.53045518 Ry
     Harris-Foulkes estimate   =   -1344.53411453 Ry
     estimated scf accuracy    <       0.00588775 Ry

     iteration #  7     ecut=   100.00 Ry     beta=0.50
     Davidson diagonalization with overlap
     ethr =  2.23E-06,  avg # of iterations =  5.0

     total cpu time spent up to now is      392.3 secs

     total energy              =   -1344.53466888 Ry
     Harris-Foulkes estimate   =   -1344.53679258 Ry
     estimated scf accuracy    <       0.00590514 Ry

     iteration #  8     ecut=   100.00 Ry     beta=0.50
     Davidson diagonalization with overlap
     ethr =  2.23E-06,  avg # of iterations =  3.5

     total cpu time spent up to now is      426.0 secs

     total energy              =   -1344.53370243 Ry
     Harris-Foulkes estimate   =   -1344.53490874 Ry
     estimated scf accuracy    <       0.00192140 Ry

     iteration #  9     ecut=   100.00 Ry     beta=0.50
     Davidson diagonalization with overlap
     ethr =  7.28E-07,  avg # of iterations =  4.9

     total cpu time spent up to now is      491.7 secs

     total energy              =   -1344.53496681 Ry
     Harris-Foulkes estimate   =   -1344.53536755 Ry
     estimated scf accuracy    <       0.00123647 Ry

     iteration # 10     ecut=   100.00 Ry     beta=0.50
     Davidson diagonalization with overlap
     ethr =  4.68E-07,  avg # of iterations =  1.0

     total cpu time spent up to now is      522.8 secs

     total energy              =   -1344.53477211 Ry
     Harris-Foulkes estimate   =   -1344.53500243 Ry
     estimated scf accuracy    <       0.00049059 Ry

     iteration # 11     ecut=   100.00 Ry     beta=0.50
     Davidson diagonalization with overlap
     ethr =  1.86E-07,  avg # of iterations =  4.0

     total cpu time spent up to now is      576.6 secs

     total energy              =   -1344.53498353 Ry
     Harris-Foulkes estimate   =   -1344.53499391 Ry
     estimated scf accuracy    <       0.00003431 Ry

     iteration # 12     ecut=   100.00 Ry     beta=0.50
     Davidson diagonalization with overlap
     ethr =  1.30E-08,  avg # of iterations =  2.0

     total cpu time spent up to now is      608.9 secs

     total energy              =   -1344.53497860 Ry
     Harris-Foulkes estimate   =   -1344.53498539 Ry
     estimated scf accuracy    <       0.00001567 Ry

     iteration # 13     ecut=   100.00 Ry     beta=0.50
     Davidson diagonalization with overlap
     ethr =  5.94E-09,  avg # of iterations =  3.2

     total cpu time spent up to now is      656.0 secs

     total energy              =   -1344.53498396 Ry
     Harris-Foulkes estimate   =   -1344.53498412 Ry
     estimated scf accuracy    <       0.00000046 Ry

     iteration # 14     ecut=   100.00 Ry     beta=0.50
     Davidson diagonalization with overlap
     ethr =  1.74E-10,  avg # of iterations =  4.0

     total cpu time spent up to now is      706.8 secs

     total energy              =   -1344.53498398 Ry
     Harris-Foulkes estimate   =   -1344.53498414 Ry
     estimated scf accuracy    <       0.00000038 Ry

     iteration # 15     ecut=   100.00 Ry     beta=0.50
     Davidson diagonalization with overlap
     ethr =  1.42E-10,  avg # of iterations =  2.0

     total cpu time spent up to now is      739.2 secs

     total energy              =   -1344.53498397 Ry
     Harris-Foulkes estimate   =   -1344.53498400 Ry
     estimated scf accuracy    <       0.00000007 Ry

     iteration # 16     ecut=   100.00 Ry     beta=0.50
     Davidson diagonalization with overlap
     ethr =  2.83E-11,  avg # of iterations =  4.0

     total cpu time spent up to now is      798.2 secs

     total energy              =   -1344.53498402 Ry
     Harris-Foulkes estimate   =   -1344.53498402 Ry
     estimated scf accuracy    <       0.00000001 Ry

     iteration # 17     ecut=   100.00 Ry     beta=0.50
     Davidson diagonalization with overlap
     ethr =  4.08E-12,  avg # of iterations =  1.0

     total cpu time spent up to now is      829.3 secs

     End of self-consistent calculation

          k = 0.0000 0.0000 0.0000 ( 74075 PWs)   bands (ev):

   -18.9956 -18.9287 -18.8430 -18.8098 -18.4717 -18.4637 -18.3604 -18.3565
   -17.2913 -17.2789 -17.1312 -17.1136 -15.8123 -15.7024 -15.6898 -15.6387
   -15.6315 -15.5772 -15.4993 -15.4827 -14.3659 -14.3071 -14.2424 -14.2016
   -13.7166 -13.7156 -13.6644 -13.6224 -13.3940 -13.3741 -13.3571 -13.2418
    -9.6421  -9.6337  -9.4840  -9.3738  -8.3823  -8.1615  -8.1587  -8.0512
    -7.9816  -7.9109  -7.9025  -7.8607  -7.4522  -7.4244  -7.2475  -7.0348
    -6.2688  -6.2542  -6.2424  -6.1966  -5.6836  -5.6422  -5.4493  -5.4045
    -5.2853  -5.2245  -4.9778  -4.9764  -4.6717  -4.5265  -4.3943  -4.3882
    -4.2789  -4.2079  -4.0937  -4.0759  -4.0673  -3.9955  -3.8394  -3.7671
    -3.7659  -3.6119  -3.5990  -3.5637  -3.5312  -3.4947  -3.3567  -3.2162
    -3.1613  -3.1259  -3.0907  -2.8845  -2.8424  -2.7569  -2.7054  -2.6400
    -2.5814  -2.5757  -2.5511  -2.3642  -2.3549  -2.2942  -2.2440  -2.2085
    -2.1789  -1.8220  -1.7450  -1.6506   0.3885   0.4939   0.5110   0.5966
     0.7063   0.8002   0.8044   0.8573   0.9808   1.0044   1.0569   1.1217
     1.1368   1.1637   1.1875   1.2318   1.4278   1.4395   1.4443   1.4447
     1.4534   1.4916   1.5719   1.6493   1.6908   1.7369   1.7935   2.0346
     2.0479   2.2135   2.2236   2.2304   7.4534   7.5028   7.7599   7.8267
     7.8519   7.8788   8.0665   8.0759   8.1853   8.7291   8.8920   8.9212
     9.5725   9.5828   9.7184   9.8566   9.8605   9.8820   9.9879  10.0485
    10.0506  10.2945  10.3411  10.4395  10.4605  10.6252

          k = 0.0000 0.0000-0.2888 ( 74154 PWs)   bands (ev):

   -18.9664 -18.9664 -18.8222 -18.8222 -18.4681 -18.4681 -18.3583 -18.3583
   -17.2853 -17.2853 -17.1225 -17.1225 -15.7417 -15.7417 -15.6825 -15.6825
   -15.6092 -15.6092 -15.4829 -15.4829 -14.3410 -14.3410 -14.2213 -14.2213
   -13.6996 -13.6996 -13.6635 -13.6635 -13.3752 -13.3752 -13.3020 -13.3020
    -9.6357  -9.6357  -9.4240  -9.4240  -8.2983  -8.2983  -8.0808  -8.0808
    -7.9310  -7.9310  -7.8924  -7.8924  -7.4643  -7.4643  -7.1463  -7.1463
    -6.2617  -6.2617  -6.2025  -6.2025  -5.6690  -5.6690  -5.4261  -5.4261
    -5.2649  -5.2649  -4.9775  -4.9775  -4.5523  -4.5523  -4.4193  -4.4193
    -4.2743  -4.2743  -4.0603  -4.0603  -3.9694  -3.9694  -3.8068  -3.8068
    -3.7388  -3.7388  -3.5742  -3.5742  -3.5182  -3.5182  -3.2540  -3.2540
    -3.1699  -3.1699  -2.9275  -2.9275  -2.8023  -2.8023  -2.6655  -2.6655
    -2.6176  -2.6176  -2.4641  -2.4641  -2.3294  -2.3294  -2.3167  -2.3167
    -1.9629  -1.9629  -1.6942  -1.6942   0.4114   0.4114   0.5290   0.5290
     0.8363   0.8363   0.9301   0.9301   1.0074   1.0074   1.0293   1.0293
     1.1498   1.1498   1.2418   1.2418   1.3598   1.3598   1.3909   1.3909
     1.4879   1.4879   1.6216   1.6216   1.7596   1.7596   1.8965   1.8965
     2.1024   2.1024   2.2404   2.2404   7.4783   7.4783   7.7663   7.7663
     7.9145   7.9145   8.1388   8.1388   8.3350   8.3350   9.1122   9.1122
     9.2178   9.2178   9.7557   9.7557   9.8234   9.8234  10.0762  10.0762
    10.3332  10.3332  10.4519  10.4519  10.6284  10.6284

          k = 0.0000-0.2815 0.0000 ( 74072 PWs)   bands (ev):

   -18.9292 -18.9292 -18.8762 -18.8762 -18.4154 -18.4154 -18.3955 -18.3955
   -17.2067 -17.2067 -17.2024 -17.2024 -15.7758 -15.7758 -15.6612 -15.6612
   -15.5632 -15.5632 -15.5160 -15.5160 -14.3047 -14.3047 -14.2518 -14.2518
   -13.7130 -13.7130 -13.6473 -13.6473 -13.4019 -13.4019 -13.2812 -13.2812
    -9.5656  -9.5656  -9.5057  -9.5057  -8.3161  -8.3161  -8.0452  -8.0452
    -7.9587  -7.9587  -7.8997  -7.8997  -7.3810  -7.3810  -7.1966  -7.1966
    -6.2611  -6.2611  -6.1995  -6.1995  -5.5716  -5.5716  -5.5420  -5.5420
    -5.1394  -5.1394  -5.1260  -5.1260  -4.5722  -4.5722  -4.2933  -4.2933
    -4.1925  -4.1925  -4.1246  -4.1246  -4.0402  -4.0402  -3.8492  -3.8492
    -3.7003  -3.7003  -3.6352  -3.6352  -3.6021  -3.6021  -3.2868  -3.2868
    -3.1154  -3.1154  -2.9146  -2.9146  -2.7191  -2.7191  -2.6874  -2.6874
    -2.5445  -2.5445  -2.5123  -2.5123  -2.2646  -2.2646  -2.0781  -2.0781
    -2.0255  -2.0255  -1.9627  -1.9627   0.5021   0.5021   0.5795   0.5795
     0.7753   0.7753   0.8872   0.8872   0.9380   0.9380   1.1112   1.1112
     1.1979   1.1979   1.2711   1.2711   1.3421   1.3421   1.3667   1.3667
     1.4787   1.4787   1.5665   1.5665   1.6864   1.6864   2.0129   2.0129
     2.1536   2.1536   2.1590   2.1590   7.6071   7.6071   7.6814   7.6814
     7.8016   7.8016   8.1047   8.1047   8.3743   8.3743   9.1871   9.1871
     9.3827   9.3827   9.7520   9.7520   9.8353   9.8353  10.1338  10.1338
    10.1901  10.1901  10.4667  10.4667  10.6841  10.6841

          k = 0.0000-0.2815-0.2888 ( 74136 PWs)   bands (ev):

   -18.9222 -18.9222 -18.8838 -18.8838 -18.4134 -18.4134 -18.3970 -18.3970
   -17.2083 -17.2083 -17.2009 -17.2009 -15.7520 -15.7520 -15.6847 -15.6847
   -15.5477 -15.5477 -15.5319 -15.5319 -14.3037 -14.3037 -14.2547 -14.2547
   -13.6871 -13.6871 -13.6813 -13.6813 -13.3551 -13.3551 -13.3184 -13.3184
    -9.5371  -9.5371  -9.5272  -9.5272  -8.2752  -8.2752  -8.1282  -8.1282
    -7.9180  -7.9180  -7.9010  -7.9010  -7.3346  -7.3346  -7.2661  -7.2661
    -6.2298  -6.2298  -6.2206  -6.2206  -5.5763  -5.5763  -5.5456  -5.5456
    -5.1810  -5.1810  -5.0835  -5.0835  -4.5087  -4.5087  -4.3966  -4.3966
    -4.1724  -4.1724  -4.1093  -4.1093  -3.9958  -3.9958  -3.8500  -3.8500
    -3.7034  -3.7034  -3.6503  -3.6503  -3.5037  -3.5037  -3.3288  -3.3288
    -3.0548  -3.0548  -3.0048  -3.0048  -2.7307  -2.7307  -2.7224  -2.7224
    -2.5639  -2.5639  -2.4523  -2.4523  -2.2297  -2.2297  -2.1736  -2.1736
    -1.9973  -1.9973  -1.9830  -1.9830   0.4599   0.4599   0.6165   0.6165
     0.8119   0.8119   0.8926   0.8926   0.9913   0.9913   1.0714   1.0714
     1.2199   1.2199   1.2984   1.2984   1.2998   1.2998   1.3792   1.3792
     1.4887   1.4887   1.5832   1.5832   1.7101   1.7101   1.8888   1.8888
     2.1150   2.1150   2.2284   2.2284   7.6189   7.6189   7.6417   7.6417
     7.9563   7.9563   7.9876   7.9876   8.5955   8.5955   8.7580   8.7580
     9.4874   9.4874   9.6721   9.6721   9.9899   9.9899  10.1548  10.1548
    10.1927  10.1927  10.3472  10.3472  10.6732  10.6732

          k = 0.3333 0.0000 0.0754 ( 74188 PWs)   bands (ev):

   -18.9422 -18.9030 -18.8618 -18.8417 -18.4451 -18.4432 -18.3835 -18.3798
   -17.2635 -17.2598 -17.1418 -17.1383 -15.8112 -15.7460 -15.7339 -15.7052
   -15.5875 -15.5821 -15.5215 -15.4890 -14.4061 -14.3774 -14.2454 -14.2360
   -13.7203 -13.7114 -13.6735 -13.6303 -13.3189 -13.2889 -13.2490 -13.2113
    -9.5596  -9.5570  -9.4615  -9.4142  -8.3141  -8.3079  -8.2566  -8.0819
    -7.9983  -7.9645  -7.8760  -7.8679  -7.4331  -7.3483  -7.2125  -7.1618
    -6.4834  -6.4598  -6.1122  -6.0872  -5.6380  -5.5767  -5.4368  -5.4160
    -5.1281  -5.0360  -4.8718  -4.8501  -4.5621  -4.5433  -4.4654  -4.4071
    -4.2311  -4.2190  -4.0504  -4.0203  -4.0070  -3.8692  -3.8320  -3.8210
    -3.7780  -3.7300  -3.7045  -3.6609  -3.5509  -3.5281  -3.3654  -3.2589
    -3.1320  -3.0988  -3.0609  -2.9851  -2.9646  -2.7494  -2.7484  -2.6686
    -2.5702  -2.5559  -2.4658  -2.4463  -2.3696  -2.2875  -2.2787  -2.2776
    -2.1615  -1.9556  -1.8408  -1.7593   0.4344   0.5435   0.5847   0.6706
     0.6741   0.7281   0.7748   0.8817   0.9534   1.0579   1.1041   1.1093
     1.1829   1.2037   1.2962   1.3377   1.3378   1.4176   1.4493   1.4528
     1.4863   1.5011   1.6207   1.6289   1.7602   1.7750   1.8448   1.9328
     2.0228   2.1133   2.2208   2.2401   7.3369   7.3409   7.7106   7.7376
     7.8634   8.0218   8.1094   8.1106   8.5402   8.9476   9.1186   9.1506
     9.4604   9.4903   9.5812   9.6388   9.8390   9.9239  10.0120  10.0940
    10.1868  10.2736  10.4328  10.5190  10.6072  10.6645

          k = 0.3333 0.0000-0.2134 ( 74188 PWs)   bands (ev):

   -18.9353 -18.9147 -18.8531 -18.8459 -18.4461 -18.4420 -18.3831 -18.3803
   -17.2631 -17.2602 -17.1530 -17.1261 -15.8370 -15.7392 -15.7282 -15.6888
   -15.5976 -15.5679 -15.5151 -15.5039 -14.4204 -14.3593 -14.2426 -14.2376
   -13.7481 -13.6900 -13.6767 -13.6187 -13.3287 -13.2888 -13.2791 -13.1775
    -9.5737  -9.5444  -9.4902  -9.3880  -8.3651  -8.2820  -8.2040  -8.1367
    -8.0173  -7.9245  -7.8759  -7.8690  -7.4160  -7.3316  -7.2585  -7.1135
    -6.5221  -6.4265  -6.1478  -6.0595  -5.6080  -5.6024  -5.4291  -5.4161
    -5.1799  -5.0025  -4.8917  -4.8310  -4.5757  -4.5616  -4.4033  -4.3723
    -4.3241  -4.1882  -4.0882  -4.0024  -3.9553  -3.9403  -3.8297  -3.8118
    -3.7983  -3.7594  -3.6547  -3.6509  -3.6166  -3.4869  -3.2826  -3.2702
    -3.1892  -3.1029  -3.0659  -3.0407  -2.9560  -2.7896  -2.7679  -2.6556
    -2.5703  -2.4743  -2.4408  -2.4376  -2.3454  -2.3363  -2.2629  -2.2369
    -2.0658  -2.0542  -1.8274  -1.7721   0.4510   0.4694   0.5548   0.6095
     0.7177   0.7305   0.7960   0.9319   0.9824   1.0585   1.0785   1.1271
     1.1746   1.2576   1.2949   1.3492   1.3527   1.3864   1.4126   1.4460
     1.5210   1.5217   1.5828   1.6172   1.7025   1.8260   1.8331   1.9215
     1.9670   2.1877   2.2064   2.2513   7.3301   7.3497   7.6275   7.8342
     7.8707   7.9805   8.0866   8.1244   8.7216   8.7258   8.8502   9.2008
     9.4127   9.5385   9.6515   9.7378   9.8892  10.0453  10.0615  10.1739
    10.2227  10.2705  10.5042  10.5212  10.6151  10.6574

          k = 0.3333-0.2815 0.0754 ( 74190 PWs)   bands (ev):

   -18.9032 -18.9032 -18.8741 -18.8741 -18.4212 -18.4212 -18.4054 -18.4054
   -17.2111 -17.2111 -17.1848 -17.1848 -15.7927 -15.7927 -15.7079 -15.7079
   -15.5668 -15.5668 -15.5317 -15.5317 -14.3337 -14.3337 -14.2890 -14.2890
   -13.7004 -13.7004 -13.6699 -13.6699 -13.3003 -13.3003 -13.2326 -13.2326
    -9.5156  -9.5156  -9.4796  -9.4796  -8.3198  -8.3198  -8.1574  -8.1574
    -7.9721  -7.9721  -7.9174  -7.9174  -7.3153  -7.3153  -7.2353  -7.2353
    -6.3176  -6.3176  -6.2853  -6.2853  -5.5441  -5.5441  -5.4991  -5.4991
    -4.9945  -4.9945  -4.9276  -4.9276  -4.5367  -4.5367  -4.3932  -4.3932
    -4.2594  -4.2594  -4.0926  -4.0926  -3.9340  -3.9340  -3.8413  -3.8413
    -3.7437  -3.7437  -3.6679  -3.6679  -3.4306  -3.4306  -3.3089  -3.3089
    -3.1496  -3.1496  -3.0049  -3.0049  -2.8282  -2.8282  -2.7110  -2.7110
    -2.5323  -2.5323  -2.4706  -2.4706  -2.3659  -2.3659  -2.2946  -2.2946
    -2.0085  -2.0085  -1.9603  -1.9603   0.5773   0.5773   0.6301   0.6301
     0.7992   0.7992   0.9288   0.9288   0.9640   0.9640   1.0616   1.0616
     1.1185   1.1185   1.2409   1.2409   1.3384   1.3384   1.4775   1.4775
     1.5787   1.5787   1.6075   1.6075   1.7079   1.7079   1.9320   1.9320
     2.0952   2.0952   2.1799   2.1799   7.4403   7.4403   7.5709   7.5709
     7.9774   7.9774   8.0973   8.0973   8.7293   8.7293   9.3304   9.3304
     9.4363   9.4363   9.6995   9.6995   9.9118   9.9118  10.0785  10.0785
    10.2075  10.2075  10.3685  10.3685  10.4215  10.4218

          k = 0.3333-0.2815-0.2134 ( 74188 PWs)   bands (ev):

   -18.9023 -18.9023 -18.8750 -18.8750 -18.4209 -18.4209 -18.4056 -18.4056
   -17.2131 -17.2131 -17.1824 -17.1824 -15.8014 -15.8014 -15.6988 -15.6988
   -15.5728 -15.5728 -15.5264 -15.5264 -14.3341 -14.3341 -14.2868 -14.2868
   -13.7130 -13.7130 -13.6551 -13.6551 -13.3231 -13.3231 -13.2134 -13.2134
    -9.5375  -9.5375  -9.4599  -9.4599  -8.3368  -8.3368  -8.1346  -8.1346
    -7.9692  -7.9692  -7.9291  -7.9291  -7.3380  -7.3380  -7.1948  -7.1948
    -6.3376  -6.3376  -6.2720  -6.2720  -5.5279  -5.5279  -5.5095  -5.5095
    -5.0291  -5.0291  -4.9072  -4.9072  -4.5020  -4.5020  -4.4294  -4.4294
    -4.2363  -4.2363  -4.1210  -4.1210  -3.9306  -3.9306  -3.8432  -3.8432
    -3.7495  -3.7495  -3.6762  -3.6762  -3.4386  -3.4386  -3.3366  -3.3366
    -3.1255  -3.1255  -2.9868  -2.9868  -2.8057  -2.8057  -2.7063  -2.7063
    -2.6177  -2.6177  -2.4086  -2.4086  -2.3619  -2.3619  -2.2386  -2.2386
    -2.0738  -2.0738  -1.9335  -1.9335   0.5114   0.5114   0.6829   0.6829
     0.7928   0.7928   0.9178   0.9178   0.9782   0.9782   1.0695   1.0695
     1.1322   1.1322   1.2406   1.2406   1.3407   1.3407   1.4493   1.4493
     1.5204   1.5204   1.6661   1.6661   1.7057   1.7057   1.9664   1.9664
     2.0926   2.0926   2.1609   2.1609   7.4023   7.4023   7.5958   7.5958
     8.0170   8.0170   8.0598   8.0598   8.7688   8.7688   9.1031   9.1031
     9.4966   9.4966   9.7229   9.7229   9.8623   9.8623  10.0722  10.0722
    10.3383  10.3383  10.4308  10.4308  10.5983  10.5984

     highest occupied, lowest unoccupied level (ev):     2.2513    7.3301

!    total energy              =   -1344.53498401 Ry
     Harris-Foulkes estimate   =   -1344.53498402 Ry
     estimated scf accuracy    <          3.4E-09 Ry

     total all-electron energy =     -5090.706834 Ry

     The total energy is the sum of the following terms:

     one-electron contribution =    -602.21135039 Ry
     hartree contribution      =     417.56624237 Ry
     xc contribution           =    -280.67999458 Ry
     ewald contribution        =    -497.74415438 Ry
     Dispersion Correction     =      -0.43269612 Ry
     one-center paw contrib.   =    -381.03303090 Ry

     convergence has been achieved in  17 iterations

     Forces acting on atoms (cartesian axes, Ry/au):

     atom    1 type  4   force =     0.00091168   -0.00028846   -0.00103983
     atom    2 type  4   force =    -0.00091168   -0.00028846    0.00103983
     atom    3 type  4   force =    -0.00091168    0.00028846    0.00103983
     atom    4 type  4   force =     0.00091168    0.00028846   -0.00103983
     atom    5 type  4   force =     0.00163554    0.00124260   -0.00125327
     atom    6 type  4   force =    -0.00163554    0.00124260    0.00125327
     atom    7 type  4   force =    -0.00163554   -0.00124260    0.00125327
     atom    8 type  4   force =     0.00163554   -0.00124260   -0.00125327
     atom    9 type  2   force =     0.00101516   -0.00091339   -0.00039926
     atom   10 type  2   force =    -0.00101516   -0.00091339    0.00039926
     atom   11 type  2   force =    -0.00101516    0.00091339    0.00039926
     atom   12 type  2   force =     0.00101516    0.00091339   -0.00039926
     atom   13 type  2   force =     0.00005288   -0.00095304   -0.00044143
     atom   14 type  2   force =    -0.00005288   -0.00095304    0.00044143
     atom   15 type  2   force =    -0.00005288    0.00095304    0.00044143
     atom   16 type  2   force =     0.00005288    0.00095304   -0.00044143
     atom   17 type  2   force =    -0.00019656   -0.00085867   -0.00060587
     atom   18 type  2   force =     0.00019656   -0.00085867    0.00060587
     atom   19 type  2   force =     0.00019656    0.00085867    0.00060587
     atom   20 type  2   force =    -0.00019656    0.00085867   -0.00060587
     atom   21 type  2   force =     0.00224498    0.00115654   -0.00137200
     atom   22 type  2   force =    -0.00224498    0.00115654    0.00137200
     atom   23 type  2   force =    -0.00224498   -0.00115654    0.00137200
     atom   24 type  2   force =     0.00224498   -0.00115654   -0.00137200
     atom   25 type  2   force =    -0.00129480    0.00051390    0.00426639
     atom   26 type  2   force =     0.00129480    0.00051390   -0.00426639
     atom   27 type  2   force =     0.00129480   -0.00051390   -0.00426639
     atom   28 type  2   force =    -0.00129480   -0.00051390    0.00426639
     atom   29 type  2   force =    -0.00062429    0.00035533   -0.00040222
     atom   30 type  2   force =     0.00062429    0.00035533    0.00040222
     atom   31 type  2   force =     0.00062429   -0.00035533    0.00040222
     atom   32 type  2   force =    -0.00062429   -0.00035533   -0.00040222
     atom   33 type  1   force =    -0.00025136   -0.00073251   -0.00053609
     atom   34 type  1   force =     0.00025136   -0.00073251    0.00053609
     atom   35 type  1   force =     0.00025136    0.00073251    0.00053609
     atom   36 type  1   force =    -0.00025136    0.00073251   -0.00053609
     atom   37 type  1   force =    -0.00085661   -0.00078649    0.00037799
     atom   38 type  1   force =     0.00085661   -0.00078649   -0.00037799
     atom   39 type  1   force =     0.00085661    0.00078649   -0.00037799
     atom   40 type  1   force =    -0.00085661    0.00078649    0.00037799
     atom   41 type  1   force =    -0.00118181    0.00149158    0.00063647
     atom   42 type  1   force =     0.00118181    0.00149158   -0.00063647
     atom   43 type  1   force =     0.00118181   -0.00149158   -0.00063647
     atom   44 type  1   force =    -0.00118181   -0.00149158    0.00063647
     atom   45 type  1   force =    -0.00199831   -0.00164764    0.00088827
     atom   46 type  1   force =     0.00199831   -0.00164764   -0.00088827
     atom   47 type  1   force =     0.00199831    0.00164764   -0.00088827
     atom   48 type  1   force =    -0.00199831    0.00164764    0.00088827
     atom   49 type  3   force =    -0.00034222   -0.00039557   -0.00050631
     atom   50 type  3   force =     0.00034222   -0.00039557    0.00050631
     atom   51 type  3   force =     0.00034222    0.00039557    0.00050631
     atom   52 type  3   force =    -0.00034222    0.00039557   -0.00050631
     atom   53 type  3   force =    -0.00077387   -0.00071827   -0.00006777
     atom   54 type  3   force =     0.00077387   -0.00071827    0.00006777
     atom   55 type  3   force =     0.00077387    0.00071827    0.00006777
     atom   56 type  3   force =    -0.00077387    0.00071827   -0.00006777
     atom   57 type  3   force =     0.00005963    0.00051718    0.00001889
     atom   58 type  3   force =    -0.00005963    0.00051718   -0.00001889
     atom   59 type  3   force =    -0.00005963   -0.00051718   -0.00001889
     atom   60 type  3   force =     0.00005963   -0.00051718    0.00001889
     atom   61 type  3   force =    -0.00146044    0.00089736    0.00043715
     atom   62 type  3   force =     0.00146044    0.00089736   -0.00043715
     atom   63 type  3   force =     0.00146044   -0.00089736   -0.00043715
     atom   64 type  3   force =    -0.00146044   -0.00089736    0.00043715
     atom   65 type  3   force =     0.00073772    0.00112845   -0.00098233
     atom   66 type  3   force =    -0.00073772    0.00112845    0.00098233
     atom   67 type  3   force =    -0.00073772   -0.00112845    0.00098233
     atom   68 type  3   force =     0.00073772   -0.00112845   -0.00098233
     atom   69 type  3   force =     0.00099638   -0.00062118   -0.00020945
     atom   70 type  3   force =    -0.00099638   -0.00062118    0.00020945
     atom   71 type  3   force =    -0.00099638    0.00062118    0.00020945
     atom   72 type  3   force =     0.00099638    0.00062118   -0.00020945
     atom   73 type  3   force =     0.00017477    0.00051445    0.00014149
     atom   74 type  3   force =    -0.00017477    0.00051445   -0.00014149
     atom   75 type  3   force =    -0.00017477   -0.00051445   -0.00014149
     atom   76 type  3   force =     0.00017477   -0.00051445    0.00014149
     atom   77 type  3   force =     0.00031570   -0.00018249    0.00021310
     atom   78 type  3   force =    -0.00031570   -0.00018249   -0.00021310
     atom   79 type  3   force =    -0.00031570    0.00018249   -0.00021310
     atom   80 type  3   force =     0.00031570    0.00018249    0.00021310

     Total force =     0.016099     Total SCF correction =     0.000117


     Computing stress (Cartesian axis) and pressure

          total   stress  (Ry/bohr**3)                   (kbar)     P=   -9.20
  -0.00005767   0.00000000  -0.00001190         -8.48      0.00     -1.75
   0.00000000  -0.00007024   0.00000000          0.00    -10.33      0.00
  -0.00001190   0.00000000  -0.00005974         -1.75      0.00     -8.79


     Writing output data file scf.save
 
     init_run     :     24.50s CPU     25.47s WALL (       1 calls)
     electrons    :    769.39s CPU    803.26s WALL (       1 calls)
     forces       :     13.00s CPU     13.17s WALL (       1 calls)
     stress       :     69.49s CPU     69.68s WALL (       1 calls)

     Called by init_run:
     wfcinit      :     16.07s CPU     16.89s WALL (       1 calls)
     potinit      :      2.96s CPU      3.04s WALL (       1 calls)

     Called by electrons:
     c_bands      :    683.45s CPU    712.41s WALL (      17 calls)
     sum_band     :     74.03s CPU     77.92s WALL (      17 calls)
     v_of_rho     :      1.43s CPU      1.55s WALL (      18 calls)
     newd         :      3.47s CPU      4.28s WALL (      18 calls)
     PAW_pot      :      6.30s CPU      6.30s WALL (      18 calls)
     mix_rho      :      0.42s CPU      0.45s WALL (      17 calls)

     Called by c_bands:
     init_us_2    :      6.43s CPU      6.45s WALL (     296 calls)
     cegterg      :    661.73s CPU    690.65s WALL (     136 calls)

     Called by sum_band:
     sum_band:bec :      0.07s CPU      0.07s WALL (     136 calls)
     addusdens    :      3.86s CPU      4.60s WALL (      17 calls)

     Called by *egterg:
     h_psi        :    380.17s CPU    399.63s WALL (     632 calls)
     s_psi        :     66.96s CPU     66.96s WALL (     632 calls)
     g_psi        :      3.09s CPU      3.09s WALL (     488 calls)
     cdiaghg      :     50.25s CPU     50.24s WALL (     624 calls)

     Called by h_psi:
     h_psi:pot    :    376.06s CPU    395.48s WALL (     632 calls)
     h_psi:calbec :     61.45s CPU     61.68s WALL (     632 calls)
     vloc_psi     :    247.79s CPU    266.96s WALL (     632 calls)
     add_vuspsi   :     66.83s CPU     66.84s WALL (     632 calls)

     General routines
     calbec       :     88.93s CPU     89.26s WALL (     808 calls)
     fft          :      0.94s CPU      1.15s WALL (     258 calls)
     fftw         :    261.93s CPU    282.38s WALL (  146428 calls)
 
     Parallel routines
     fft_scatter  :     66.43s CPU     80.17s WALL (  146686 calls)
 
     PWSCF        : 14m43.43s CPU    15m55.89s WALL

 
   This run was terminated on:   5:43:40   4Nov2017            

=------------------------------------------------------------------------------=
   JOB DONE.
=------------------------------------------------------------------------------=
