
     Program PWSCF v.6.1 (svn rev. 13369) starts on  4Nov2017 at  0:35: 0 

     This program is part of the open-source Quantum ESPRESSO suite
     for quantum simulation of materials; please cite
         "P. Giannozzi et al., J. Phys.:Condens. Matter 21 395502 (2009);
          URL http://www.quantum-espresso.org", 
     in publications or presentations arising from this work. More details at
     http://www.quantum-espresso.org/quote

     Parallel version (MPI), running on     8 processors
     R & G space division:  proc/nbgrp/npool/nimage =       8
     Waiting for input...
     Reading input from standard input

     Current dimensions of program PWSCF are:
     Max number of different atomic species (ntypx) = 10
     Max number of k-points (npk) =  40000
     Max angular momentum in pseudopotentials (lmaxx) =  3
               file C.pbe-n-kjpaw_psl.0.1.UPF: wavefunction(s)  2P renormalized
               file N.pbe-n-kjpaw_psl.0.1.UPF: wavefunction(s)  2P renormalized
               file H.pbe-kjpaw_psl.0.1.UPF: wavefunction(s)  1S renormalized
               file O.pbe-n-kjpaw_psl.0.1.UPF: wavefunction(s)  2P renormalized

     -------------------------------------
     Parameters for Dispersion Correction:
     -------------------------------------
       atom      VdW radius       C_6     

        C          2.744         60.710
        N          2.640         42.670
        H          1.892          4.857
        O          2.536         24.284

     Subspace diagonalization in iterative solution of the eigenvalue problem:
     a serial algorithm will be used

 
     Parallelization info
     --------------------
     sticks:   dense  smooth     PW     G-vecs:    dense   smooth      PW
     Min         886     886    238                57316    57316    8029
     Max         887     887    239                57319    57319    8033
     Sum        7089    7089   1905               458545   458545   64239
 


     bravais-lattice index     =            0
     lattice parameter (alat)  =       9.0605  a.u.
     unit-cell volume          =    3394.3241 (a.u.)^3
     number of atoms/cell      =           52
     number of atomic types    =            4
     number of electrons       =       192.00
     number of Kohn-Sham states=          115
     kinetic-energy cutoff     =     100.0000  Ry
     charge density cutoff     =     400.0000  Ry
     convergence threshold     =      1.0E-08
     mixing beta               =       0.5000
     number of iterations used =            8  plain     mixing
     Exchange-correlation      =  SLA  PW   PBX  PBC ( 1  4  3  4 0 0)

     celldm(1)=   9.060481  celldm(2)=   0.000000  celldm(3)=   0.000000
     celldm(4)=   0.000000  celldm(5)=   0.000000  celldm(6)=   0.000000

     crystal axes: (cart. coord. in units of alat)
               a(1) = (   1.000000   0.000000   0.000000 )  
               a(2) = (   0.000000   2.715242   0.000000 )  
               a(3) = (  -0.060395   0.000000   1.680703 )  

     reciprocal axes: (cart. coord. in units 2 pi/alat)
               b(1) = (  1.000000  0.000000  0.035934 )  
               b(2) = (  0.000000  0.368291  0.000000 )  
               b(3) = (  0.000000  0.000000  0.594989 )  


     PseudoPot. # 1 for  C read from file:
     /scratch/ahofstet/pseudo/C.pbe-n-kjpaw_psl.0.1.UPF
     MD5 check sum: 430fe95172b1e11ef3f8ed03bac87931
     Pseudo is Projector augmented-wave + core cor, Zval =  4.0
     Generated using "atomic" code by A. Dal Corso  v.5.0.99 svn rev. 10869
     Shape of augmentation charge: BESSEL
     Using radial grid of 1073 points,  4 beta functions with: 
                l(1) =   0
                l(2) =   0
                l(3) =   1
                l(4) =   1
     Q(r) pseudized with 0 coefficients 


     PseudoPot. # 2 for  N read from file:
     /scratch/ahofstet/pseudo/N.pbe-n-kjpaw_psl.0.1.UPF
     MD5 check sum: f73187c8b701007e77325f868c9291d7
     Pseudo is Projector augmented-wave + core cor, Zval =  5.0
     Generated using "atomic" code by A. Dal Corso  v.5.0.99 svn rev. 10869
     Shape of augmentation charge: PSQ
     Using radial grid of 1085 points,  4 beta functions with: 
                l(1) =   0
                l(2) =   0
                l(3) =   1
                l(4) =   1
     Q(r) pseudized with 0 coefficients 


     PseudoPot. # 3 for  H read from file:
     /scratch/ahofstet/pseudo/H.pbe-kjpaw_psl.0.1.UPF
     MD5 check sum: 94e484f906d9e9773b2f6e52662335b2
     Pseudo is Projector augmented-wave, Zval =  1.0
     Generated using "atomic" code by A. Dal Corso  v.5.0.99 svn rev. 10869
     Shape of augmentation charge: PSQ
     Using radial grid of  929 points,  2 beta functions with: 
                l(1) =   0
                l(2) =   0
     Q(r) pseudized with 0 coefficients 


     PseudoPot. # 4 for  O read from file:
     /scratch/ahofstet/pseudo/O.pbe-n-kjpaw_psl.0.1.UPF
     MD5 check sum: 3f94a2996a3169367d6eb21d9b593f20
     Pseudo is Projector augmented-wave + core cor, Zval =  6.0
     Generated using "atomic" code by A. Dal Corso  v.5.0.99 svn rev. 10869
     Shape of augmentation charge: BESSEL
     Using radial grid of 1095 points,  4 beta functions with: 
                l(1) =   0
                l(2) =   0
                l(3) =   1
                l(4) =   1
     Q(r) pseudized with 0 coefficients 


     atomic species   valence    mass     pseudopotential
        C              4.00    12.01070      C( 1.00)
        N              5.00    14.00670      N( 1.00)
        H              1.00     1.00794      H( 1.00)
        O              6.00    15.99940      O( 1.00)

      2 Sym. Ops., with inversion, found



   Cartesian axes

     site n.     atom                  positions (alat units)
         1           O   tau(   1) = (   0.4079560   1.0095206   0.4109393  )
         2           O   tau(   2) = (   0.5618048   2.3671901   0.4297251  )
         3           O   tau(   3) = (   0.5316491   1.7057216   1.2697638  )
         4           O   tau(   4) = (   0.3778003   0.3480521   1.2509779  )
         5           N   tau(   5) = (   0.3807915   0.7276499   0.4052537  )
         6           N   tau(   6) = (   0.5889512   2.0853250   0.4354731  )
         7           N   tau(   7) = (   0.5588136   1.9875923   1.2754494  )
         8           N   tau(   8) = (   0.3506539   0.6299172   1.2452299  )
         9           C   tau(   9) = (   0.1806219   0.6709932   0.2277920  )
        10           C   tau(  10) = (   0.7891037   2.0287015   0.6129860  )
        11           C   tau(  11) = (   0.7589832   2.0442489   1.4529111  )
        12           C   tau(  12) = (   0.1505014   0.6865407   1.0677171  )
        13           C   tau(  13) = (   0.0705919   0.9293401   0.1167174  )
        14           C   tau(  14) = (   0.8991787   2.2870738   0.7240376  )
        15           C   tau(  15) = (   0.8690131   1.7859020   1.5639856  )
        16           C   tau(  16) = (   0.0404263   0.4281684   0.9566655  )
        17           N   tau(  17) = (   0.2237927   1.1364018   0.2229184  )
        18           N   tau(  18) = (   0.7459665   2.4941057   0.6177268  )
        19           N   tau(  19) = (   0.7158124   1.5788404   1.4577847  )
        20           N   tau(  20) = (   0.1936385   0.2211365   1.0629762  )
        21           O   tau(  21) = (   0.8700156   0.3529398   0.0214458  )
        22           O   tau(  22) = (   0.0997623   1.7106347   0.8192029  )
        23           O   tau(  23) = (   0.0695895   2.3623024   1.6592573  )
        24           O   tau(  24) = (   0.8398428   1.0046075   0.8615002  )
        25           N   tau(  25) = (   0.2654964   0.1772900   0.2297641  )
        26           N   tau(  26) = (   0.7043687   1.5349942   0.6108276  )
        27           N   tau(  27) = (   0.6741087   2.5379521   1.4509390  )
        28           N   tau(  28) = (   0.2352363   1.1802479   1.0698755  )
        29           H   tau(  29) = (   0.2223840  -0.0216313   0.1587094  )
        30           H   tau(  30) = (   0.7474729   1.3360348   0.6817435  )
        31           H   tau(  31) = (   0.7172210   2.7368734   1.5219936  )
        32           H   tau(  32) = (   0.1921322   1.3792073   0.9989596  )
        33           H   tau(  33) = (   0.4610953   0.2213108   0.2984294  )
        34           H   tau(  34) = (   0.5087492   1.5789957   0.5420165  )
        35           H   tau(  35) = (   0.4785098   2.4939313   1.3822737  )
        36           H   tau(  36) = (   0.4308559   1.1362464   1.1386865  )
        37           C   tau(  37) = (   0.0934678   0.3844509   0.1540795  )
        38           C   tau(  38) = (   0.8762895   1.7421561   0.6865758  )
        39           C   tau(  39) = (   0.8461372   2.3307912   1.5266236  )
        40           C   tau(  40) = (   0.0633155   0.9730860   0.9941273  )
        41           N   tau(  41) = (   0.8055001   0.9638957   1.6095955  )
        42           N   tau(  42) = (   0.1038501   2.3216197   0.9117671  )
        43           N   tau(  43) = (   0.1341050   1.7513464   0.0711076  )
        44           N   tau(  44) = (   0.8357549   0.3936224   0.7689359  )
        45           H   tau(  45) = (   0.7455637   1.1617965   1.5558462  )
        46           H   tau(  46) = (   0.1639602   2.5195475   0.9653380  )
        47           H   tau(  47) = (   0.1940413   1.5534456   0.1248569  )
        48           H   tau(  48) = (   0.7756449   0.1956946   0.7153651  )
        49           H   tau(  49) = (   0.6861519   0.7972944   1.5552754  )
        50           H   tau(  50) = (   0.2233081   2.1550152   0.9659990  )
        51           H   tau(  51) = (   0.2534531   1.9179477   0.1254276  )
        52           H   tau(  52) = (   0.7162970   0.5602270   0.7147040  )

     number of k points=    14
                       cart. coord. in units 2pi/alat
        k(    1) = (   0.0000000   0.0000000   0.0000000), wk =   0.0833333
        k(    2) = (   0.0000000   0.0000000   0.1983297), wk =   0.1666667
        k(    3) = (   0.0000000  -0.1841456   0.0000000), wk =   0.0833333
        k(    4) = (   0.0000000  -0.1841456   0.1983297), wk =   0.1666667
        k(    5) = (   0.2500000   0.0000000   0.0089836), wk =   0.1666667
        k(    6) = (   0.2500000   0.0000000   0.2073133), wk =   0.1666667
        k(    7) = (   0.2500000   0.0000000  -0.1893461), wk =   0.1666667
        k(    8) = (   0.2500000  -0.1841456   0.0089836), wk =   0.1666667
        k(    9) = (   0.2500000  -0.1841456   0.2073133), wk =   0.1666667
        k(   10) = (   0.2500000  -0.1841456  -0.1893461), wk =   0.1666667
        k(   11) = (  -0.5000000   0.0000000  -0.0179672), wk =   0.0833333
        k(   12) = (  -0.5000000   0.0000000   0.1803625), wk =   0.1666667
        k(   13) = (  -0.5000000  -0.1841456  -0.0179672), wk =   0.0833333
        k(   14) = (  -0.5000000  -0.1841456   0.1803625), wk =   0.1666667

     Dense  grid:   458545 G-vectors     FFT dimensions: (  60, 160, 100)

     Estimated max dynamical RAM per process >     365.29MB

     Estimated total allocated dynamical RAM >    2922.30MB

     Check: negative/imaginary core charge=   -0.000002    0.000000

     Initial potential from superposition of free atoms

     starting charge  191.99922, renormalised to  192.00000
     Starting wfc are  160 randomized atomic wfcs
     Checking if some PAW data can be deallocated... 

     total cpu time spent up to now is       22.3 secs

     per-process dynamical memory:   352.2 Mb

     Self-consistent Calculation

     iteration #  1     ecut=   100.00 Ry     beta=0.50
     Davidson diagonalization with overlap
     ethr =  1.00E-02,  avg # of iterations =  3.0

     total cpu time spent up to now is       74.2 secs

     total energy              =   -1023.53953968 Ry
     Harris-Foulkes estimate   =   -1026.44923360 Ry
     estimated scf accuracy    <       5.37336732 Ry

     iteration #  2     ecut=   100.00 Ry     beta=0.50
     Davidson diagonalization with overlap
     ethr =  2.80E-03,  avg # of iterations =  3.0

     total cpu time spent up to now is      111.3 secs

     total energy              =   -1024.43238520 Ry
     Harris-Foulkes estimate   =   -1024.95267205 Ry
     estimated scf accuracy    <       1.10395174 Ry

     iteration #  3     ecut=   100.00 Ry     beta=0.50
     Davidson diagonalization with overlap
     ethr =  5.75E-04,  avg # of iterations =  4.4

     total cpu time spent up to now is      150.2 secs

     total energy              =   -1024.67368874 Ry
     Harris-Foulkes estimate   =   -1024.75956158 Ry
     estimated scf accuracy    <       0.21454557 Ry

     iteration #  4     ecut=   100.00 Ry     beta=0.50
     Davidson diagonalization with overlap
     ethr =  1.12E-04,  avg # of iterations = 10.7

     total cpu time spent up to now is      199.5 secs

     total energy              =   -1024.71449535 Ry
     Harris-Foulkes estimate   =   -1024.73701358 Ry
     estimated scf accuracy    <       0.06255344 Ry

     iteration #  5     ecut=   100.00 Ry     beta=0.50
     Davidson diagonalization with overlap
     ethr =  3.26E-05,  avg # of iterations =  6.6

     total cpu time spent up to now is      234.6 secs

     total energy              =   -1024.72534070 Ry
     Harris-Foulkes estimate   =   -1024.72703156 Ry
     estimated scf accuracy    <       0.00588644 Ry

     iteration #  6     ecut=   100.00 Ry     beta=0.50
     Davidson diagonalization with overlap
     ethr =  3.07E-06,  avg # of iterations =  6.7

     total cpu time spent up to now is      299.3 secs

     total energy              =   -1024.72797054 Ry
     Harris-Foulkes estimate   =   -1024.72884332 Ry
     estimated scf accuracy    <       0.00245322 Ry

     iteration #  7     ecut=   100.00 Ry     beta=0.50
     Davidson diagonalization with overlap
     ethr =  1.28E-06,  avg # of iterations =  6.0

     total cpu time spent up to now is      333.7 secs

     total energy              =   -1024.72825887 Ry
     Harris-Foulkes estimate   =   -1024.72835181 Ry
     estimated scf accuracy    <       0.00027660 Ry

     iteration #  8     ecut=   100.00 Ry     beta=0.50
     Davidson diagonalization with overlap
     ethr =  1.44E-07,  avg # of iterations =  4.0

     total cpu time spent up to now is      383.1 secs

     total energy              =   -1024.72837198 Ry
     Harris-Foulkes estimate   =   -1024.72843852 Ry
     estimated scf accuracy    <       0.00021374 Ry

     iteration #  9     ecut=   100.00 Ry     beta=0.50
     Davidson diagonalization with overlap
     ethr =  1.11E-07,  avg # of iterations =  1.1

     total cpu time spent up to now is      411.5 secs

     total energy              =   -1024.72837391 Ry
     Harris-Foulkes estimate   =   -1024.72839515 Ry
     estimated scf accuracy    <       0.00005977 Ry

     iteration # 10     ecut=   100.00 Ry     beta=0.50
     Davidson diagonalization with overlap
     ethr =  3.11E-08,  avg # of iterations =  3.1

     total cpu time spent up to now is      452.9 secs

     total energy              =   -1024.72839185 Ry
     Harris-Foulkes estimate   =   -1024.72839271 Ry
     estimated scf accuracy    <       0.00000430 Ry

     iteration # 11     ecut=   100.00 Ry     beta=0.50
     Davidson diagonalization with overlap
     ethr =  2.24E-09,  avg # of iterations =  3.3

     total cpu time spent up to now is      495.4 secs

     total energy              =   -1024.72839228 Ry
     Harris-Foulkes estimate   =   -1024.72839364 Ry
     estimated scf accuracy    <       0.00000363 Ry

     iteration # 12     ecut=   100.00 Ry     beta=0.50
     Davidson diagonalization with overlap
     ethr =  1.89E-09,  avg # of iterations =  1.7

     total cpu time spent up to now is      524.5 secs

     total energy              =   -1024.72839244 Ry
     Harris-Foulkes estimate   =   -1024.72839267 Ry
     estimated scf accuracy    <       0.00000056 Ry

     iteration # 13     ecut=   100.00 Ry     beta=0.50
     Davidson diagonalization with overlap
     ethr =  2.93E-10,  avg # of iterations =  4.0

     total cpu time spent up to now is      575.3 secs

     total energy              =   -1024.72839279 Ry
     Harris-Foulkes estimate   =   -1024.72839285 Ry
     estimated scf accuracy    <       0.00000021 Ry

     iteration # 14     ecut=   100.00 Ry     beta=0.50
     Davidson diagonalization with overlap
     ethr =  1.11E-10,  avg # of iterations =  1.0

     total cpu time spent up to now is      603.6 secs

     total energy              =   -1024.72839276 Ry
     Harris-Foulkes estimate   =   -1024.72839280 Ry
     estimated scf accuracy    <       0.00000008 Ry

     iteration # 15     ecut=   100.00 Ry     beta=0.50
     Davidson diagonalization with overlap
     ethr =  4.24E-11,  avg # of iterations =  3.1

     total cpu time spent up to now is      645.8 secs

     End of self-consistent calculation

          k = 0.0000 0.0000 0.0000 ( 57361 PWs)   bands (ev):

   -22.5082 -22.5051 -22.4969 -22.4954 -18.9085 -18.9047 -18.8017 -18.7987
   -16.4830 -16.4328 -16.3834 -16.3372 -15.6929 -15.6028 -15.5653 -15.5505
   -15.0366 -15.0142 -14.9918 -14.9117 -13.6883 -13.6711 -13.6236 -13.6062
    -9.9089  -9.7481  -9.6349  -9.5890  -8.5944  -8.5875  -8.4145  -8.3938
    -7.9422  -7.8356  -7.6136  -7.5107  -6.6305  -6.5380  -6.5239  -6.4394
    -5.8515  -5.8421  -5.8285  -5.8009  -5.5595  -5.4129  -5.1956  -5.1341
    -5.0837  -5.0510  -5.0204  -4.9559  -4.7083  -4.7026  -4.5472  -4.1600
    -3.6439  -3.4929  -3.3947  -3.1526  -3.1259  -3.1083  -3.0612  -2.9393
    -2.8539  -2.6609  -2.5779  -2.3891  -2.0172  -1.9278  -1.8249  -1.8100
    -1.4157  -1.3655  -1.1238  -0.8714  -0.4903  -0.4797  -0.4275  -0.4231
    -0.4191  -0.2889  -0.2511  -0.1846   0.1299   0.2246   0.5353   0.6247
     0.6625   0.6643   0.8907   0.9488   1.4068   1.4924   1.6118   1.7819
     4.4097   4.4651   4.6893   4.8889   6.4021   6.4627   6.5326   6.7091
     7.5421   7.6610   7.9697   8.0002   8.3124   8.4020   8.5028   8.5954
     8.7844   8.9118   8.9921

          k = 0.0000 0.0000 0.1983 ( 57382 PWs)   bands (ev):

   -22.5053 -22.5028 -22.4996 -22.4979 -18.9079 -18.9057 -18.8013 -18.7994
   -16.4710 -16.4460 -16.3721 -16.3490 -15.6731 -15.6309 -15.5531 -15.5485
   -15.0353 -15.0228 -14.9688 -14.9300 -13.6850 -13.6765 -13.6193 -13.6107
    -9.8765  -9.8007  -9.6108  -9.5924  -8.5923  -8.5888  -8.4094  -8.3990
    -7.9136  -7.8603  -7.5911  -7.5398  -6.6039  -6.5522  -6.5053  -6.4548
    -5.8452  -5.8416  -5.8149  -5.7949  -5.5368  -5.4497  -5.1634  -5.1199
    -5.1005  -5.0271  -4.9768  -4.9421  -4.8006  -4.7875  -4.4235  -4.2341
    -3.6259  -3.5149  -3.4612  -3.3107  -3.1192  -3.0853  -3.0637  -2.9882
    -2.7743  -2.6805  -2.5138  -2.4224  -1.9341  -1.8635  -1.8536  -1.8032
    -1.4037  -1.3775  -1.0610  -0.9363  -0.5040  -0.4646  -0.4195  -0.3947
    -0.3376  -0.2834  -0.2575  -0.2186   0.1445   0.1882   0.5625   0.6060
     0.6742   0.6749   0.9060   0.9357   1.4331   1.5415   1.5701   1.7162
     4.4688   4.5630   4.6061   4.7729   6.4059   6.4379   6.5832   6.6669
     7.5561   7.6180   7.9181   8.0210   8.2425   8.5033   8.7223   8.7846
     8.8553   8.9004   9.0164

          k = 0.0000-0.1841 0.0000 ( 57362 PWs)   bands (ev):

   -22.5068 -22.5067 -22.4961 -22.4960 -18.9073 -18.9061 -18.8008 -18.7994
   -16.4625 -16.4608 -16.3577 -16.3561 -15.6494 -15.6492 -15.5612 -15.5608
   -15.0139 -15.0138 -14.9575 -14.9573 -13.6899 -13.6895 -13.6064 -13.6058
    -9.8224  -9.8223  -9.6243  -9.6238  -8.6103  -8.6102  -8.3891  -8.3883
    -7.8239  -7.8237  -7.6166  -7.6163  -6.5798  -6.5797  -6.4675  -6.4672
    -5.9076  -5.9068  -5.7573  -5.7563  -5.5846  -5.5839  -5.2976  -5.2974
    -5.0389  -5.0388  -4.7199  -4.7197  -4.6502  -4.6488  -4.4610  -4.4604
    -3.6344  -3.6342  -3.2396  -3.2389  -3.1016  -3.1012  -3.0412  -3.0408
    -2.7818  -2.7814  -2.4482  -2.4468  -1.9773  -1.9770  -1.8149  -1.8147
    -1.4167  -1.4167  -0.9778  -0.9766  -0.4751  -0.4746  -0.4230  -0.4226
    -0.3196  -0.3182  -0.2353  -0.2349   0.1963   0.1972   0.5742   0.5751
     0.6605   0.6612   0.8960   0.8971   1.4320   1.4322   1.7131   1.7132
     4.4377   4.4378   4.7844   4.7844   6.4599   6.4604   6.5934   6.5943
     7.7028   7.7035   7.8424   7.8426   8.3031   8.3032   8.6477   8.6486
     8.8732   8.8741   8.9892

          k = 0.0000-0.1841 0.1983 ( 57340 PWs)   bands (ev):

   -22.5043 -22.5041 -22.4987 -22.4985 -18.9075 -18.9062 -18.8010 -18.7996
   -16.4587 -16.4568 -16.3625 -16.3608 -15.6423 -15.6421 -15.5661 -15.5656
   -15.0006 -15.0004 -14.9714 -14.9712 -13.6904 -13.6901 -13.6071 -13.6065
    -9.8183  -9.8181  -9.6283  -9.6279  -8.6109  -8.6107  -8.3887  -8.3879
    -7.8018  -7.8015  -7.6403  -7.6400  -6.5554  -6.5548  -6.4849  -6.4841
    -5.8929  -5.8920  -5.7623  -5.7615  -5.5921  -5.5914  -5.2830  -5.2826
    -4.9655  -4.9654  -4.8028  -4.8027  -4.6420  -4.6398  -4.4812  -4.4808
    -3.6105  -3.6101  -3.3990  -3.3988  -3.0765  -3.0762  -3.0274  -3.0270
    -2.7577  -2.7572  -2.4507  -2.4491  -1.9044  -1.9040  -1.8263  -1.8259
    -1.4062  -1.4061  -0.9882  -0.9870  -0.4716  -0.4711  -0.3779  -0.3774
    -0.3135  -0.3125  -0.2453  -0.2448   0.1827   0.1838   0.5748   0.5758
     0.6721   0.6728   0.8977   0.8987   1.4658   1.4662   1.6643   1.6648
     4.5149   4.5150   4.6868   4.6868   6.4623   6.4629   6.5812   6.5821
     7.6760   7.6767   7.8221   7.8227   8.4762   8.4770   8.6825   8.6832
     8.8824   8.8832   9.0743

          k = 0.2500 0.0000 0.0090 ( 57316 PWs)   bands (ev):

   -22.5035 -22.5014 -22.4938 -22.4925 -18.8917 -18.8891 -18.7893 -18.7846
   -16.4722 -16.4520 -16.3732 -16.3583 -15.7023 -15.6911 -15.5848 -15.5598
   -15.0554 -15.0114 -14.9618 -14.9383 -13.6990 -13.6784 -13.6351 -13.6026
    -9.8474  -9.8197  -9.6113  -9.5960  -8.5976  -8.5578  -8.4178  -8.3747
    -7.8546  -7.8519  -7.5843  -7.5632  -6.5671  -6.5582  -6.4276  -6.3961
    -5.8735  -5.8589  -5.8184  -5.7987  -5.5310  -5.4356  -5.2471  -5.1596
    -5.1017  -5.0828  -5.0710  -5.0653  -4.8202  -4.7920  -4.3361  -4.2992
    -3.6003  -3.5977  -3.4140  -3.3598  -3.2704  -3.1273  -2.9908  -2.9466
    -2.7863  -2.7795  -2.5742  -2.5198  -1.8793  -1.8015  -1.6833  -1.6407
    -1.3671  -1.3327  -1.0018  -0.9841  -0.5459  -0.4648  -0.4585  -0.4031
    -0.3835  -0.2997  -0.1993  -0.1468   0.3701   0.4020   0.6078   0.6424
     0.7310   0.7359   0.9438   0.9452   1.4734   1.5448   1.6481   1.7982
     4.4122   4.4854   4.7068   4.8777   6.2539   6.2875   6.4959   6.7229
     7.4919   7.6940   7.9157   7.9837   8.3694   8.5093   8.6643   8.8378
     8.9109   9.0033   9.0506

          k = 0.2500 0.0000 0.2073 ( 57335 PWs)   bands (ev):

   -22.5004 -22.4991 -22.4967 -22.4951 -18.8935 -18.8875 -18.7890 -18.7852
   -16.4701 -16.4557 -16.3759 -16.3568 -15.7151 -15.6632 -15.5961 -15.5560
   -15.0499 -15.0030 -14.9821 -14.9351 -13.6939 -13.6813 -13.6512 -13.5920
    -9.8749  -9.7735  -9.6420  -9.5800  -8.6020  -8.5527  -8.4172  -8.3738
    -7.8977  -7.8025  -7.6277  -7.5157  -6.5894  -6.5143  -6.4958  -6.3534
    -5.8676  -5.8642  -5.8327  -5.7516  -5.5132  -5.4934  -5.2488  -5.1217
    -5.0723  -5.0644  -5.0355  -4.9880  -4.9192  -4.8923  -4.4495  -4.1895
    -3.6649  -3.4956  -3.4691  -3.2747  -3.2243  -3.1203  -3.1104  -3.0631
    -2.9000  -2.6975  -2.6300  -2.4963  -1.7788  -1.7211  -1.6940  -1.6485
    -1.4041  -1.3007  -1.1309  -0.8534  -0.5185  -0.5068  -0.3943  -0.3621
    -0.3456  -0.2946  -0.2471  -0.1763   0.3753   0.3870   0.6292   0.6324
     0.7501   0.7577   0.9213   0.9588   1.5196   1.5660   1.6385   1.7149
     4.4677   4.6155   4.6341   4.7437   6.2584   6.2763   6.5499   6.6828
     7.4730   7.6587   7.8575   7.9913   8.4528   8.5273   8.7396   8.8527
     8.8617   8.8784   9.1261

          k = 0.2500 0.0000-0.1893 ( 57311 PWs)   bands (ev):

   -22.5017 -22.4994 -22.4956 -22.4945 -18.8922 -18.8885 -18.7879 -18.7862
   -16.4803 -16.4460 -16.3835 -16.3496 -15.7221 -15.6612 -15.5811 -15.5681
   -15.0306 -15.0281 -14.9869 -14.9219 -13.6922 -13.6852 -13.6324 -13.6066
    -9.8887  -9.7576  -9.6379  -9.5891  -8.5820  -8.5725  -8.3962  -8.3953
    -7.8983  -7.8060  -7.6157  -7.5250  -6.6030  -6.5151  -6.4722  -6.3652
    -5.8789  -5.8612  -5.8278  -5.7626  -5.5382  -5.4347  -5.1904  -5.1733
    -5.1141  -5.1090  -5.0156  -4.9701  -4.9389  -4.8626  -4.4598  -4.1738
    -3.6585  -3.5124  -3.4738  -3.2634  -3.2331  -3.1407  -3.0305  -2.9845
    -2.9472  -2.7081  -2.6795  -2.4792  -1.7851  -1.7228  -1.6872  -1.6478
    -1.3843  -1.3152  -1.1183  -0.8655  -0.5229  -0.4806  -0.4457  -0.3936
    -0.3134  -0.2752  -0.2382  -0.1879   0.3673   0.4053   0.6152   0.6494
     0.7387   0.7398   0.9249   0.9590   1.4657   1.5780   1.6020   1.7547
     4.5096   4.5344   4.6220   4.8100   6.2525   6.2702   6.5723   6.6617
     7.5946   7.6257   8.0176   8.1938   8.2734   8.5533   8.7303   8.8046
     8.8990   8.9507   9.0598

          k = 0.2500-0.1841 0.0090 ( 57338 PWs)   bands (ev):

   -22.5026 -22.5025 -22.4931 -22.4931 -18.8911 -18.8899 -18.7876 -18.7862
   -16.4620 -16.4601 -16.3679 -16.3663 -15.6863 -15.6860 -15.5885 -15.5881
   -15.0061 -15.0058 -14.9711 -14.9709 -13.6975 -13.6972 -13.6115 -13.6110
    -9.8077  -9.8075  -9.6358  -9.6354  -8.6033  -8.6032  -8.3768  -8.3760
    -7.7629  -7.7626  -7.6456  -7.6452  -6.5296  -6.5285  -6.4392  -6.4383
    -5.9064  -5.9055  -5.7866  -5.7857  -5.5631  -5.5627  -5.2795  -5.2789
    -5.1782  -5.1782  -4.8258  -4.8257  -4.6240  -4.6217  -4.4653  -4.4650
    -3.6154  -3.6147  -3.4104  -3.4100  -3.2078  -3.2075  -2.9553  -2.9550
    -2.8090  -2.8080  -2.5331  -2.5315  -1.8466  -1.8462  -1.6582  -1.6578
    -1.3694  -1.3691  -0.9780  -0.9767  -0.4781  -0.4778  -0.4262  -0.4255
    -0.3374  -0.3360  -0.1737  -0.1735   0.3979   0.3990   0.6186   0.6194
     0.7280   0.7286   0.9211   0.9222   1.4942   1.4944   1.7383   1.7385
     4.4476   4.4478   4.7849   4.7851   6.3612   6.3618   6.5129   6.5136
     7.6294   7.6301   7.8655   7.8662   8.5450   8.5454   8.7136   8.7142
     8.8926   8.8929   9.2096

          k = 0.2500-0.1841 0.2073 ( 57332 PWs)   bands (ev):

   -22.4999 -22.4998 -22.4959 -22.4957 -18.8912 -18.8900 -18.7877 -18.7863
   -16.4626 -16.4607 -16.3688 -16.3671 -15.6830 -15.6827 -15.5878 -15.5873
   -14.9975 -14.9970 -14.9817 -14.9811 -13.6995 -13.6992 -13.6111 -13.6106
    -9.8062  -9.8060  -9.6351  -9.6346  -8.6026  -8.6024  -8.3756  -8.3747
    -7.7883  -7.7881  -7.6164  -7.6162  -6.5390  -6.5388  -6.4298  -6.4294
    -5.9026  -5.9016  -5.7676  -5.7665  -5.5831  -5.5827  -5.3026  -5.3024
    -5.0776  -5.0774  -4.9304  -4.9299  -4.6179  -4.6160  -4.4518  -4.4515
    -3.6441  -3.6437  -3.3602  -3.3597  -3.1785  -3.1781  -3.0624  -3.0619
    -2.8494  -2.8489  -2.5292  -2.5278  -1.7569  -1.7563  -1.6678  -1.6672
    -1.3867  -1.3866  -0.9667  -0.9656  -0.4743  -0.4739  -0.3757  -0.3749
    -0.3232  -0.3229  -0.2049  -0.2047   0.3918   0.3931   0.6242   0.6251
     0.7406   0.7412   0.9236   0.9246   1.5338   1.5343   1.6858   1.6863
     4.5347   4.5349   4.6876   4.6879   6.3785   6.3793   6.4980   6.4989
     7.5709   7.5716   7.8975   7.8980   8.6634   8.6643   8.7069   8.7085
     8.7923   8.7925   9.2211

          k = 0.2500-0.1841-0.1893 ( 57338 PWs)   bands (ev):

   -22.5007 -22.5006 -22.4950 -22.4949 -18.8910 -18.8898 -18.7876 -18.7862
   -16.4652 -16.4634 -16.3665 -16.3649 -15.6863 -15.6860 -15.5851 -15.5846
   -15.0093 -15.0091 -14.9688 -14.9686 -13.6960 -13.6957 -13.6136 -13.6130
    -9.8098  -9.8096  -9.6329  -9.6326  -8.6004  -8.6002  -8.3781  -8.3772
    -7.7877  -7.7874  -7.6166  -7.6163  -6.5447  -6.5441  -6.4257  -6.4252
    -5.9103  -5.9094  -5.7752  -5.7741  -5.5553  -5.5549  -5.2968  -5.2964
    -5.1301  -5.1299  -4.9074  -4.9071  -4.6150  -4.6131  -4.4476  -4.4472
    -3.6581  -3.6578  -3.3310  -3.3305  -3.1729  -3.1726  -3.0354  -3.0351
    -2.8784  -2.8780  -2.5306  -2.5293  -1.7617  -1.7611  -1.6628  -1.6623
    -1.3794  -1.3792  -0.9710  -0.9698  -0.4730  -0.4726  -0.4038  -0.4032
    -0.2941  -0.2931  -0.2142  -0.2138   0.3965   0.3977   0.6226   0.6234
     0.7336   0.7343   0.9220   0.9230   1.4978   1.4981   1.7022   1.7026
     4.5210   4.5210   4.7089   4.7091   6.3768   6.3776   6.4932   6.4941
     7.6293   7.6297   8.0604   8.0610   8.4731   8.4742   8.6877   8.6885
     8.9440   8.9451   9.1869

          k =-0.5000 0.0000-0.0180 ( 57262 PWs)   bands (ev):

   -22.4983 -22.4982 -22.4907 -22.4897 -18.8781 -18.8696 -18.7768 -18.7703
   -16.4713 -16.4612 -16.3801 -16.3631 -15.7573 -15.7074 -15.6243 -15.5753
   -15.0599 -14.9965 -14.9784 -14.9437 -13.7063 -13.6823 -13.6673 -13.5865
    -9.8697  -9.7499  -9.6657  -9.5776  -8.6021  -8.5275  -8.4223  -8.3534
    -7.8664  -7.7500  -7.6542  -7.5235  -6.5827  -6.4667  -6.4525  -6.2747
    -5.8907  -5.8871  -5.8316  -5.7553  -5.4846  -5.4563  -5.3950  -5.3340
    -5.1473  -5.1081  -5.0061  -4.9974  -4.8778  -4.8681  -4.5053  -4.1651
    -3.6749  -3.5466  -3.5274  -3.4684  -3.2430  -3.1065  -2.9891  -2.9850
    -2.9617  -2.7502  -2.6857  -2.5186  -1.7728  -1.6988  -1.5303  -1.4748
    -1.3572  -1.2584  -1.1303  -0.8423  -0.6002  -0.5029  -0.4073  -0.3906
    -0.3766  -0.3453  -0.1639  -0.1127   0.5448   0.5861   0.6978   0.7641
     0.7714   0.7903   0.9359   0.9905   1.5602   1.5977   1.6930   1.8143
     4.4027   4.5122   4.7070   4.8668   6.1297   6.1318   6.4415   6.6958
     7.5906   7.6794   8.0066   8.0312   8.4566   8.4816   8.5606   8.8428
     8.9028   9.0631   9.2097

          k =-0.5000 0.0000 0.1804 ( 57284 PWs)   bands (ev):

   -22.4966 -22.4959 -22.4927 -22.4917 -18.8759 -18.8716 -18.7753 -18.7718
   -16.4701 -16.4649 -16.3765 -16.3679 -15.7471 -15.7234 -15.6074 -15.5842
   -15.0483 -15.0206 -14.9606 -14.9473 -13.7035 -13.6905 -13.6435 -13.6040
    -9.8498  -9.7957  -9.6301  -9.5919  -8.5829  -8.5457  -8.4057  -8.3712
    -7.8393  -7.7809  -7.6221  -7.5571  -6.5639  -6.5048  -6.3984  -6.3097
    -5.8891  -5.8870  -5.8242  -5.7857  -5.4466  -5.4203  -5.2987  -5.2333
    -5.1018  -5.0936  -5.0751  -5.0400  -4.9927  -4.9438  -4.4072  -4.2351
    -3.6706  -3.6095  -3.5398  -3.5224  -3.2259  -3.1180  -3.0965  -3.0533
    -2.8831  -2.7763  -2.6359  -2.5544  -1.6559  -1.5946  -1.5395  -1.4896
    -1.3290  -1.2789  -1.0570  -0.9058  -0.5468  -0.4894  -0.4433  -0.4149
    -0.3091  -0.2857  -0.2226  -0.1561   0.5502   0.5693   0.7321   0.7705
     0.7782   0.7875   0.9511   0.9791   1.5677   1.6364   1.6474   1.7549
     4.4786   4.6025   4.6299   4.7794   6.1308   6.1314   6.5125   6.6396
     7.5808   7.6146   8.0686   8.0774   8.4283   8.4638   8.6785   8.7948
     8.9151   9.0724   9.1688

          k =-0.5000-0.1841-0.0180 ( 57268 PWs)   bands (ev):

   -22.4983 -22.4983 -22.4902 -22.4902 -18.8746 -18.8734 -18.7740 -18.7726
   -16.4661 -16.4642 -16.3738 -16.3721 -15.7267 -15.7264 -15.6111 -15.6106
   -14.9992 -14.9986 -14.9844 -14.9839 -13.7083 -13.7081 -13.6140 -13.6136
    -9.7943  -9.7942  -9.6429  -9.6425  -8.5959  -8.5959  -8.3627  -8.3618
    -7.7676  -7.7674  -7.6034  -7.6033  -6.5170  -6.5168  -6.3855  -6.3854
    -5.9057  -5.9047  -5.7815  -5.7802  -5.5344  -5.5344  -5.3617  -5.3617
    -5.2839  -5.2838  -4.9002  -4.9000  -4.6053  -4.6035  -4.4392  -4.4388
    -3.6888  -3.6884  -3.4368  -3.4365  -3.2366  -3.2362  -2.9701  -2.9699
    -2.8892  -2.8891  -2.5689  -2.5679  -1.7421  -1.7417  -1.4981  -1.4977
    -1.3525  -1.3523  -0.9488  -0.9478  -0.5004  -0.5002  -0.4012  -0.4011
    -0.3719  -0.3714  -0.1331  -0.1329   0.5629   0.5644   0.7270   0.7274
     0.7768   0.7776   0.9461   0.9472   1.5673   1.5675   1.7679   1.7680
     4.4535   4.4537   4.7752   4.7754   6.2557   6.2563   6.4391   6.4398
     7.6411   7.6414   8.0032   8.0041   8.4956   8.4957   8.6889   8.6892
     8.9901   8.9904   9.2368

          k =-0.5000-0.1841 0.1804 ( 57286 PWs)   bands (ev):

   -22.4963 -22.4962 -22.4922 -22.4921 -18.8745 -18.8732 -18.7741 -18.7728
   -16.4671 -16.4652 -16.3746 -16.3730 -15.7263 -15.7260 -15.6103 -15.6098
   -14.9983 -14.9976 -14.9847 -14.9842 -13.7031 -13.7028 -13.6187 -13.6182
    -9.7961  -9.7959  -9.6437  -9.6434  -8.5930  -8.5927  -8.3670  -8.3661
    -7.7343  -7.7340  -7.6375  -7.6373  -6.5065  -6.5056  -6.3944  -6.3938
    -5.9098  -5.9087  -5.8036  -5.8024  -5.4957  -5.4954  -5.2949  -5.2946
    -5.2235  -5.2232  -5.0135  -5.0132  -4.6147  -4.6125  -4.4466  -4.4462
    -3.6718  -3.6712  -3.5216  -3.5212  -3.2077  -3.2074  -3.0864  -3.0862
    -2.8279  -2.8274  -2.5843  -2.5830  -1.6332  -1.6326  -1.5106  -1.5100
    -1.3282  -1.3279  -0.9617  -0.9604  -0.4799  -0.4795  -0.4170  -0.4160
    -0.3076  -0.3070  -0.1870  -0.1867   0.5564   0.5579   0.7549   0.7553
     0.7740   0.7746   0.9461   0.9470   1.5790   1.5795   1.7254   1.7258
     4.5322   4.5324   4.6984   4.6988   6.2836   6.2844   6.4165   6.4174
     7.6067   7.6069   8.0518   8.0530   8.5257   8.5259   8.6588   8.6593
     9.0170   9.0174   9.2146

     highest occupied, lowest unoccupied level (ev):     1.8143    4.4027

!    total energy              =   -1024.72839279 Ry
     Harris-Foulkes estimate   =   -1024.72839279 Ry
     estimated scf accuracy    <          5.0E-09 Ry

     total all-electron energy =     -3889.453498 Ry

     The total energy is the sum of the following terms:

     one-electron contribution =    -464.13782244 Ry
     hartree contribution      =     312.11380944 Ry
     xc contribution           =    -206.67879282 Ry
     ewald contribution        =    -377.28107047 Ry
     Dispersion Correction     =      -0.25100791 Ry
     one-center paw contrib.   =    -288.49350859 Ry

     convergence has been achieved in  15 iterations

     Forces acting on atoms (cartesian axes, Ry/au):

     atom    1 type  4   force =     0.00138608    0.00073241   -0.00923030
     atom    2 type  4   force =    -0.00136438    0.00074205    0.00925160
     atom    3 type  4   force =    -0.00138608   -0.00073241    0.00923030
     atom    4 type  4   force =     0.00136438   -0.00074205   -0.00925160
     atom    5 type  2   force =     0.00236012    0.00213944    0.00442748
     atom    6 type  2   force =    -0.00222651    0.00212255   -0.00432450
     atom    7 type  2   force =    -0.00236012   -0.00213944   -0.00442748
     atom    8 type  2   force =     0.00222651   -0.00212255    0.00432450
     atom    9 type  1   force =    -0.00689235    0.00544792   -0.00054425
     atom   10 type  1   force =     0.00681493    0.00553957    0.00039253
     atom   11 type  1   force =     0.00689235   -0.00544792    0.00054425
     atom   12 type  1   force =    -0.00681493   -0.00553957   -0.00039253
     atom   13 type  1   force =     0.01379469    0.00200198   -0.00262607
     atom   14 type  1   force =    -0.01445381    0.00179857    0.00190285
     atom   15 type  1   force =    -0.01379469   -0.00200198    0.00262607
     atom   16 type  1   force =     0.01445381   -0.00179857   -0.00190285
     atom   17 type  2   force =    -0.01386354   -0.00028919    0.00536702
     atom   18 type  2   force =     0.01393737   -0.00030333   -0.00525156
     atom   19 type  2   force =     0.01386354    0.00028919   -0.00536702
     atom   20 type  2   force =    -0.01393737    0.00030333    0.00525156
     atom   21 type  4   force =     0.00741827   -0.00196557    0.00936802
     atom   22 type  4   force =    -0.00746019   -0.00191254   -0.00939517
     atom   23 type  4   force =    -0.00741827    0.00196557   -0.00936802
     atom   24 type  4   force =     0.00746019    0.00191254    0.00939517
     atom   25 type  2   force =    -0.00909207   -0.00141936   -0.00563236
     atom   26 type  2   force =     0.00827975   -0.00141866    0.00524766
     atom   27 type  2   force =     0.00909207    0.00141936    0.00563236
     atom   28 type  2   force =    -0.00827975    0.00141866   -0.00524766
     atom   29 type  3   force =     0.00007688   -0.00030677    0.00093123
     atom   30 type  3   force =     0.00000317   -0.00041250   -0.00087476
     atom   31 type  3   force =    -0.00007688    0.00030677   -0.00093123
     atom   32 type  3   force =    -0.00000317    0.00041250    0.00087476
     atom   33 type  3   force =    -0.00115964    0.00104413   -0.00204704
     atom   34 type  3   force =     0.00161060    0.00094761    0.00221460
     atom   35 type  3   force =     0.00115964   -0.00104413    0.00204704
     atom   36 type  3   force =    -0.00161060   -0.00094761   -0.00221460
     atom   37 type  1   force =     0.00062474   -0.00242167   -0.00627754
     atom   38 type  1   force =    -0.00027328   -0.00232245    0.00647923
     atom   39 type  1   force =    -0.00062474    0.00242167    0.00627754
     atom   40 type  1   force =     0.00027328    0.00232245   -0.00647923
     atom   41 type  2   force =     0.00256892   -0.00020840    0.00297723
     atom   42 type  2   force =    -0.00186967   -0.00019887   -0.00245296
     atom   43 type  2   force =    -0.00256892    0.00020840   -0.00297723
     atom   44 type  2   force =     0.00186967    0.00019887    0.00245296
     atom   45 type  3   force =     0.00056226    0.00012357    0.00026746
     atom   46 type  3   force =    -0.00064326    0.00002775   -0.00029811
     atom   47 type  3   force =    -0.00056226   -0.00012357   -0.00026746
     atom   48 type  3   force =     0.00064326   -0.00002775    0.00029811
     atom   49 type  3   force =     0.00092746   -0.00098511   -0.00018966
     atom   50 type  3   force =    -0.00110355   -0.00078848    0.00011136
     atom   51 type  3   force =    -0.00092746    0.00098511    0.00018966
     atom   52 type  3   force =     0.00110355    0.00078848   -0.00011136

     Total force =     0.061592     Total SCF correction =     0.000156


     Computing stress (Cartesian axis) and pressure

          total   stress  (Ry/bohr**3)                   (kbar)     P=   -9.52
  -0.00008900   0.00000044  -0.00003739        -13.09      0.06     -5.50
   0.00000044  -0.00003805   0.00000019          0.06     -5.60      0.03
  -0.00003739   0.00000019  -0.00006713         -5.50      0.03     -9.88


     Writing output data file scf.save
 
     init_run     :     21.26s CPU     21.70s WALL (       1 calls)
     electrons    :    594.46s CPU    623.66s WALL (       1 calls)
     forces       :      9.85s CPU      9.92s WALL (       1 calls)
     stress       :     49.18s CPU     49.34s WALL (       1 calls)

     Called by init_run:
     wfcinit      :     14.49s CPU     14.86s WALL (       1 calls)
     potinit      :      2.44s CPU      2.46s WALL (       1 calls)

     Called by electrons:
     c_bands      :    525.09s CPU    550.40s WALL (      15 calls)
     sum_band     :     61.84s CPU     65.45s WALL (      15 calls)
     v_of_rho     :      1.02s CPU      1.14s WALL (      16 calls)
     newd         :      2.28s CPU      2.33s WALL (      16 calls)
     PAW_pot      :      3.84s CPU      3.84s WALL (      16 calls)
     mix_rho      :      0.27s CPU      0.29s WALL (      15 calls)

     Called by c_bands:
     init_us_2    :      5.31s CPU      5.32s WALL (     462 calls)
     cegterg      :    505.24s CPU    530.50s WALL (     210 calls)

     Called by sum_band:
     sum_band:bec :      0.05s CPU      0.05s WALL (     210 calls)
     addusdens    :      2.41s CPU      2.45s WALL (      15 calls)

     Called by *egterg:
     h_psi        :    314.39s CPU    332.39s WALL (    1087 calls)
     s_psi        :     42.89s CPU     42.89s WALL (    1087 calls)
     g_psi        :      2.61s CPU      2.61s WALL (     863 calls)
     cdiaghg      :     36.82s CPU     36.82s WALL (    1073 calls)

     Called by h_psi:
     h_psi:pot    :    311.42s CPU    329.37s WALL (    1087 calls)
     h_psi:calbec :     40.14s CPU     40.36s WALL (    1087 calls)
     vloc_psi     :    228.49s CPU    246.21s WALL (    1087 calls)
     add_vuspsi   :     42.79s CPU     42.79s WALL (    1087 calls)

     General routines
     calbec       :     65.29s CPU     65.61s WALL (    1367 calls)
     fft          :      1.57s CPU      1.77s WALL (     232 calls)
     fftw         :    245.72s CPU    265.55s WALL (  162332 calls)
 
     Parallel routines
     fft_scatter  :     66.33s CPU     79.45s WALL (  162564 calls)
 
     PWSCF        : 11m21.65s CPU    11m53.04s WALL

 
   This run was terminated on:   0:46:53   4Nov2017            

=------------------------------------------------------------------------------=
   JOB DONE.
=------------------------------------------------------------------------------=
