
     Program PWSCF v.6.1 (svn rev. 13369) starts on 12Nov2017 at 10:24:27 

     This program is part of the open-source Quantum ESPRESSO suite
     for quantum simulation of materials; please cite
         "P. Giannozzi et al., J. Phys.:Condens. Matter 21 395502 (2009);
          URL http://www.quantum-espresso.org", 
     in publications or presentations arising from this work. More details at
     http://www.quantum-espresso.org/quote

     Parallel version (MPI), running on     8 processors
     R & G space division:  proc/nbgrp/npool/nimage =       8
     Waiting for input...
     Reading input from standard input

     Current dimensions of program PWSCF are:
     Max number of different atomic species (ntypx) = 10
     Max number of k-points (npk) =  40000
     Max angular momentum in pseudopotentials (lmaxx) =  3
               file C.pbe-n-kjpaw_psl.0.1.UPF: wavefunction(s)  2P renormalized
               file N.pbe-n-kjpaw_psl.0.1.UPF: wavefunction(s)  2P renormalized
               file H.pbe-kjpaw_psl.0.1.UPF: wavefunction(s)  1S renormalized
               file O.pbe-n-kjpaw_psl.0.1.UPF: wavefunction(s)  2P renormalized

     -------------------------------------
     Parameters for Dispersion Correction:
     -------------------------------------
       atom      VdW radius       C_6     

        C          2.744         60.710
        N          2.640         42.670
        H          1.892          4.857
        O          2.536         24.284

     Subspace diagonalization in iterative solution of the eigenvalue problem:
     a serial algorithm will be used

 
     Parallelization info
     --------------------
     sticks:   dense  smooth     PW     G-vecs:    dense   smooth      PW
     Min        1060    1060    279                77064    77064   10476
     Max        1061    1061    280                77065    77065   10479
     Sum        8481    8481   2239               616515   616515   83827
 


     bravais-lattice index     =            0
     lattice parameter (alat)  =      14.4753  a.u.
     unit-cell volume          =    4563.5087 (a.u.)^3
     number of atoms/cell      =           76
     number of atomic types    =            4
     number of electrons       =       232.00
     number of Kohn-Sham states=          139
     kinetic-energy cutoff     =     100.0000  Ry
     charge density cutoff     =     400.0000  Ry
     convergence threshold     =      1.0E-08
     mixing beta               =       0.5000
     number of iterations used =            8  plain     mixing
     Exchange-correlation      =  SLA  PW   PBX  PBC ( 1  4  3  4 0 0)

     celldm(1)=  14.475302  celldm(2)=   0.000000  celldm(3)=   0.000000
     celldm(4)=   0.000000  celldm(5)=   0.000000  celldm(6)=   0.000000

     crystal axes: (cart. coord. in units of alat)
               a(1) = (   1.000000   0.000000   0.000000 )  
               a(2) = (   0.000000   1.268930   0.000000 )  
               a(3) = (  -0.073560   0.000000   1.185710 )  

     reciprocal axes: (cart. coord. in units 2 pi/alat)
               b(1) = (  1.000000  0.000000  0.062039 )  
               b(2) = (  0.000000  0.788066  0.000000 )  
               b(3) = (  0.000000  0.000000  0.843377 )  


     PseudoPot. # 1 for  C read from file:
     /scratch/ahofstet/pseudo/C.pbe-n-kjpaw_psl.0.1.UPF
     MD5 check sum: 430fe95172b1e11ef3f8ed03bac87931
     Pseudo is Projector augmented-wave + core cor, Zval =  4.0
     Generated using "atomic" code by A. Dal Corso  v.5.0.99 svn rev. 10869
     Shape of augmentation charge: BESSEL
     Using radial grid of 1073 points,  4 beta functions with: 
                l(1) =   0
                l(2) =   0
                l(3) =   1
                l(4) =   1
     Q(r) pseudized with 0 coefficients 


     PseudoPot. # 2 for  N read from file:
     /scratch/ahofstet/pseudo/N.pbe-n-kjpaw_psl.0.1.UPF
     MD5 check sum: f73187c8b701007e77325f868c9291d7
     Pseudo is Projector augmented-wave + core cor, Zval =  5.0
     Generated using "atomic" code by A. Dal Corso  v.5.0.99 svn rev. 10869
     Shape of augmentation charge: PSQ
     Using radial grid of 1085 points,  4 beta functions with: 
                l(1) =   0
                l(2) =   0
                l(3) =   1
                l(4) =   1
     Q(r) pseudized with 0 coefficients 


     PseudoPot. # 3 for  H read from file:
     /scratch/ahofstet/pseudo/H.pbe-kjpaw_psl.0.1.UPF
     MD5 check sum: 94e484f906d9e9773b2f6e52662335b2
     Pseudo is Projector augmented-wave, Zval =  1.0
     Generated using "atomic" code by A. Dal Corso  v.5.0.99 svn rev. 10869
     Shape of augmentation charge: PSQ
     Using radial grid of  929 points,  2 beta functions with: 
                l(1) =   0
                l(2) =   0
     Q(r) pseudized with 0 coefficients 


     PseudoPot. # 4 for  O read from file:
     /scratch/ahofstet/pseudo/O.pbe-n-kjpaw_psl.0.1.UPF
     MD5 check sum: 3f94a2996a3169367d6eb21d9b593f20
     Pseudo is Projector augmented-wave + core cor, Zval =  6.0
     Generated using "atomic" code by A. Dal Corso  v.5.0.99 svn rev. 10869
     Shape of augmentation charge: BESSEL
     Using radial grid of 1095 points,  4 beta functions with: 
                l(1) =   0
                l(2) =   0
                l(3) =   1
                l(4) =   1
     Q(r) pseudized with 0 coefficients 


     atomic species   valence    mass     pseudopotential
        C              4.00    12.01070      C( 1.00)
        N              5.00    14.00670      N( 1.00)
        H              1.00     1.00794      H( 1.00)
        O              6.00    15.99940      O( 1.00)

      4 Sym. Ops., with inversion, found ( 2 have fractional translation)



   Cartesian axes

     site n.     atom                  positions (alat units)
         1           O   tau(   1) = (   0.2816667   0.7376601   0.5861364  )
         2           O   tau(   2) = (   0.1815534   0.1031953   0.0067186  )
         3           O   tau(   3) = (   0.6447735   0.5312694   0.5995735  )
         4           O   tau(   4) = (   0.7448869   1.1657342   1.1789914  )
         5           O   tau(   5) = (   0.1801002   0.5824353   0.2795669  )
         6           O   tau(   6) = (   0.2831199   1.2169000   0.3132881  )
         7           O   tau(   7) = (   0.7463400   0.6864943   0.9061431  )
         8           O   tau(   8) = (   0.6433203   0.0520295   0.8724219  )
         9           N   tau(   9) = (   0.2578351   0.5763057   0.5679263  )
        10           N   tau(  10) = (   0.2053850   1.2107704   0.0249287  )
        11           N   tau(  11) = (   0.6686051   0.6926238   0.6177836  )
        12           N   tau(  12) = (   0.7210552   0.0581591   1.1607813  )
        13           N   tau(  13) = (   0.2100021   0.5007987   0.4196788  )
        14           N   tau(  14) = (   0.2532180   1.1352635   0.1731762  )
        15           N   tau(  15) = (   0.7164381   0.7681308   0.7660312  )
        16           N   tau(  16) = (   0.6732222   0.1336660   1.0125338  )
        17           C   tau(  17) = (   0.2534942   0.4390765   0.7067336  )
        18           C   tau(  18) = (   0.1361661   1.0735412   1.0718314  )
        19           C   tau(  19) = (   0.6729460   0.8298530   0.4789764  )
        20           C   tau(  20) = (   0.7902741   0.1953883   0.1138786  )
        21           C   tau(  21) = (   0.0611463   0.3900233   0.7388866  )
        22           C   tau(  22) = (   0.3285140   1.0244881   1.0396783  )
        23           C   tau(  23) = (   0.8652939   0.8789062   0.4468233  )
        24           C   tau(  24) = (   0.5979262   0.2444414   0.1460317  )
        25           C   tau(  25) = (   0.0074076   0.3040487   0.5682556  )
        26           C   tau(  26) = (   0.4558125   0.9385135   0.0245994  )
        27           C   tau(  27) = (   0.9190326   0.9648808   0.6174543  )
        28           C   tau(  28) = (   0.4706277   0.3304160   1.1611106  )
        29           C   tau(  29) = (   0.1741262   0.3131308   0.4567664  )
        30           C   tau(  30) = (   0.2890939   0.9475955   0.1360886  )
        31           C   tau(  31) = (   0.7523140   0.9557987   0.7289436  )
        32           C   tau(  32) = (   0.6373463   0.3213340   1.0496214  )
        33           C   tau(  33) = (   0.3073645   0.2738501   0.6038018  )
        34           C   tau(  34) = (   0.0822958   0.9083148   1.1747631  )
        35           C   tau(  35) = (   0.6190757   0.9950794   0.5819081  )
        36           C   tau(  36) = (   0.8441444   0.3606147   0.0109469  )
        37           C   tau(  37) = (   0.2311877   0.1212852   0.7058805  )
        38           C   tau(  38) = (   0.1584726   0.7557500   1.0726844  )
        39           C   tau(  39) = (   0.6952525   1.1476443   0.4798294  )
        40           C   tau(  40) = (   0.7679676   0.5131795   0.1130255  )
        41           C   tau(  41) = (   0.0471418   0.1926881   0.7267345  )
        42           C   tau(  42) = (   0.3425185   0.8271529   1.0518304  )
        43           C   tau(  43) = (   0.8792984   1.0762414   0.4589754  )
        44           C   tau(  44) = (   0.5839217   0.4417766   0.1338795  )
        45           H   tau(  45) = (   0.3338253   0.4816967   0.8166115  )
        46           H   tau(  46) = (   0.0558350   1.1161615   0.9619534  )
        47           H   tau(  47) = (   0.5926149   0.7872328   0.3690984  )
        48           H   tau(  48) = (   0.8706052   0.1527680   0.2237565  )
        49           H   tau(  49) = (  -0.0283098   0.4722571   0.8126841  )
        50           H   tau(  50) = (   0.4179701   1.1067219   0.9658809  )
        51           H   tau(  51) = (   0.9547500   0.7966724   0.3730259  )
        52           H   tau(  52) = (   0.5084701   0.1622076   0.2198291  )
        53           H   tau(  53) = (   0.8771407   0.3231344   0.5153262  )
        54           H   tau(  54) = (   0.5860794   0.9575992   0.0775288  )
        55           H   tau(  55) = (   0.0492995   0.9457951   0.6703838  )
        56           H   tau(  56) = (   0.3403608   0.3113303   1.1081812  )
        57           H   tau(  57) = (   0.1813266   0.2378083   0.3356043  )
        58           H   tau(  58) = (   0.2818935   0.8722730   0.2572507  )
        59           H   tau(  59) = (   0.7451136   1.0311212   0.8501057  )
        60           H   tau(  60) = (   0.6445467   0.3966565   0.9284593  )
        61           H   tau(  61) = (   0.4441235   0.2686693   0.5645625  )
        62           H   tau(  62) = (   0.0190966   0.9031341   0.0282925  )
        63           H   tau(  63) = (   0.4823167   1.0002602   0.6211475  )
        64           H   tau(  64) = (   0.9073436   0.3657954   1.1574175  )
        65           H   tau(  65) = (   0.2982807   0.1032556   0.8313669  )
        66           H   tau(  66) = (   0.0913796   0.7377203   0.9471980  )
        67           H   tau(  67) = (   0.6281595   1.1656739   0.3543430  )
        68           H   tau(  68) = (   0.8350606   0.5312092   0.2385120  )
        69           H   tau(  69) = (   0.2363353  -0.0006626   0.6305147  )
        70           H   tau(  70) = (   0.1533250   0.6338021   1.1480502  )
        71           H   tau(  71) = (   0.6901049   1.2695921   0.5551952  )
        72           H   tau(  72) = (   0.7731152   0.6351274   0.0376598  )
        73           H   tau(  73) = (  -0.0564642   0.1219305   0.7930393  )
        74           H   tau(  74) = (   0.4461245   0.7563952   0.9855256  )
        75           H   tau(  75) = (  -0.0170956   1.1469990   0.3926706  )
        76           H   tau(  76) = (   0.4803157   0.5125343   0.2001843  )

     number of k points=     8
                       cart. coord. in units 2pi/alat
        k(    1) = (   0.0000000   0.0000000   0.0000000), wk =   0.1666667
        k(    2) = (   0.0000000   0.0000000  -0.4216883), wk =   0.1666667
        k(    3) = (   0.0000000  -0.3940329   0.0000000), wk =   0.1666667
        k(    4) = (   0.0000000  -0.3940329  -0.4216883), wk =   0.1666667
        k(    5) = (   0.3333333   0.0000000   0.0206795), wk =   0.3333333
        k(    6) = (   0.3333333   0.0000000  -0.4010087), wk =   0.3333333
        k(    7) = (   0.3333333  -0.3940329   0.0206795), wk =   0.3333333
        k(    8) = (   0.3333333  -0.3940329  -0.4010087), wk =   0.3333333

     Dense  grid:   616515 G-vectors     FFT dimensions: (  96, 120, 120)

     Estimated max dynamical RAM per process >     465.01MB

     Estimated total allocated dynamical RAM >    3720.11MB

     Check: negative/imaginary core charge=   -0.000002    0.000000

     Initial potential from superposition of free atoms

     starting charge  231.99846, renormalised to  232.00000
     Starting wfc are  208 randomized atomic wfcs
     Checking if some PAW data can be deallocated... 

     total cpu time spent up to now is       27.7 secs

     per-process dynamical memory:   330.8 Mb

     Self-consistent Calculation

     iteration #  1     ecut=   100.00 Ry     beta=0.50
     Davidson diagonalization with overlap
     ethr =  1.00E-02,  avg # of iterations =  3.6

     total cpu time spent up to now is       93.7 secs

     total energy              =   -1110.59199576 Ry
     Harris-Foulkes estimate   =   -1114.50978706 Ry
     estimated scf accuracy    <       7.40179144 Ry

     iteration #  2     ecut=   100.00 Ry     beta=0.50
     Davidson diagonalization with overlap
     ethr =  3.19E-03,  avg # of iterations =  3.0

     total cpu time spent up to now is      132.7 secs

     total energy              =   -1111.30270898 Ry
     Harris-Foulkes estimate   =   -1111.99535515 Ry
     estimated scf accuracy    <       1.42482417 Ry

     iteration #  3     ecut=   100.00 Ry     beta=0.50
     Davidson diagonalization with overlap
     ethr =  6.14E-04,  avg # of iterations =  6.6

     total cpu time spent up to now is      209.7 secs

     total energy              =   -1111.95452959 Ry
     Harris-Foulkes estimate   =   -1112.34167295 Ry
     estimated scf accuracy    <       0.97668422 Ry

     iteration #  4     ecut=   100.00 Ry     beta=0.50
     Davidson diagonalization with overlap
     ethr =  4.21E-04,  avg # of iterations =  2.0

     total cpu time spent up to now is      244.1 secs

     total energy              =   -1111.95670994 Ry
     Harris-Foulkes estimate   =   -1112.05610372 Ry
     estimated scf accuracy    <       0.17838605 Ry

     iteration #  5     ecut=   100.00 Ry     beta=0.50
     Davidson diagonalization with overlap
     ethr =  7.69E-05,  avg # of iterations =  6.2

     total cpu time spent up to now is      320.3 secs

     total energy              =   -1112.08089529 Ry
     Harris-Foulkes estimate   =   -1112.17475717 Ry
     estimated scf accuracy    <       0.41400253 Ry

     iteration #  6     ecut=   100.00 Ry     beta=0.50
     Davidson diagonalization with overlap
     ethr =  7.69E-05,  avg # of iterations =  2.0

     total cpu time spent up to now is      355.1 secs

     total energy              =   -1112.06034944 Ry
     Harris-Foulkes estimate   =   -1112.11850629 Ry
     estimated scf accuracy    <       0.13204761 Ry

     iteration #  7     ecut=   100.00 Ry     beta=0.50
     Davidson diagonalization with overlap
     ethr =  5.69E-05,  avg # of iterations =  3.4

     total cpu time spent up to now is      398.0 secs

     total energy              =   -1112.08564578 Ry
     Harris-Foulkes estimate   =   -1112.08643665 Ry
     estimated scf accuracy    <       0.00190661 Ry

     iteration #  8     ecut=   100.00 Ry     beta=0.50
     Davidson diagonalization with overlap
     ethr =  8.22E-07,  avg # of iterations =  5.0

     total cpu time spent up to now is      484.8 secs

     total energy              =   -1112.08907411 Ry
     Harris-Foulkes estimate   =   -1112.08981013 Ry
     estimated scf accuracy    <       0.00202278 Ry

     iteration #  9     ecut=   100.00 Ry     beta=0.50
     Davidson diagonalization with overlap
     ethr =  8.22E-07,  avg # of iterations =  7.0

     total cpu time spent up to now is      521.6 secs

     total energy              =   -1112.08910893 Ry
     Harris-Foulkes estimate   =   -1112.08923729 Ry
     estimated scf accuracy    <       0.00029864 Ry

     iteration # 10     ecut=   100.00 Ry     beta=0.50
     Davidson diagonalization with overlap
     ethr =  1.29E-07,  avg # of iterations =  6.4

     total cpu time spent up to now is      590.0 secs

     total energy              =   -1112.08931783 Ry
     Harris-Foulkes estimate   =   -1112.08937240 Ry
     estimated scf accuracy    <       0.00015507 Ry

     iteration # 11     ecut=   100.00 Ry     beta=0.50
     Davidson diagonalization with overlap
     ethr =  6.68E-08,  avg # of iterations =  1.1

     total cpu time spent up to now is      622.8 secs

     total energy              =   -1112.08930302 Ry
     Harris-Foulkes estimate   =   -1112.08932535 Ry
     estimated scf accuracy    <       0.00004494 Ry

     iteration # 12     ecut=   100.00 Ry     beta=0.50
     Davidson diagonalization with overlap
     ethr =  1.94E-08,  avg # of iterations =  4.0

     total cpu time spent up to now is      681.9 secs

     total energy              =   -1112.08933097 Ry
     Harris-Foulkes estimate   =   -1112.08933629 Ry
     estimated scf accuracy    <       0.00001864 Ry

     iteration # 13     ecut=   100.00 Ry     beta=0.50
     Davidson diagonalization with overlap
     ethr =  8.04E-09,  avg # of iterations =  1.0

     total cpu time spent up to now is      714.6 secs

     total energy              =   -1112.08932680 Ry
     Harris-Foulkes estimate   =   -1112.08933147 Ry
     estimated scf accuracy    <       0.00000860 Ry

     iteration # 14     ecut=   100.00 Ry     beta=0.50
     Davidson diagonalization with overlap
     ethr =  3.71E-09,  avg # of iterations =  3.0

     total cpu time spent up to now is      768.1 secs

     total energy              =   -1112.08933058 Ry
     Harris-Foulkes estimate   =   -1112.08933131 Ry
     estimated scf accuracy    <       0.00000173 Ry

     iteration # 15     ecut=   100.00 Ry     beta=0.50
     Davidson diagonalization with overlap
     ethr =  7.46E-10,  avg # of iterations =  1.4

     total cpu time spent up to now is      801.0 secs

     total energy              =   -1112.08933045 Ry
     Harris-Foulkes estimate   =   -1112.08933070 Ry
     estimated scf accuracy    <       0.00000041 Ry

     iteration # 16     ecut=   100.00 Ry     beta=0.50
     Davidson diagonalization with overlap
     ethr =  1.78E-10,  avg # of iterations =  4.0

     total cpu time spent up to now is      866.2 secs

     total energy              =   -1112.08933084 Ry
     Harris-Foulkes estimate   =   -1112.08933095 Ry
     estimated scf accuracy    <       0.00000040 Ry

     iteration # 17     ecut=   100.00 Ry     beta=0.50
     Davidson diagonalization with overlap
     ethr =  1.73E-10,  avg # of iterations =  1.0

     total cpu time spent up to now is      899.1 secs

     total energy              =   -1112.08933078 Ry
     Harris-Foulkes estimate   =   -1112.08933085 Ry
     estimated scf accuracy    <       0.00000021 Ry

     iteration # 18     ecut=   100.00 Ry     beta=0.50
     Davidson diagonalization with overlap
     ethr =  9.02E-11,  avg # of iterations =  3.0

     total cpu time spent up to now is      943.0 secs

     total energy              =   -1112.08933081 Ry
     Harris-Foulkes estimate   =   -1112.08933082 Ry
     estimated scf accuracy    <       0.00000001 Ry

     iteration # 19     ecut=   100.00 Ry     beta=0.50
     Davidson diagonalization with overlap
     ethr =  4.79E-12,  avg # of iterations =  4.0

     total cpu time spent up to now is     1011.6 secs

     End of self-consistent calculation

          k = 0.0000 0.0000 0.0000 ( 77019 PWs)   bands (ev):

   -22.8057 -22.8007 -22.7604 -22.7570 -20.3263 -20.3250 -20.2823 -20.2805
   -17.4662 -17.4428 -17.4315 -17.4023 -15.5095 -15.4628 -15.4523 -15.4496
   -12.3051 -12.3040 -12.2750 -12.2593 -12.2543 -12.2244 -12.2016 -12.1842
   -11.3048 -11.2505 -11.1774 -11.1683  -8.5422  -8.3779  -8.3503  -8.3218
    -8.3051  -8.2966  -8.2713  -8.2224  -7.6273  -7.4984  -7.3913  -7.2987
    -6.7951  -6.6948  -6.5944  -6.5608  -6.5218  -6.2775  -6.2279  -6.1778
    -6.0616  -6.0273  -5.9925  -5.7821  -5.6136  -5.5397  -5.3936  -5.3265
    -5.2186  -5.1795  -5.1642  -5.0656  -4.8567  -4.6397  -4.3915  -4.3683
    -3.9642  -3.9259  -3.8098  -3.8032  -3.5750  -3.5119  -3.4043  -3.2912
    -3.1928  -3.1579  -2.9978  -2.9218  -2.8688  -2.7889  -2.6635  -2.6429
    -2.1941  -2.1890  -2.1019  -2.0519  -2.0279  -1.9479  -1.8909  -1.8310
    -1.7085  -1.6696  -1.5876  -1.5537  -1.3279  -1.3106  -1.1497  -1.0235
    -0.3441  -0.2834  -0.2499  -0.2232  -0.2098  -0.1732  -0.0585  -0.0347
     0.2565   0.2957   0.3001   0.3131   0.6220   0.6244   0.7878   0.9300
     1.6624   1.7532   1.9458   2.0154   4.6624   4.7409   4.8325   4.8489
     6.8708   7.2260   7.4989   7.5261   7.5382   7.8976   8.0661   8.1322
     8.1876   8.2201   8.2440   8.5197   8.7205   8.7280   8.7696   8.7897
     8.8228   8.8911   8.9308

          k = 0.0000 0.0000-0.4217 ( 77048 PWs)   bands (ev):

   -22.8033 -22.8033 -22.7586 -22.7586 -20.3256 -20.3256 -20.2815 -20.2815
   -17.4583 -17.4583 -17.4131 -17.4131 -15.4819 -15.4819 -15.4551 -15.4551
   -12.2942 -12.2942 -12.2723 -12.2723 -12.2298 -12.2298 -12.2073 -12.2073
   -11.2577 -11.2577 -11.1950 -11.1950  -8.4821  -8.4821  -8.3344  -8.3344
    -8.3117  -8.3117  -8.2272  -8.2272  -7.5289  -7.5289  -7.3842  -7.3842
    -6.7268  -6.7268  -6.5659  -6.5659  -6.4108  -6.4108  -6.1631  -6.1631
    -6.0675  -6.0675  -5.8960  -5.8960  -5.4870  -5.4870  -5.3564  -5.3564
    -5.2396  -5.2396  -5.1957  -5.1957  -4.7109  -4.7109  -4.4786  -4.4786
    -4.0107  -4.0107  -3.7194  -3.7194  -3.4972  -3.4972  -3.3880  -3.3880
    -3.1574  -3.1574  -2.9044  -2.9044  -2.7723  -2.7723  -2.6984  -2.6984
    -2.1982  -2.1982  -2.0814  -2.0814  -1.9620  -1.9620  -1.9089  -1.9089
    -1.6357  -1.6357  -1.6091  -1.6091  -1.3058  -1.3058  -1.0876  -1.0876
    -0.3013  -0.3013  -0.2071  -0.2071  -0.1731  -0.1731  -0.1174  -0.1174
     0.2234   0.2234   0.3607   0.3607   0.5520   0.5520   0.9055   0.9055
     1.7038   1.7038   1.9769   1.9769   4.6962   4.6962   4.8502   4.8502
     7.1183   7.1183   7.4378   7.4378   7.6027   7.6027   8.1986   8.1986
     8.3405   8.3405   8.5534   8.5534   8.6202   8.6202   8.7174   8.7174
     8.9356   8.9356   9.1248

          k = 0.0000-0.3940 0.0000 ( 77070 PWs)   bands (ev):

   -22.8032 -22.8032 -22.7587 -22.7587 -20.3257 -20.3257 -20.2814 -20.2814
   -17.4572 -17.4572 -17.4143 -17.4143 -15.4801 -15.4801 -15.4570 -15.4570
   -12.3098 -12.3098 -12.2647 -12.2647 -12.2332 -12.2332 -12.1957 -12.1957
   -11.2451 -11.2451 -11.2082 -11.2082  -8.4343  -8.4343  -8.3486  -8.3486
    -8.3096  -8.3096  -8.2660  -8.2660  -7.5885  -7.5885  -7.3079  -7.3079
    -6.7977  -6.7977  -6.5429  -6.5429  -6.3125  -6.3125  -6.2596  -6.2596
    -5.9769  -5.9769  -5.9218  -5.9218  -5.4989  -5.4989  -5.4239  -5.4239
    -5.2708  -5.2708  -5.0939  -5.0939  -4.7079  -4.7079  -4.4879  -4.4879
    -3.9619  -3.9619  -3.7660  -3.7660  -3.5665  -3.5665  -3.3343  -3.3343
    -3.1330  -3.1330  -2.9217  -2.9217  -2.8324  -2.8324  -2.7018  -2.7018
    -2.1899  -2.1899  -2.0972  -2.0972  -1.9275  -1.9275  -1.8464  -1.8464
    -1.7052  -1.7052  -1.5676  -1.5676  -1.3222  -1.3222  -1.0995  -1.0995
    -0.2739  -0.2739  -0.2054  -0.2054  -0.2012  -0.2012  -0.1071  -0.1071
     0.2606   0.2606   0.2857   0.2857   0.7192   0.7192   0.7867   0.7867
     1.6984   1.6984   1.9869   1.9869   4.7019   4.7019   4.8382   4.8382
     7.0595   7.0595   7.6552   7.6552   7.8334   7.8334   7.9155   7.9155
     8.2226   8.2226   8.3285   8.3285   8.4458   8.4458   8.7918   8.7918
     8.9935   8.9935   9.2425

          k = 0.0000-0.3940-0.4217 ( 77020 PWs)   bands (ev):

   -22.8032 -22.8032 -22.7587 -22.7587 -20.3256 -20.3256 -20.2815 -20.2815
   -17.4573 -17.4573 -17.4142 -17.4142 -15.4710 -15.4710 -15.4659 -15.4659
   -12.2908 -12.2908 -12.2725 -12.2725 -12.2231 -12.2231 -12.2172 -12.2172
   -11.2359 -11.2359 -11.2188 -11.2188  -8.4686  -8.4686  -8.3306  -8.3306
    -8.3004  -8.3004  -8.2596  -8.2596  -7.5395  -7.5395  -7.3636  -7.3636
    -6.7482  -6.7482  -6.5248  -6.5248  -6.3857  -6.3857  -6.2001  -6.2001
    -6.0583  -6.0583  -5.9357  -5.9357  -5.4127  -5.4127  -5.3860  -5.3860
    -5.3477  -5.3477  -5.1540  -5.1540  -4.6477  -4.6477  -4.4867  -4.4867
    -3.9311  -3.9311  -3.7914  -3.7914  -3.4554  -3.4554  -3.4268  -3.4268
    -3.1395  -3.1395  -2.8946  -2.8946  -2.8709  -2.8709  -2.7138  -2.7138
    -2.1376  -2.1376  -2.1184  -2.1184  -1.9433  -1.9433  -1.8898  -1.8898
    -1.6612  -1.6612  -1.5964  -1.5964  -1.2930  -1.2930  -1.1007  -1.1007
    -0.2653  -0.2653  -0.2120  -0.2120  -0.2004  -0.2004  -0.1334  -0.1334
     0.2840   0.2840   0.2900   0.2900   0.7188   0.7188   0.7698   0.7698
     1.7044   1.7044   1.9746   1.9746   4.7062   4.7062   4.8369   4.8369
     7.2143   7.2143   7.3101   7.3101   7.9912   7.9912   8.0758   8.0758
     8.4078   8.4078   8.4302   8.4302   8.5617   8.5617   8.7273   8.7273
     8.8924   8.8924   9.1518

          k = 0.3333 0.0000 0.0207 ( 77067 PWs)   bands (ev):

   -22.8024 -22.7997 -22.7619 -22.7599 -20.3271 -20.3265 -20.2807 -20.2798
   -17.4579 -17.4421 -17.4305 -17.4119 -15.5048 -15.4856 -15.4437 -15.4409
   -12.3168 -12.2963 -12.2753 -12.2640 -12.2573 -12.2274 -12.1983 -12.1762
   -11.2918 -11.2647 -11.1751 -11.1705  -8.5014  -8.4127  -8.3615  -8.3567
    -8.2958  -8.2869  -8.2618  -8.2340  -7.5463  -7.4515  -7.4243  -7.3581
    -6.7413  -6.6379  -6.5914  -6.5023  -6.4511  -6.3265  -6.2684  -6.1986
    -6.0527  -6.0327  -5.9687  -5.8517  -5.6479  -5.5703  -5.3638  -5.3196
    -5.2625  -5.2096  -5.1645  -5.1016  -4.8700  -4.7567  -4.3887  -4.3735
    -3.9479  -3.9289  -3.8018  -3.7957  -3.4892  -3.4639  -3.4232  -3.3572
    -3.0828  -3.0819  -2.9717  -2.8900  -2.8319  -2.8081  -2.7621  -2.6627
    -2.1939  -2.1133  -2.0924  -2.0623  -2.0473  -1.9686  -1.9457  -1.9131
    -1.7232  -1.6724  -1.6106  -1.5672  -1.3159  -1.2833  -1.1143  -1.0267
    -0.3144  -0.2952  -0.2782  -0.2393  -0.1856  -0.1822  -0.0515  -0.0402
     0.2505   0.2575   0.3243   0.3249   0.6153   0.6169   0.8257   0.8985
     1.7563   1.7703   1.8998   1.9626   4.6369   4.6649   4.8725   4.8915
     7.2174   7.3496   7.6570   7.6970   7.7683   7.8483   7.9335   8.0307
     8.1414   8.2833   8.2996   8.4395   8.6351   8.7060   8.7983   8.8670
     8.8916   8.9236   8.9697

          k = 0.3333 0.0000-0.4010 ( 77059 PWs)   bands (ev):

   -22.8027 -22.7993 -22.7625 -22.7593 -20.3273 -20.3263 -20.2811 -20.2795
   -17.4555 -17.4472 -17.4225 -17.4173 -15.4924 -15.4849 -15.4551 -15.4424
   -12.3059 -12.3024 -12.2974 -12.2826 -12.2223 -12.2183 -12.1952 -12.1832
   -11.2760 -11.2386 -11.2086 -11.1856  -8.4635  -8.4573  -8.3800  -8.3649
    -8.3141  -8.2636  -8.2509  -8.2270  -7.5737  -7.4456  -7.4195  -7.3454
    -6.7454  -6.6310  -6.5779  -6.5017  -6.4351  -6.3365  -6.2082  -6.1901
    -6.1410  -6.0112  -5.9601  -5.8702  -5.5296  -5.4865  -5.4448  -5.3358
    -5.2903  -5.2655  -5.1452  -5.1182  -4.7783  -4.6908  -4.5781  -4.3898
    -4.0837  -3.9748  -3.7841  -3.6869  -3.5434  -3.4339  -3.3895  -3.3202
    -3.0870  -3.0335  -2.9319  -2.8868  -2.8563  -2.8447  -2.7751  -2.7040
    -2.3023  -2.0886  -2.0682  -2.0270  -2.0069  -1.9709  -1.9358  -1.8693
    -1.7358  -1.6453  -1.5816  -1.5249  -1.3920  -1.2193  -1.1154  -1.0464
    -0.3450  -0.2518  -0.2126  -0.1888  -0.1879  -0.1553  -0.1250  -0.1169
     0.1809   0.2708   0.3362   0.3669   0.5272   0.5583   0.8985   0.9088
     1.7302   1.7839   1.8974   1.9643   4.6313   4.6771   4.8196   4.9480
     7.2740   7.4012   7.5083   7.6252   7.7389   7.8999   8.0627   8.0911
     8.1877   8.2544   8.3438   8.3835   8.3995   8.6539   8.7277   8.8055
     8.8602   8.9870   9.0081

          k = 0.3333-0.3940 0.0207 ( 77104 PWs)   bands (ev):

   -22.8010 -22.8010 -22.7610 -22.7610 -20.3268 -20.3268 -20.2803 -20.2803
   -17.4468 -17.4468 -17.4246 -17.4246 -15.4815 -15.4815 -15.4557 -15.4557
   -12.3075 -12.3075 -12.2743 -12.2743 -12.2216 -12.2216 -12.2031 -12.2031
   -11.2392 -11.2392 -11.2138 -11.2138  -8.4278  -8.4278  -8.3453  -8.3453
    -8.3161  -8.3161  -8.2712  -8.2712  -7.5190  -7.5190  -7.3739  -7.3739
    -6.7088  -6.7088  -6.5521  -6.5521  -6.3249  -6.3249  -6.2600  -6.2600
    -6.0083  -6.0083  -5.9550  -5.9550  -5.4752  -5.4752  -5.4124  -5.4124
    -5.2712  -5.2712  -5.1627  -5.1627  -4.6697  -4.6697  -4.5497  -4.5497
    -3.9721  -3.9721  -3.7749  -3.7749  -3.4697  -3.4697  -3.3769  -3.3769
    -3.0588  -3.0588  -2.9258  -2.9258  -2.8342  -2.8342  -2.7417  -2.7417
    -2.1550  -2.1550  -2.0594  -2.0594  -1.9649  -1.9649  -1.9327  -1.9327
    -1.7190  -1.7190  -1.5901  -1.5901  -1.2812  -1.2812  -1.0802  -1.0802
    -0.2764  -0.2764  -0.2283  -0.2283  -0.1751  -0.1751  -0.1147  -0.1147
     0.2641   0.2641   0.2837   0.2837   0.7237   0.7237   0.7807   0.7807
     1.7592   1.7592   1.9319   1.9319   4.6450   4.6450   4.8833   4.8833
     7.3321   7.3321   7.7515   7.7515   7.8056   7.8056   7.9535   7.9535
     8.2000   8.2000   8.3479   8.3479   8.6219   8.6219   8.7989   8.7989
     9.0300   9.0301   9.1492

          k = 0.3333-0.3940-0.4010 ( 77066 PWs)   bands (ev):

   -22.8010 -22.8010 -22.7609 -22.7609 -20.3268 -20.3268 -20.2803 -20.2803
   -17.4469 -17.4469 -17.4246 -17.4246 -15.4801 -15.4801 -15.4568 -15.4568
   -12.3117 -12.3117 -12.2660 -12.2660 -12.2321 -12.2321 -12.1952 -12.1952
   -11.2465 -11.2465 -11.2091 -11.2091  -8.4630  -8.4630  -8.3410  -8.3410
    -8.2847  -8.2847  -8.2642  -8.2642  -7.5285  -7.5285  -7.3668  -7.3668
    -6.6925  -6.6925  -6.5328  -6.5328  -6.3816  -6.3816  -6.2435  -6.2435
    -6.0937  -6.0937  -5.9013  -5.9013  -5.4516  -5.4516  -5.3945  -5.3945
    -5.3313  -5.3313  -5.1260  -5.1260  -4.6441  -4.6441  -4.4979  -4.4979
    -3.9879  -3.9879  -3.7765  -3.7765  -3.4930  -3.4930  -3.3519  -3.3519
    -3.0660  -3.0660  -2.9789  -2.9789  -2.9004  -2.9004  -2.7132  -2.7132
    -2.1851  -2.1851  -2.0613  -2.0613  -1.9379  -1.9379  -1.9183  -1.9183
    -1.7193  -1.7193  -1.5262  -1.5262  -1.3026  -1.3026  -1.0704  -1.0704
    -0.2787  -0.2787  -0.2073  -0.2073  -0.1798  -0.1798  -0.1391  -0.1391
     0.2708   0.2708   0.2989   0.2989   0.7190   0.7190   0.7632   0.7632
     1.7536   1.7536   1.9330   1.9330   4.6437   4.6437   4.8879   4.8879
     7.3857   7.3857   7.5720   7.5720   7.7885   7.7885   8.0297   8.0297
     8.3173   8.3173   8.5177   8.5177   8.5912   8.5912   8.8297   8.8297
     8.9405   8.9405   9.1378

     highest occupied, lowest unoccupied level (ev):     2.0154    4.6313

!    total energy              =   -1112.08933082 Ry
     Harris-Foulkes estimate   =   -1112.08933082 Ry
     estimated scf accuracy    <          8.3E-09 Ry

     total all-electron energy =     -4250.649580 Ry

     The total energy is the sum of the following terms:

     one-electron contribution =    -659.55221169 Ry
     hartree contribution      =     421.78055641 Ry
     xc contribution           =    -241.62024229 Ry
     ewald contribution        =    -303.74455804 Ry
     Dispersion Correction     =      -0.35079813 Ry
     one-center paw contrib.   =    -328.60207707 Ry

     convergence has been achieved in  19 iterations

     Forces acting on atoms (cartesian axes, Ry/au):

     atom    1 type  4   force =    -0.00030957   -0.00046887    0.00076030
     atom    2 type  4   force =     0.00030957   -0.00046887   -0.00076030
     atom    3 type  4   force =     0.00030957    0.00046887   -0.00076030
     atom    4 type  4   force =    -0.00030957    0.00046887    0.00076030
     atom    5 type  4   force =    -0.00039378   -0.00085111    0.00098436
     atom    6 type  4   force =     0.00039378   -0.00085111   -0.00098436
     atom    7 type  4   force =     0.00039378    0.00085111   -0.00098436
     atom    8 type  4   force =    -0.00039378    0.00085111    0.00098436
     atom    9 type  2   force =     0.00049406   -0.00062686   -0.00050661
     atom   10 type  2   force =    -0.00049406   -0.00062686    0.00050661
     atom   11 type  2   force =    -0.00049406    0.00062686    0.00050661
     atom   12 type  2   force =     0.00049406    0.00062686   -0.00050661
     atom   13 type  2   force =    -0.00000327    0.00040689   -0.00007255
     atom   14 type  2   force =     0.00000327    0.00040689    0.00007255
     atom   15 type  2   force =     0.00000327   -0.00040689    0.00007255
     atom   16 type  2   force =    -0.00000327   -0.00040689   -0.00007255
     atom   17 type  1   force =    -0.00031156    0.00025519    0.00054547
     atom   18 type  1   force =     0.00031156    0.00025519   -0.00054547
     atom   19 type  1   force =     0.00031156   -0.00025519   -0.00054547
     atom   20 type  1   force =    -0.00031156   -0.00025519    0.00054547
     atom   21 type  1   force =     0.00006630    0.00007019    0.00079956
     atom   22 type  1   force =    -0.00006630    0.00007019   -0.00079956
     atom   23 type  1   force =    -0.00006630   -0.00007019   -0.00079956
     atom   24 type  1   force =     0.00006630   -0.00007019    0.00079956
     atom   25 type  1   force =    -0.00024754   -0.00072051    0.00000768
     atom   26 type  1   force =     0.00024754   -0.00072051   -0.00000768
     atom   27 type  1   force =     0.00024754    0.00072051   -0.00000768
     atom   28 type  1   force =    -0.00024754    0.00072051    0.00000768
     atom   29 type  1   force =     0.00062444   -0.00047714   -0.00122530
     atom   30 type  1   force =    -0.00062444   -0.00047714    0.00122530
     atom   31 type  1   force =    -0.00062444    0.00047714    0.00122530
     atom   32 type  1   force =     0.00062444    0.00047714   -0.00122530
     atom   33 type  1   force =    -0.00125366    0.00042755    0.00024326
     atom   34 type  1   force =     0.00125366    0.00042755   -0.00024326
     atom   35 type  1   force =     0.00125366   -0.00042755   -0.00024326
     atom   36 type  1   force =    -0.00125366   -0.00042755    0.00024326
     atom   37 type  1   force =    -0.00189656    0.00146746   -0.00046167
     atom   38 type  1   force =     0.00189656    0.00146746    0.00046167
     atom   39 type  1   force =     0.00189656   -0.00146746    0.00046167
     atom   40 type  1   force =    -0.00189656   -0.00146746   -0.00046167
     atom   41 type  1   force =     0.00093390    0.00026564    0.00006798
     atom   42 type  1   force =    -0.00093390    0.00026564   -0.00006798
     atom   43 type  1   force =    -0.00093390   -0.00026564   -0.00006798
     atom   44 type  1   force =     0.00093390   -0.00026564    0.00006798
     atom   45 type  3   force =    -0.00011788    0.00014598    0.00014684
     atom   46 type  3   force =     0.00011788    0.00014598   -0.00014684
     atom   47 type  3   force =     0.00011788   -0.00014598   -0.00014684
     atom   48 type  3   force =    -0.00011788   -0.00014598    0.00014684
     atom   49 type  3   force =    -0.00016260   -0.00048646   -0.00000914
     atom   50 type  3   force =     0.00016260   -0.00048646    0.00000914
     atom   51 type  3   force =     0.00016260    0.00048646    0.00000914
     atom   52 type  3   force =    -0.00016260    0.00048646   -0.00000914
     atom   53 type  3   force =    -0.00078984   -0.00020912   -0.00004664
     atom   54 type  3   force =     0.00078984   -0.00020912    0.00004664
     atom   55 type  3   force =     0.00078984    0.00020912    0.00004664
     atom   56 type  3   force =    -0.00078984    0.00020912   -0.00004664
     atom   57 type  3   force =     0.00019920   -0.00044607    0.00025702
     atom   58 type  3   force =    -0.00019920   -0.00044607   -0.00025702
     atom   59 type  3   force =    -0.00019920    0.00044607   -0.00025702
     atom   60 type  3   force =     0.00019920    0.00044607    0.00025702
     atom   61 type  3   force =     0.00134851    0.00067144   -0.00058520
     atom   62 type  3   force =    -0.00134851    0.00067144    0.00058520
     atom   63 type  3   force =    -0.00134851   -0.00067144    0.00058520
     atom   64 type  3   force =     0.00134851   -0.00067144   -0.00058520
     atom   65 type  3   force =     0.00027366   -0.00068502   -0.00049367
     atom   66 type  3   force =    -0.00027366   -0.00068502    0.00049367
     atom   67 type  3   force =    -0.00027366    0.00068502    0.00049367
     atom   68 type  3   force =     0.00027366    0.00068502   -0.00049367
     atom   69 type  3   force =    -0.00050305    0.00056046    0.00005697
     atom   70 type  3   force =     0.00050305    0.00056046   -0.00005697
     atom   71 type  3   force =     0.00050305   -0.00056046   -0.00005697
     atom   72 type  3   force =    -0.00050305   -0.00056046    0.00005697
     atom   73 type  3   force =    -0.00091737   -0.00002472    0.00044891
     atom   74 type  3   force =     0.00091737   -0.00002472   -0.00044891
     atom   75 type  3   force =     0.00091737    0.00002472   -0.00044891
     atom   76 type  3   force =    -0.00091737    0.00002472    0.00044891

     Total force =     0.009518     Total SCF correction =     0.000243


     Computing stress (Cartesian axis) and pressure

          total   stress  (Ry/bohr**3)                   (kbar)     P=   -5.46
  -0.00002443   0.00000000  -0.00000872         -3.59      0.00     -1.28
   0.00000000  -0.00004269   0.00000000          0.00     -6.28      0.00
  -0.00000872   0.00000000  -0.00004432         -1.28      0.00     -6.52


     Writing output data file scf.save
 
     init_run     :     25.36s CPU     26.70s WALL (       1 calls)
     electrons    :    942.82s CPU    984.03s WALL (       1 calls)
     forces       :     13.21s CPU     13.34s WALL (       1 calls)
     stress       :     44.00s CPU     44.21s WALL (       1 calls)

     Called by init_run:
     wfcinit      :     18.20s CPU     19.16s WALL (       1 calls)
     potinit      :      2.63s CPU      2.65s WALL (       1 calls)

     Called by electrons:
     c_bands      :    846.08s CPU    880.97s WALL (      19 calls)
     sum_band     :     84.78s CPU     89.96s WALL (      19 calls)
     v_of_rho     :      1.66s CPU      1.86s WALL (      20 calls)
     newd         :      3.70s CPU      4.54s WALL (      20 calls)
     PAW_pot      :      6.08s CPU      6.08s WALL (      20 calls)
     mix_rho      :      0.39s CPU      0.44s WALL (      19 calls)

     Called by c_bands:
     init_us_2    :      5.06s CPU      5.08s WALL (     328 calls)
     cegterg      :    826.63s CPU    861.50s WALL (     152 calls)

     Called by sum_band:
     sum_band:bec :      0.06s CPU      0.06s WALL (     152 calls)
     addusdens    :      3.72s CPU      4.52s WALL (      19 calls)

     Called by *egterg:
     h_psi        :    462.03s CPU    489.54s WALL (     702 calls)
     s_psi        :     90.94s CPU     90.94s WALL (     702 calls)
     g_psi        :      2.60s CPU      2.60s WALL (     542 calls)
     cdiaghg      :     45.25s CPU     45.33s WALL (     694 calls)

     Called by h_psi:
     h_psi:pot    :    458.64s CPU    486.10s WALL (     702 calls)
     h_psi:calbec :     90.07s CPU     90.29s WALL (     702 calls)
     vloc_psi     :    277.61s CPU    304.86s WALL (     702 calls)
     add_vuspsi   :     90.96s CPU     90.95s WALL (     702 calls)

     General routines
     calbec       :    127.70s CPU    127.99s WALL (     894 calls)
     fft          :      1.13s CPU      1.70s WALL (     284 calls)
     fftw         :    297.29s CPU    326.59s WALL (  149376 calls)
 
     Parallel routines
     fft_scatter  :     79.61s CPU    101.67s WALL (  149660 calls)
 
     PWSCF        : 17m11.74s CPU    18m31.91s WALL

 
   This run was terminated on:  10:42:59  12Nov2017            

=------------------------------------------------------------------------------=
   JOB DONE.
=------------------------------------------------------------------------------=
