
     Program PWSCF v.6.1 (svn rev. 13369) starts on 18Dec2017 at 14:44:45 

     This program is part of the open-source Quantum ESPRESSO suite
     for quantum simulation of materials; please cite
         "P. Giannozzi et al., J. Phys.:Condens. Matter 21 395502 (2009);
          URL http://www.quantum-espresso.org", 
     in publications or presentations arising from this work. More details at
     http://www.quantum-espresso.org/quote

     Parallel version (MPI), running on     8 processors
     R & G space division:  proc/nbgrp/npool/nimage =       8
     Waiting for input...
     Reading input from standard input

     Current dimensions of program PWSCF are:
     Max number of different atomic species (ntypx) = 10
     Max number of k-points (npk) =  40000
     Max angular momentum in pseudopotentials (lmaxx) =  3
               file C.pbe-n-kjpaw_psl.0.1.UPF: wavefunction(s)  2P renormalized
               file N.pbe-n-kjpaw_psl.0.1.UPF: wavefunction(s)  2P renormalized
               file H.pbe-kjpaw_psl.0.1.UPF: wavefunction(s)  1S renormalized
               file O.pbe-n-kjpaw_psl.0.1.UPF: wavefunction(s)  2P renormalized

     -------------------------------------
     Parameters for Dispersion Correction:
     -------------------------------------
       atom      VdW radius       C_6     

        C          2.744         60.710
        N          2.640         42.670
        H          1.892          4.857
        O          2.536         24.284

     Subspace diagonalization in iterative solution of the eigenvalue problem:
     a serial algorithm will be used

 
     Parallelization info
     --------------------
     sticks:   dense  smooth     PW     G-vecs:    dense   smooth      PW
     Min        1805    1805    486               143293   143293   20023
     Max        1806    1806    487               143294   143294   20026
     Sum       14441   14441   3895              1146347  1146347  160201
 


     bravais-lattice index     =            0
     lattice parameter (alat)  =      48.8286  a.u.
     unit-cell volume          =    8484.0083 (a.u.)^3
     number of atoms/cell      =          140
     number of atomic types    =            4
     number of electrons       =       312.00
     number of Kohn-Sham states=          187
     kinetic-energy cutoff     =     100.0000  Ry
     charge density cutoff     =     400.0000  Ry
     convergence threshold     =      1.0E-08
     mixing beta               =       0.5000
     number of iterations used =            8  plain     mixing
     Exchange-correlation      =  SLA  PW   PBX  PBC ( 1  4  3  4 0 0)

     celldm(1)=  48.828634  celldm(2)=   0.000000  celldm(3)=   0.000000
     celldm(4)=   0.000000  celldm(5)=   0.000000  celldm(6)=   0.000000

     crystal axes: (cart. coord. in units of alat)
               a(1) = (   1.000000   0.000000   0.000000 )  
               a(2) = (   0.000000   0.190112   0.000000 )  
               a(3) = (  -0.060781   0.000000   0.383326 )  

     reciprocal axes: (cart. coord. in units 2 pi/alat)
               b(1) = (  1.000000  0.000000  0.158563 )  
               b(2) = (  0.000000  5.260061  0.000000 )  
               b(3) = (  0.000000  0.000000  2.608746 )  


     PseudoPot. # 1 for  C read from file:
     /scratch/ahofstet/pseudo/C.pbe-n-kjpaw_psl.0.1.UPF
     MD5 check sum: 430fe95172b1e11ef3f8ed03bac87931
     Pseudo is Projector augmented-wave + core cor, Zval =  4.0
     Generated using "atomic" code by A. Dal Corso  v.5.0.99 svn rev. 10869
     Shape of augmentation charge: BESSEL
     Using radial grid of 1073 points,  4 beta functions with: 
                l(1) =   0
                l(2) =   0
                l(3) =   1
                l(4) =   1
     Q(r) pseudized with 0 coefficients 


     PseudoPot. # 2 for  N read from file:
     /scratch/ahofstet/pseudo/N.pbe-n-kjpaw_psl.0.1.UPF
     MD5 check sum: f73187c8b701007e77325f868c9291d7
     Pseudo is Projector augmented-wave + core cor, Zval =  5.0
     Generated using "atomic" code by A. Dal Corso  v.5.0.99 svn rev. 10869
     Shape of augmentation charge: PSQ
     Using radial grid of 1085 points,  4 beta functions with: 
                l(1) =   0
                l(2) =   0
                l(3) =   1
                l(4) =   1
     Q(r) pseudized with 0 coefficients 


     PseudoPot. # 3 for  H read from file:
     /scratch/ahofstet/pseudo/H.pbe-kjpaw_psl.0.1.UPF
     MD5 check sum: 94e484f906d9e9773b2f6e52662335b2
     Pseudo is Projector augmented-wave, Zval =  1.0
     Generated using "atomic" code by A. Dal Corso  v.5.0.99 svn rev. 10869
     Shape of augmentation charge: PSQ
     Using radial grid of  929 points,  2 beta functions with: 
                l(1) =   0
                l(2) =   0
     Q(r) pseudized with 0 coefficients 


     PseudoPot. # 4 for  O read from file:
     /scratch/ahofstet/pseudo/O.pbe-n-kjpaw_psl.0.1.UPF
     MD5 check sum: 3f94a2996a3169367d6eb21d9b593f20
     Pseudo is Projector augmented-wave + core cor, Zval =  6.0
     Generated using "atomic" code by A. Dal Corso  v.5.0.99 svn rev. 10869
     Shape of augmentation charge: BESSEL
     Using radial grid of 1095 points,  4 beta functions with: 
                l(1) =   0
                l(2) =   0
                l(3) =   1
                l(4) =   1
     Q(r) pseudized with 0 coefficients 


     atomic species   valence    mass     pseudopotential
        C              4.00    12.01070      C( 1.00)
        N              5.00    14.00670      N( 1.00)
        H              1.00     1.00794      H( 1.00)
        O              6.00    15.99940      O( 1.00)

      2 Sym. Ops., with inversion, found



   Cartesian axes

     site n.     atom                  positions (alat units)
         1           O   tau(   1) = (   0.4505167   0.1485148   0.3376285  )
         2           O   tau(   2) = (   0.4583585   0.0534739   0.2373389  )
         3           O   tau(   3) = (   0.4887019   0.0415971   0.0456974  )
         4           O   tau(   4) = (   0.4808601   0.1366380   0.1459870  )
         5           H   tau(   5) = (   0.4246811   0.1343679   0.3642189  )
         6           H   tau(   6) = (   0.4841871   0.0392948   0.2107459  )
         7           H   tau(   7) = (   0.5145374   0.0557440   0.0191070  )
         8           H   tau(   8) = (   0.4550315   0.1508170   0.1725800  )
         9           O   tau(   9) = (   0.4964250   0.0793963   0.3647188  )
        10           O   tau(  10) = (   0.4124264   0.1744758   0.2102839  )
        11           O   tau(  11) = (   0.4427936   0.1107156   0.0186071  )
        12           O   tau(  12) = (   0.5267922   0.0156361   0.1730420  )
        13           C   tau(  13) = (   0.4908796   0.1171067   0.3355173  )
        14           C   tau(  14) = (   0.4179883   0.0220848   0.2394770  )
        15           C   tau(  15) = (   0.4483389   0.0730052   0.0478086  )
        16           C   tau(  16) = (   0.5212303   0.1680271   0.1438490  )
        17           C   tau(  17) = (   0.5296255   0.1298544   0.2936211  )
        18           C   tau(  18) = (   0.3792483   0.0348340   0.2813805  )
        19           C   tau(  19) = (   0.4095931   0.0602574   0.0897049  )
        20           C   tau(  20) = (   0.5599702   0.1552778   0.1019454  )
        21           H   tau(  21) = (   0.5462536   0.1699507   0.3001259  )
        22           H   tau(  22) = (   0.3626569   0.0749516   0.2748941  )
        23           H   tau(  23) = (   0.3929649   0.0201612   0.0832000  )
        24           H   tau(  24) = (   0.5765617   0.1151603   0.1084319  )
        25           H   tau(  25) = (   0.5077296   0.1330659   0.2572441  )
        26           H   tau(  26) = (   0.4011611   0.0380317   0.3177483  )
        27           H   tau(  27) = (   0.4314890   0.0570460   0.1260818  )
        28           H   tau(  28) = (   0.5380574   0.1520802   0.0655776  )
        29           C   tau(  29) = (   0.5707547   0.0889638   0.2909618  )
        30           C   tau(  30) = (   0.3381137  -0.0060677   0.2840241  )
        31           C   tau(  31) = (   0.3684639   0.1011480   0.0923642  )
        32           C   tau(  32) = (   0.6011049   0.1961796   0.0993019  )
        33           H   tau(  33) = (   0.5917884   0.0877451   0.3279590  )
        34           H   tau(  34) = (   0.3171092  -0.0072654   0.2470021  )
        35           H   tau(  35) = (   0.3474301   0.1023667   0.0553669  )
        36           H   tau(  36) = (   0.6221093   0.1973773   0.1363238  )
        37           H   tau(  37) = (   0.5508281   0.0501752   0.2883012  )
        38           H   tau(  38) = (   0.3580778   0.1452642   0.2867017  )
        39           H   tau(  39) = (   0.3883904   0.1399367   0.0950247  )
        40           H   tau(  40) = (   0.5811408   0.0448476   0.0966242  )
        41           C   tau(  41) = (   0.6094964   0.0942730   0.2466034  )
        42           C   tau(  42) = (   0.2993424  -0.0007377   0.3283700  )
        43           C   tau(  43) = (   0.3297222   0.0958388   0.1367225  )
        44           C   tau(  44) = (   0.6398762   0.1908495   0.0549559  )
        45           H   tau(  45) = (   0.5893242   0.0937747   0.2090282  )
        46           H   tau(  46) = (   0.3195242  -0.0012055   0.3659498  )
        47           H   tau(  47) = (   0.3498944   0.0963371   0.1742977  )
        48           H   tau(  48) = (   0.6196943   0.1913174   0.0173761  )
        49           H   tau(  49) = (   0.6293790   0.1333781   0.2493838  )
        50           H   tau(  50) = (   0.2794669   0.0383741   0.3255521  )
        51           H   tau(  51) = (   0.3098395   0.0567338   0.1339421  )
        52           H   tau(  52) = (   0.6597517   0.1517378   0.0577738  )
        53           C   tau(  53) = (   0.6488898   0.0515625   0.2495864  )
        54           C   tau(  54) = (   0.2599341   0.1466701   0.3253900  )
        55           C   tau(  55) = (   0.2903287   0.1385493   0.1337396  )
        56           C   tau(  56) = (   0.6792844   0.0434417   0.0579359  )
        57           H   tau(  57) = (   0.6283250   0.0130196   0.2449074  )
        58           H   tau(  58) = (   0.2805239   0.1081388   0.3300372  )
        59           H   tau(  59) = (   0.3108936   0.1770923   0.1384186  )
        60           H   tau(  60) = (   0.6586947   0.0819730   0.0532888  )
        61           H   tau(  61) = (   0.6654505   0.0506276   0.2888112  )
        62           H   tau(  62) = (   0.2433458   0.1457506   0.2861716  )
        63           H   tau(  63) = (   0.2737681   0.1394842   0.0945147  )
        64           H   tau(  64) = (   0.6958728   0.0443613   0.0971543  )
        65           C   tau(  65) = (   0.6939825   0.0543540   0.2115110  )
        66           C   tau(  66) = (   0.2148522  -0.0406728   0.3634908  )
        67           C   tau(  67) = (   0.2452361   0.1357578   0.1718149  )
        68           C   tau(  68) = (   0.7243663   0.2307846   0.0198351  )
        69           H   tau(  69) = (   0.6794529   0.0553868   0.1715844  )
        70           H   tau(  70) = (   0.2901723  -0.0396490   0.0200863  )
        71           H   tau(  71) = (   0.2597656   0.1347251   0.2117415  )
        72           H   tau(  72) = (   0.6490463   0.2297608   0.3632396  )
        73           H   tau(  73) = (   0.7147765   0.0925831   0.2172292  )
        74           H   tau(  74) = (   0.1940351  -0.0024514   0.3578012  )
        75           H   tau(  75) = (   0.2244421   0.0975288   0.1660968  )
        76           H   tau(  76) = (   0.7451835   0.1925632   0.0255247  )
        77           C   tau(  77) = (   0.7313148   0.0102442   0.2192016  )
        78           C   tau(  78) = (   0.1775315   0.1053190   0.3557761  )
        79           C   tau(  79) = (   0.2079037   0.1798676   0.1641243  )
        80           C   tau(  80) = (   0.7616871   0.0847928   0.0275499  )
        81           H   tau(  81) = (   0.7103711  -0.0278250   0.2129909  )
        82           H   tau(  82) = (   0.1984745   0.0672476   0.3619832  )
        83           H   tau(  83) = (   0.2288475   0.2179369   0.1703350  )
        84           H   tau(  84) = (   0.7407440   0.1228643   0.0213427  )
        85           H   tau(  85) = (   0.7438205   0.0093451   0.2600488  )
        86           H   tau(  86) = (   0.1650617   0.1044505   0.3149203  )
        87           H   tau(  87) = (   0.1953981   0.1807668   0.1232771  )
        88           H   tau(  88) = (   0.7741568   0.0856614   0.0684056  )
        89           C   tau(  89) = (   0.7793973   0.0114251   0.1846965  )
        90           C   tau(  90) = (   0.1901907  -0.0836169   0.0068919  )
        91           C   tau(  91) = (   0.1598212   0.1786868   0.1986294  )
        92           C   tau(  92) = (   0.7490279   0.2737288   0.3764340  )
        93           H   tau(  93) = (   0.7680283   0.0113161   0.1435516  )
        94           H   tau(  94) = (   0.2014875  -0.0837494   0.0480530  )
        95           H   tau(  95) = (   0.1711903   0.1787958   0.2397743  )
        96           H   tau(  96) = (   0.7377311   0.2738613   0.3352729  )
        97           H   tau(  97) = (   0.7997615   0.0497808   0.1911973  )
        98           H   tau(  98) = (   0.1698160  -0.0452644   0.0003821  )
        99           H   tau(  99) = (   0.1394570   0.1403310   0.1921286  )
       100           H   tau( 100) = (   0.7694026   0.2353763   0.3829438  )
       101           C   tau( 101) = (   0.8158512  -0.0326959   0.1957580  )
       102           C   tau( 102) = (   0.1537212   0.0623999  -0.0041736  )
       103           C   tau( 103) = (   0.1233673   0.2228077   0.1875679  )
       104           C   tau( 104) = (   0.7854973   0.1277120   0.3874996  )
       105           H   tau( 105) = (   0.7953305  -0.0708707   0.1886556  )
       106           H   tau( 106) = (   0.1741541   0.0241749   0.0029508  )
       107           H   tau( 107) = (   0.1438880   0.2609825   0.1946703  )
       108           H   tau( 108) = (   0.7650644   0.1659369   0.3803751  )
       109           H   tau( 109) = (   0.8256848  -0.0328031   0.2373012  )
       110           H   tau( 110) = (   0.0830791   0.0622896   0.3376136  )
       111           H   tau( 111) = (   0.1135338   0.2229149   0.1460248  )
       112           H   tau( 112) = (   0.8561395   0.1278222   0.0457123  )
       113           C   tau( 113) = (   0.8659135  -0.0324044   0.1640980  )
       114           C   tau( 114) = (   0.1036665  -0.1273062   0.0274917  )
       115           C   tau( 115) = (   0.0733050   0.2225162   0.2192279  )
       116           C   tau( 116) = (   0.8355521   0.3174180   0.3558342  )
       117           H   tau( 117) = (   0.8561948  -0.0314825   0.1225957  )
       118           H   tau( 118) = (   0.1133546  -0.1263786   0.0690093  )
       119           H   tau( 119) = (   0.0830237   0.2215943   0.2607302  )
       120           H   tau( 120) = (   0.8258640   0.3164905   0.3143166  )
       121           H   tau( 121) = (   0.8870596   0.0052764   0.1719977  )
       122           H   tau( 122) = (   0.0825846  -0.0896013   0.0195352  )
       123           H   tau( 123) = (   0.0521590   0.1848354   0.2113282  )
       124           H   tau( 124) = (   0.8566340   0.2797132   0.3637907  )
       125           C   tau( 125) = (   0.9009732  -0.0776490   0.1759832  )
       126           C   tau( 126) = (   0.0686187   0.0175849   0.0155441  )
       127           C   tau( 127) = (   0.0382454   0.2677608   0.2073427  )
       128           C   tau( 128) = (   0.8705999   0.1725270   0.3677819  )
       129           H   tau( 129) = (   0.9364392  -0.0771335   0.1524665  )
       130           H   tau( 130) = (   0.0331395  -0.1721431   0.0390295  )
       131           H   tau( 131) = (   0.0027794   0.2672453   0.2308594  )
       132           H   tau( 132) = (   0.9060791   0.3622550   0.3442964  )
       133           H   tau( 133) = (   0.8811742  -0.1159870   0.1683622  )
       134           H   tau( 134) = (   0.0884916  -0.0207210   0.0230994  )
       135           H   tau( 135) = (   0.0580443   0.3060989   0.2149637  )
       136           H   tau( 136) = (   0.8507269   0.2108329   0.3602265  )
       137           H   tau( 137) = (   0.9125217  -0.0780508   0.2170005  )
       138           H   tau( 138) = (   0.0570893   0.0172311  -0.0254786  )
       139           H   tau( 139) = (   0.0266969   0.2681626   0.1663254  )
       140           H   tau( 140) = (   0.8821293   0.1728807   0.4088045  )

     number of k points=     6
                       cart. coord. in units 2pi/alat
        k(    1) = (   0.0000000   0.0000000   0.0000000), wk =   0.2500000
        k(    2) = (   0.0000000   0.0000000  -1.3043730), wk =   0.2500000
        k(    3) = (   0.0000000   1.3150154   0.0000000), wk =   0.5000000
        k(    4) = (   0.0000000   1.3150154  -1.3043730), wk =   0.5000000
        k(    5) = (   0.0000000  -2.6300307   0.0000000), wk =   0.2500000
        k(    6) = (   0.0000000  -2.6300307  -1.3043730), wk =   0.2500000

     Dense  grid:  1146347 G-vectors     FFT dimensions: ( 320,  60, 125)

     Estimated max dynamical RAM per process >    1032.06MB

     Estimated total allocated dynamical RAM >    8256.46MB

     Check: negative/imaginary core charge=   -0.000002    0.000000

     Initial potential from superposition of free atoms

     starting charge  311.99732, renormalised to  312.00000
     Starting wfc are  296 randomized atomic wfcs
     Checking if some PAW data can be deallocated... 

     total cpu time spent up to now is       62.9 secs

     per-process dynamical memory:   676.2 Mb

     Self-consistent Calculation

     iteration #  1     ecut=   100.00 Ry     beta=0.50
     Davidson diagonalization with overlap
     ethr =  1.00E-02,  avg # of iterations =  3.8

     total cpu time spent up to now is      226.0 secs

     total energy              =   -1246.92922378 Ry
     Harris-Foulkes estimate   =   -1254.93021179 Ry
     estimated scf accuracy    <      15.01101160 Ry

     iteration #  2     ecut=   100.00 Ry     beta=0.50
     Davidson diagonalization with overlap
     ethr =  4.81E-03,  avg # of iterations =  3.5

     total cpu time spent up to now is      308.8 secs

     total energy              =   -1247.72134618 Ry
     Harris-Foulkes estimate   =   -1248.45789514 Ry
     estimated scf accuracy    <       1.52941623 Ry

     iteration #  3     ecut=   100.00 Ry     beta=0.50
     Davidson diagonalization with overlap
     ethr =  4.90E-04,  avg # of iterations =  5.0

     total cpu time spent up to now is      495.3 secs

     total energy              =   -1249.77483697 Ry
     Harris-Foulkes estimate   =   -1250.73322136 Ry
     estimated scf accuracy    <       3.14298535 Ry

     iteration #  4     ecut=   100.00 Ry     beta=0.50
     Davidson diagonalization with overlap
     ethr =  4.90E-04,  avg # of iterations =  1.0

     total cpu time spent up to now is      570.1 secs

     total energy              =   -1248.69102285 Ry
     Harris-Foulkes estimate   =   -1249.84098087 Ry
     estimated scf accuracy    <       1.51256748 Ry

     iteration #  5     ecut=   100.00 Ry     beta=0.50
     Davidson diagonalization with overlap
     ethr =  4.85E-04,  avg # of iterations =  4.8

     total cpu time spent up to now is      748.0 secs

     total energy              =   -1249.70650961 Ry
     Harris-Foulkes estimate   =   -1251.61804406 Ry
     estimated scf accuracy    <       5.74145437 Ry

     iteration #  6     ecut=   100.00 Ry     beta=0.50
     Davidson diagonalization with overlap
     ethr =  4.85E-04,  avg # of iterations =  1.0

     total cpu time spent up to now is      824.0 secs

     total energy              =   -1248.84001031 Ry
     Harris-Foulkes estimate   =   -1249.83335816 Ry
     estimated scf accuracy    <       2.50711067 Ry

     iteration #  7     ecut=   100.00 Ry     beta=0.50
     Davidson diagonalization with overlap
     ethr =  4.85E-04,  avg # of iterations =  4.2

     total cpu time spent up to now is      956.9 secs

     total energy              =   -1249.72010528 Ry
     Harris-Foulkes estimate   =   -1249.72511406 Ry
     estimated scf accuracy    <       0.01069846 Ry

     iteration #  8     ecut=   100.00 Ry     beta=0.50
     Davidson diagonalization with overlap
     c_bands:  4 eigenvalues not converged
     c_bands:  3 eigenvalues not converged
     ethr =  3.43E-06,  avg # of iterations = 11.0

     total cpu time spent up to now is     1145.3 secs

     total energy              =   -1249.72679511 Ry
     Harris-Foulkes estimate   =   -1249.72688864 Ry
     estimated scf accuracy    <       0.00054424 Ry

     iteration #  9     ecut=   100.00 Ry     beta=0.50
     Davidson diagonalization with overlap
     c_bands:  3 eigenvalues not converged
     c_bands:  2 eigenvalues not converged
     c_bands:  1 eigenvalues not converged
     ethr =  1.74E-07,  avg # of iterations = 19.0

     total cpu time spent up to now is     1278.3 secs

     total energy              =   -1249.72685576 Ry
     Harris-Foulkes estimate   =   -1249.72687997 Ry
     estimated scf accuracy    <       0.00006826 Ry

     iteration # 10     ecut=   100.00 Ry     beta=0.50
     Davidson diagonalization with overlap
     ethr =  2.19E-08,  avg # of iterations =  4.2

     total cpu time spent up to now is     1373.3 secs

     total energy              =   -1249.72687908 Ry
     Harris-Foulkes estimate   =   -1249.72687162 Ry
     estimated scf accuracy    <       0.00000709 Ry

     iteration # 11     ecut=   100.00 Ry     beta=0.50
     Davidson diagonalization with overlap
     ethr =  2.27E-09,  avg # of iterations =  4.0

     total cpu time spent up to now is     1531.3 secs

     total energy              =   -1249.72687050 Ry
     Harris-Foulkes estimate   =   -1249.72688588 Ry
     estimated scf accuracy    <       0.00003496 Ry

     iteration # 12     ecut=   100.00 Ry     beta=0.50
     Davidson diagonalization with overlap
     ethr =  2.27E-09,  avg # of iterations =  5.8

     total cpu time spent up to now is     1675.6 secs

     total energy              =   -1249.72687454 Ry
     Harris-Foulkes estimate   =   -1249.72687514 Ry
     estimated scf accuracy    <       0.00000119 Ry

     iteration # 13     ecut=   100.00 Ry     beta=0.50
     Davidson diagonalization with overlap
     ethr =  3.81E-10,  avg # of iterations =  1.5

     total cpu time spent up to now is     1752.1 secs

     total energy              =   -1249.72687457 Ry
     Harris-Foulkes estimate   =   -1249.72687463 Ry
     estimated scf accuracy    <       0.00000018 Ry

     iteration # 14     ecut=   100.00 Ry     beta=0.50
     Davidson diagonalization with overlap
     ethr =  5.75E-11,  avg # of iterations =  4.0

     total cpu time spent up to now is     1919.2 secs

     total energy              =   -1249.72687483 Ry
     Harris-Foulkes estimate   =   -1249.72687485 Ry
     estimated scf accuracy    <       0.00000012 Ry

     iteration # 15     ecut=   100.00 Ry     beta=0.50
     Davidson diagonalization with overlap
     ethr =  3.84E-11,  avg # of iterations =  1.0

     total cpu time spent up to now is     1994.5 secs

     total energy              =   -1249.72687480 Ry
     Harris-Foulkes estimate   =   -1249.72687483 Ry
     estimated scf accuracy    <       0.00000008 Ry

     iteration # 16     ecut=   100.00 Ry     beta=0.50
     Davidson diagonalization with overlap
     ethr =  2.48E-11,  avg # of iterations =  4.2

     total cpu time spent up to now is     2089.3 secs

     End of self-consistent calculation

          k = 0.0000 0.0000 0.0000 (143317 PWs)   bands (ev):

   -22.8638 -22.8083 -22.5125 -22.4581 -20.5075 -20.4877 -20.1551 -20.1375
   -15.3260 -15.3230 -15.2559 -15.2346 -14.9557 -14.9500 -14.9395 -14.9101
   -14.3487 -14.3323 -14.3060 -14.2853 -13.5287 -13.4842 -13.4375 -13.4282
   -12.5319 -12.4863 -12.4203 -12.3845 -11.3313 -11.3146 -11.1305 -11.0892
   -10.3899 -10.3313 -10.1827 -10.1559  -9.4072  -9.3603  -9.2968  -9.2691
    -9.0226  -9.0187  -8.8770  -8.8270  -8.8037  -8.7247  -8.7046  -8.6989
    -8.6478  -8.6420  -8.5850  -8.5772  -7.9637  -7.9623  -7.0684  -7.0371
    -7.0165  -6.8743  -6.7826  -6.7571  -6.6331  -6.5824  -6.5589  -6.5407
    -6.4860  -6.3937  -6.3495  -6.3484  -6.1672  -6.1296  -6.0690  -6.0672
    -5.6914  -5.6858  -5.6759  -5.6660  -5.6387  -5.6168  -5.5321  -5.4936
    -5.4887  -5.4846  -5.4706  -5.4269  -5.1103  -5.0732  -5.0424  -4.9463
    -4.8434  -4.8335  -4.8104  -4.7938  -4.7575  -4.7532  -4.6804  -4.6592
    -4.4960  -4.4831  -4.3446  -4.3107  -4.2154  -4.2052  -3.9811  -3.8601
    -3.8217  -3.8153  -3.8082  -3.7720  -3.7279  -3.7070  -3.6959  -3.6848
    -3.5510  -3.5499  -3.5309  -3.4834  -3.4725  -3.4389  -3.4100  -3.3586
    -3.3289  -3.2658  -3.2495  -3.2282  -3.1918  -3.1452  -3.1412  -3.1073
    -3.0746  -3.0554  -3.0040  -2.9701  -2.9563  -2.9549  -2.9217  -2.8645
    -2.8407  -2.8102  -2.7471  -2.6659  -2.6575  -2.5489  -2.4976  -2.4157
    -2.3031  -2.2964  -2.1559  -2.1554  -2.1490  -2.1354  -1.9810  -1.9740
    -1.8771  -1.7662  -1.5899  -1.5518   3.6827   3.8493   3.8505   3.9943
     4.0429   4.7374   5.0215   5.0994   5.1567   5.1675   5.2765   5.3951
     5.4559   5.4956   5.7793   5.8190   5.8836   5.9124   6.0030   6.4189
     6.5598   6.6703   6.7122   7.0040   7.2185   7.2340   7.2632   7.3335
     7.5344   7.6482   7.6541

          k = 0.0000 0.0000-1.3044 (143226 PWs)   bands (ev):

   -22.8383 -22.8381 -22.4837 -22.4825 -20.4985 -20.4972 -20.1472 -20.1449
   -15.2930 -15.2921 -15.2804 -15.2796 -14.9518 -14.9513 -14.9246 -14.9243
   -14.3378 -14.3369 -14.3000 -14.2992 -13.4944 -13.4942 -13.4452 -13.4447
   -12.4861 -12.4856 -12.4257 -12.4251 -11.2985 -11.2978 -11.1396 -11.1385
   -10.3242 -10.3233 -10.2061 -10.2049  -9.3529  -9.3527  -9.3134  -9.3132
    -8.9188  -8.9179  -8.8559  -8.8555  -8.7949  -8.7946  -8.7467  -8.7458
    -8.6534  -8.6531  -8.6054  -8.6048  -7.9516  -7.9506  -7.0300  -7.0297
    -6.9400  -6.9400  -6.8374  -6.8368  -6.6536  -6.6532  -6.5124  -6.5118
    -6.4746  -6.4741  -6.3814  -6.3808  -6.1072  -6.1066  -6.0603  -6.0599
    -5.6994  -5.6979  -5.6821  -5.6818  -5.5774  -5.5773  -5.5271  -5.5264
    -5.4613  -5.4610  -5.4146  -5.4143  -5.0378  -5.0373  -4.9417  -4.9412
    -4.9361  -4.9355  -4.8453  -4.8452  -4.7436  -4.7419  -4.6368  -4.6353
    -4.4532  -4.4523  -4.3250  -4.3242  -4.2581  -4.2577  -3.9308  -3.9300
    -3.7991  -3.7983  -3.7748  -3.7746  -3.7685  -3.7683  -3.7346  -3.7346
    -3.5247  -3.5243  -3.4886  -3.4877  -3.4190  -3.4183  -3.4107  -3.4101
    -3.2975  -3.2969  -3.2773  -3.2769  -3.2207  -3.2206  -3.0653  -3.0652
    -3.0059  -3.0057  -2.9270  -2.9260  -2.8718  -2.8716  -2.8235  -2.8235
    -2.7893  -2.7889  -2.6619  -2.6610  -2.6144  -2.6119  -2.4971  -2.4970
    -2.3309  -2.3300  -2.3084  -2.3078  -2.1535  -2.1531  -2.1116  -2.1107
    -1.8226  -1.8215  -1.5721  -1.5713   3.7245   3.7246   3.9828   3.9832
     4.2933   4.2944   5.0129   5.0145   5.1308   5.1323   5.3610   5.3617
     5.6533   5.6535   5.7021   5.7028   6.2035   6.2039   6.4555   6.4561
     6.5888   6.5906   6.9967   6.9968   7.1213   7.1220   7.2773   7.2778
     7.4278   7.4280   7.6015

          k = 0.0000 1.3150 0.0000 (143232 PWs)   bands (ev):

   -22.8409 -22.8011 -22.5078 -22.4694 -20.5225 -20.5078 -20.1530 -20.1406
   -15.2634 -15.2606 -15.2012 -15.1846 -14.9162 -14.8918 -14.8784 -14.8775
   -14.3176 -14.2951 -14.2708 -14.2660 -13.4992 -13.4682 -13.4383 -13.4338
   -12.5078 -12.4832 -12.4452 -12.4270 -11.3208 -11.3083 -11.2073 -11.1778
   -10.3708 -10.3331 -10.2766 -10.2429  -9.4309  -9.4049  -9.4015  -9.3763
    -9.2326  -9.2302  -9.0801  -9.0779  -9.0037  -8.9854  -8.9139  -8.8870
    -8.7486  -8.7290  -8.6770  -8.6746  -7.9423  -7.9376  -7.2634  -7.1650
    -7.1261  -7.0205  -6.9303  -6.9226  -6.7907  -6.7785  -6.7666  -6.6850
    -6.6691  -6.6040  -6.5432  -6.4945  -6.2485  -6.2457  -6.2341  -6.1637
    -5.7398  -5.7386  -5.6887  -5.6805  -5.6463  -5.6427  -5.5802  -5.5714
    -5.4459  -5.4020  -5.3366  -5.3182  -5.0764  -5.0308  -4.9766  -4.9531
    -4.8604  -4.8243  -4.7972  -4.7536  -4.6258  -4.6080  -4.5317  -4.5243
    -4.4650  -4.4582  -4.2241  -4.2133  -4.1378  -4.1104  -3.9851  -3.9230
    -3.7953  -3.7877  -3.7625  -3.7349  -3.4980  -3.4843  -3.4766  -3.4545
    -3.4114  -3.3991  -3.3369  -3.3351  -3.2778  -3.2517  -3.2263  -3.2232
    -3.1526  -3.1502  -3.0924  -3.0647  -3.0366  -2.9263  -2.9240  -2.9099
    -2.8950  -2.8544  -2.8262  -2.7442  -2.7264  -2.7107  -2.6100  -2.5123
    -2.4751  -2.4494  -2.4087  -2.3816  -2.3013  -2.2859  -2.1686  -2.1552
    -2.1137  -2.1032  -2.0415  -2.0413  -1.9184  -1.9014  -1.8632  -1.8165
    -1.7878  -1.7656  -1.5732  -1.5527   3.5793   3.7320   3.8914   4.0134
     4.1444   4.6856   4.7490   4.9786   5.2255   5.3280   5.4022   5.4536
     5.4601   5.5412   5.7405   5.8590   5.8709   6.0211   6.1316   6.2860
     6.3525   6.4094   6.6169   6.6531   6.7660   6.8271   6.8415   6.8737
     6.9582   6.9855   7.0683

          k = 0.0000 1.3150-1.3044 (143298 PWs)   bands (ev):

   -22.8223 -22.8220 -22.4880 -22.4869 -20.5159 -20.5146 -20.1478 -20.1455
   -15.2356 -15.2346 -15.2221 -15.2211 -14.9054 -14.9048 -14.8758 -14.8754
   -14.3119 -14.3109 -14.2643 -14.2635 -13.4955 -13.4952 -13.4228 -13.4224
   -12.5160 -12.5155 -12.4142 -12.4136 -11.3421 -11.3413 -11.1615 -11.1603
   -10.3964 -10.3955 -10.2211 -10.2198  -9.4480  -9.4477  -9.3609  -9.3602
    -9.1391  -9.1383  -9.1207  -9.1202  -9.0065  -9.0064  -8.9301  -8.9295
    -8.7384  -8.7380  -8.6967  -8.6965  -7.9439  -7.9429  -7.2012  -7.2008
    -7.0272  -7.0268  -6.9533  -6.9527  -6.8241  -6.8233  -6.7317  -6.7308
    -6.6354  -6.6345  -6.5107  -6.5099  -6.2954  -6.2949  -6.2164  -6.2161
    -5.7096  -5.7091  -5.6693  -5.6691  -5.6427  -5.6425  -5.5811  -5.5807
    -5.4037  -5.4035  -5.3311  -5.3307  -5.0745  -5.0738  -4.9096  -4.9090
    -4.8259  -4.8252  -4.7437  -4.7433  -4.6662  -4.6658  -4.5665  -4.5650
    -4.4517  -4.4513  -4.1839  -4.1833  -4.1467  -4.1462  -3.9521  -3.9511
    -3.7934  -3.7928  -3.7431  -3.7419  -3.4863  -3.4858  -3.4515  -3.4510
    -3.4208  -3.4203  -3.3359  -3.3352  -3.2825  -3.2814  -3.2242  -3.2232
    -3.1006  -3.0999  -3.0003  -2.9997  -2.9734  -2.9731  -2.8978  -2.8973
    -2.8390  -2.8384  -2.7394  -2.7379  -2.6903  -2.6886  -2.5615  -2.5606
    -2.4603  -2.4596  -2.4400  -2.4395  -2.3293  -2.3290  -2.2808  -2.2804
    -2.1361  -2.1360  -2.1039  -2.1033  -1.8858  -1.8852  -1.8573  -1.8571
    -1.8074  -1.8067  -1.5670  -1.5663   3.6491   3.6492   3.9520   3.9526
     4.4245   4.4259   4.9006   4.9021   5.0509   5.0519   5.4014   5.4020
     5.6854   5.6864   5.8867   5.8873   6.1072   6.1086   6.3177   6.3183
     6.4692   6.4702   6.5362   6.5370   6.7704   6.7711   6.8632   6.8636
     6.9986   6.9993   7.1221

          k = 0.0000-2.6300 0.0000 (143290 PWs)   bands (ev):

   -22.8054 -22.8050 -22.4932 -22.4921 -20.5330 -20.5317 -20.1489 -20.1466
   -15.1935 -15.1933 -15.1370 -15.1368 -14.8613 -14.8609 -14.8202 -14.8200
   -14.2799 -14.2790 -14.2362 -14.2354 -13.4885 -13.4883 -13.4174 -13.4170
   -12.5292 -12.5287 -12.4294 -12.4288 -11.3665 -11.3657 -11.2120 -11.2108
   -10.4160 -10.4151 -10.2712 -10.2698  -9.4947  -9.4944  -9.4637  -9.4635
    -9.4081  -9.4079  -9.2845  -9.2841  -9.0709  -9.0705  -9.0310  -9.0308
    -8.9672  -8.9660  -8.9016  -8.9013  -7.9207  -7.9197  -7.3267  -7.3265
    -7.2288  -7.2280  -6.9808  -6.9804  -6.9226  -6.9222  -6.8812  -6.8805
    -6.6613  -6.6608  -6.5269  -6.5261  -6.3801  -6.3795  -6.2938  -6.2933
    -5.8072  -5.8071  -5.7040  -5.7037  -5.6179  -5.6174  -5.5685  -5.5676
    -5.3940  -5.3938  -5.3440  -5.3434  -5.0842  -5.0841  -5.0533  -5.0530
    -4.9625  -4.9621  -4.7587  -4.7585  -4.6775  -4.6770  -4.4050  -4.4041
    -4.3639  -4.3637  -4.3006  -4.3000  -4.2406  -4.2399  -3.9107  -3.9088
    -3.6498  -3.6493  -3.6064  -3.6057  -3.3892  -3.3889  -3.3028  -3.3025
    -3.2145  -3.2142  -3.1688  -3.1684  -3.1286  -3.1277  -3.1083  -3.1074
    -2.9326  -2.9324  -2.9080  -2.9077  -2.7571  -2.7564  -2.6956  -2.6951
    -2.5983  -2.5980  -2.5293  -2.5287  -2.4689  -2.4688  -2.2643  -2.2642
    -2.2095  -2.2094  -2.1321  -2.1318  -2.1165  -2.1163  -2.0694  -2.0691
    -1.8706  -1.8697  -1.7234  -1.7229  -1.7055  -1.7050  -1.5564  -1.5559
    -1.3465  -1.3462  -1.3255  -1.3251   3.5564   3.5564   3.9168   3.9173
     4.7146   4.7147   4.8513   4.8515   5.1080   5.1086   5.4900   5.4906
     5.6841   5.6848   5.8207   5.8213   5.8732   5.8737   6.0004   6.0006
     6.1143   6.1149   6.1802   6.1812   6.2638   6.2640   6.3467   6.3470
     6.4747   6.4753   6.5322

          k = 0.0000-2.6300-1.3044 (143344 PWs)   bands (ev):

   -22.8053 -22.8050 -22.4932 -22.4921 -20.5329 -20.5316 -20.1489 -20.1466
   -15.1728 -15.1716 -15.1600 -15.1588 -14.8517 -14.8511 -14.8291 -14.8286
   -14.2749 -14.2740 -14.2429 -14.2421 -13.4744 -13.4742 -13.4310 -13.4306
   -12.5059 -12.5054 -12.4524 -12.4517 -11.3347 -11.3339 -11.2482 -11.2470
   -10.3775 -10.3764 -10.3068 -10.3055  -9.4784  -9.4779  -9.4528  -9.4524
    -9.3610  -9.3603  -9.3149  -9.3141  -9.0853  -9.0843  -9.0701  -9.0689
    -8.9506  -8.9496  -8.9178  -8.9173  -7.9304  -7.9294  -7.2953  -7.2947
    -7.1832  -7.1826  -7.0321  -7.0315  -6.9379  -6.9371  -6.8310  -6.8299
    -6.6880  -6.6872  -6.4857  -6.4850  -6.4134  -6.4125  -6.3848  -6.3840
    -5.7591  -5.7591  -5.7198  -5.7196  -5.6155  -5.6141  -5.5706  -5.5704
    -5.4046  -5.4036  -5.3218  -5.3215  -5.1099  -5.1090  -5.0408  -5.0402
    -4.9380  -4.9379  -4.8487  -4.8476  -4.5601  -4.5598  -4.4064  -4.4056
    -4.3570  -4.3559  -4.3015  -4.3007  -4.2574  -4.2570  -3.9276  -3.9262
    -3.6503  -3.6495  -3.6286  -3.6276  -3.3192  -3.3187  -3.3063  -3.3059
    -3.1631  -3.1626  -3.1603  -3.1592  -3.1153  -3.1151  -3.1027  -3.1022
    -2.8264  -2.8246  -2.8015  -2.8002  -2.7704  -2.7698  -2.6701  -2.6690
    -2.5982  -2.5973  -2.5749  -2.5741  -2.5056  -2.5050  -2.5025  -2.5020
    -2.1887  -2.1883  -2.1696  -2.1692  -2.1131  -2.1124  -2.0842  -2.0839
    -1.8669  -1.8660  -1.7395  -1.7390  -1.7170  -1.7165  -1.5601  -1.5596
    -1.3419  -1.3409  -1.3346  -1.3336   3.5674   3.5675   3.8950   3.8956
     4.8707   4.8714   4.9418   4.9427   5.1848   5.1864   5.2365   5.2369
     5.4899   5.4911   5.6574   5.6584   5.7461   5.7464   6.0017   6.0030
     6.1813   6.1828   6.2232   6.2244   6.4692   6.4701   6.6589   6.6597
     6.7257   6.7278   6.7521

     highest occupied, lowest unoccupied level (ev):    -1.3251    3.5564

!    total energy              =   -1249.72687481 Ry
     Harris-Foulkes estimate   =   -1249.72687481 Ry
     estimated scf accuracy    <          3.7E-09 Ry

     total all-electron energy =     -4662.122096 Ry

     The total energy is the sum of the following terms:

     one-electron contribution =   -2077.24460333 Ry
     hartree contribution      =    1140.26024199 Ry
     xc contribution           =    -305.31871936 Ry
     ewald contribution        =     361.83640498 Ry
     Dispersion Correction     =      -0.54485411 Ry
     one-center paw contrib.   =    -368.71534499 Ry

     convergence has been achieved in  16 iterations

     Forces acting on atoms (cartesian axes, Ry/au):

     atom    1 type  4   force =    -0.00177418   -0.00352183    0.00378458
     atom    2 type  4   force =     0.00175638   -0.00348689   -0.00370038
     atom    3 type  4   force =     0.00177418    0.00352183   -0.00378458
     atom    4 type  4   force =    -0.00175638    0.00348689    0.00370038
     atom    5 type  3   force =     0.00005138   -0.00027756   -0.00121155
     atom    6 type  3   force =    -0.00011404   -0.00023199    0.00123197
     atom    7 type  3   force =    -0.00005138    0.00027756    0.00121155
     atom    8 type  3   force =     0.00011404    0.00023199   -0.00123197
     atom    9 type  4   force =    -0.00199520    0.00206185   -0.00024993
     atom   10 type  4   force =     0.00193160    0.00217117    0.00034299
     atom   11 type  4   force =     0.00199520   -0.00206185    0.00024993
     atom   12 type  4   force =    -0.00193160   -0.00217117   -0.00034299
     atom   13 type  1   force =     0.00333025    0.00129068   -0.00286195
     atom   14 type  1   force =    -0.00332686    0.00106662    0.00271396
     atom   15 type  1   force =    -0.00333025   -0.00129068    0.00286195
     atom   16 type  1   force =     0.00332686   -0.00106662   -0.00271396
     atom   17 type  1   force =    -0.00419324    0.03783102    0.00852801
     atom   18 type  1   force =     0.00427864    0.03781052   -0.00857359
     atom   19 type  1   force =     0.00419324   -0.03783102   -0.00852801
     atom   20 type  1   force =    -0.00427864   -0.03781052    0.00857359
     atom   21 type  3   force =    -0.01442157   -0.03432569    0.00201083
     atom   22 type  3   force =     0.01427304   -0.03447778   -0.00203173
     atom   23 type  3   force =     0.01442157    0.03432569   -0.00201083
     atom   24 type  3   force =    -0.01427304    0.03447778    0.00203173
     atom   25 type  3   force =     0.00041567   -0.00066851    0.00031264
     atom   26 type  3   force =    -0.00045128   -0.00073244   -0.00025241
     atom   27 type  3   force =    -0.00041567    0.00066851   -0.00031264
     atom   28 type  3   force =     0.00045128    0.00073244    0.00025241
     atom   29 type  1   force =     0.00324484   -0.03760270   -0.00777196
     atom   30 type  1   force =    -0.00314836   -0.03729477    0.00779230
     atom   31 type  1   force =    -0.00324484    0.03760270    0.00777196
     atom   32 type  1   force =     0.00314836    0.03729477   -0.00779230
     atom   33 type  3   force =     0.00114500    0.00136956    0.00048385
     atom   34 type  3   force =    -0.00109832    0.00119485   -0.00026228
     atom   35 type  3   force =    -0.00114500   -0.00136956   -0.00048385
     atom   36 type  3   force =     0.00109832   -0.00119485    0.00026228
     atom   37 type  3   force =     0.01614144    0.02949651   -0.00229685
     atom   38 type  3   force =    -0.01647987    0.02968896    0.00225371
     atom   39 type  3   force =    -0.01614144   -0.02949651    0.00229685
     atom   40 type  3   force =     0.01647987   -0.02968896   -0.00225371
     atom   41 type  1   force =     0.00094509    0.04464532    0.00548580
     atom   42 type  1   force =    -0.00078272    0.04475338   -0.00562671
     atom   43 type  1   force =    -0.00094509   -0.04464532   -0.00548580
     atom   44 type  1   force =     0.00078272   -0.04475338    0.00562671
     atom   45 type  3   force =    -0.00059498   -0.00151944   -0.00006236
     atom   46 type  3   force =     0.00035350   -0.00159699   -0.00011621
     atom   47 type  3   force =     0.00059498    0.00151944    0.00006236
     atom   48 type  3   force =    -0.00035350    0.00159699    0.00011621
     atom   49 type  3   force =    -0.01445560   -0.03475429   -0.00204836
     atom   50 type  3   force =     0.01453960   -0.03485335    0.00211532
     atom   51 type  3   force =     0.01445560    0.03475429    0.00204836
     atom   52 type  3   force =    -0.01453960    0.03485335   -0.00211532
     atom   53 type  1   force =     0.00099124   -0.04242970   -0.00641573
     atom   54 type  1   force =    -0.00084995   -0.04225038    0.00642419
     atom   55 type  1   force =    -0.00099124    0.04242970    0.00641573
     atom   56 type  1   force =     0.00084995    0.04225038   -0.00642419
     atom   57 type  3   force =     0.01573575    0.03308201    0.00142856
     atom   58 type  3   force =    -0.01587607    0.03295306   -0.00137142
     atom   59 type  3   force =    -0.01573575   -0.03308201   -0.00142856
     atom   60 type  3   force =     0.01587607   -0.03295306    0.00137142
     atom   61 type  3   force =     0.00067288    0.00007130    0.00235807
     atom   62 type  3   force =    -0.00055104    0.00009742   -0.00224027
     atom   63 type  3   force =    -0.00067288   -0.00007130   -0.00235807
     atom   64 type  3   force =     0.00055104   -0.00009742    0.00224027
     atom   65 type  1   force =     0.00223833    0.04295686    0.00765890
     atom   66 type  1   force =    -0.00220039    0.04286344   -0.00771366
     atom   67 type  1   force =    -0.00223833   -0.04295686   -0.00765890
     atom   68 type  1   force =     0.00220039   -0.04286344    0.00771366
     atom   69 type  3   force =    -0.00129877   -0.00134692   -0.00231918
     atom   70 type  3   force =     0.00132641   -0.00137588    0.00234739
     atom   71 type  3   force =     0.00129877    0.00134692    0.00231918
     atom   72 type  3   force =    -0.00132641    0.00137588   -0.00234739
     atom   73 type  3   force =    -0.01387704   -0.03311624   -0.00360568
     atom   74 type  3   force =     0.01394343   -0.03311698    0.00353527
     atom   75 type  3   force =     0.01387704    0.03311624    0.00360568
     atom   76 type  3   force =    -0.01394343    0.03311698   -0.00353527
     atom   77 type  1   force =    -0.00261595   -0.04208172   -0.00587170
     atom   78 type  1   force =     0.00262100   -0.04195719    0.00575380
     atom   79 type  1   force =     0.00261595    0.04208172    0.00587170
     atom   80 type  1   force =    -0.00262100    0.04195719   -0.00575380
     atom   81 type  3   force =     0.01413050    0.03258911    0.00348652
     atom   82 type  3   force =    -0.01417459    0.03264398   -0.00346098
     atom   83 type  3   force =    -0.01413050   -0.03258911   -0.00348652
     atom   84 type  3   force =     0.01417459   -0.03264398    0.00346098
     atom   85 type  3   force =     0.00070350    0.00082747    0.00114375
     atom   86 type  3   force =    -0.00072197    0.00072380   -0.00125433
     atom   87 type  3   force =    -0.00070350   -0.00082747   -0.00114375
     atom   88 type  3   force =     0.00072197   -0.00072380    0.00125433
     atom   89 type  1   force =     0.00169944    0.04282135    0.00446216
     atom   90 type  1   force =    -0.00157856    0.04275557   -0.00429612
     atom   91 type  1   force =    -0.00169944   -0.04282135   -0.00446216
     atom   92 type  1   force =     0.00157856   -0.04275557    0.00429612
     atom   93 type  3   force =    -0.00135583   -0.00065826   -0.00138707
     atom   94 type  3   force =     0.00151911   -0.00051949    0.00149266
     atom   95 type  3   force =     0.00135583    0.00065826    0.00138707
     atom   96 type  3   force =    -0.00151911    0.00051949   -0.00149266
     atom   97 type  3   force =    -0.01267116   -0.03459315   -0.00590455
     atom   98 type  3   force =     0.01282780   -0.03460822    0.00588007
     atom   99 type  3   force =     0.01267116    0.03459315    0.00590455
     atom  100 type  3   force =    -0.01282780    0.03460822   -0.00588007
     atom  101 type  1   force =    -0.00000878   -0.04289620   -0.00419101
     atom  102 type  1   force =    -0.00014607   -0.04283141    0.00426607
     atom  103 type  1   force =     0.00000878    0.04289620    0.00419101
     atom  104 type  1   force =     0.00014607    0.04283141   -0.00426607
     atom  105 type  3   force =     0.01336424    0.03381029    0.00552069
     atom  106 type  3   force =    -0.01319899    0.03409373   -0.00556559
     atom  107 type  3   force =    -0.01336424   -0.03381029   -0.00552069
     atom  108 type  3   force =     0.01319899   -0.03409373    0.00556559
     atom  109 type  3   force =     0.00095505    0.00013203    0.00134672
     atom  110 type  3   force =    -0.00086517    0.00014297   -0.00125353
     atom  111 type  3   force =    -0.00095505   -0.00013203   -0.00134672
     atom  112 type  3   force =     0.00086517   -0.00014297    0.00125353
     atom  113 type  1   force =     0.00401078    0.04203563    0.00605859
     atom  114 type  1   force =    -0.00408978    0.04206497   -0.00621436
     atom  115 type  1   force =    -0.00401078   -0.04203563   -0.00605859
     atom  116 type  1   force =     0.00408978   -0.04206497    0.00621436
     atom  117 type  3   force =    -0.00054041   -0.00086996   -0.00143364
     atom  118 type  3   force =     0.00053328   -0.00091822    0.00117929
     atom  119 type  3   force =     0.00054041    0.00086996    0.00143364
     atom  120 type  3   force =    -0.00053328    0.00091822   -0.00117929
     atom  121 type  3   force =    -0.01507675   -0.03478547   -0.00654761
     atom  122 type  3   force =     0.01498072   -0.03480112    0.00670737
     atom  123 type  3   force =     0.01507675    0.03478547    0.00654761
     atom  124 type  3   force =    -0.01498072    0.03480112   -0.00670737
     atom  125 type  1   force =    -0.00543492   -0.03981284   -0.00328763
     atom  126 type  1   force =     0.00537998   -0.04010510    0.00315466
     atom  127 type  1   force =     0.00543492    0.03981284    0.00328763
     atom  128 type  1   force =    -0.00537998    0.04010510   -0.00315466
     atom  129 type  3   force =     0.00039227    0.00082050    0.00091863
     atom  130 type  3   force =    -0.00051084    0.00101415   -0.00067849
     atom  131 type  3   force =    -0.00039227   -0.00082050   -0.00091863
     atom  132 type  3   force =     0.00051084   -0.00101415    0.00067849
     atom  133 type  3   force =     0.01313825    0.03656690    0.00438856
     atom  134 type  3   force =    -0.01327277    0.03625813   -0.00434098
     atom  135 type  3   force =    -0.01313825   -0.03656690   -0.00438856
     atom  136 type  3   force =     0.01327277   -0.03625813    0.00434098
     atom  137 type  3   force =     0.00041543    0.00134111    0.00012407
     atom  138 type  3   force =    -0.00038025    0.00135819   -0.00016071
     atom  139 type  3   force =    -0.00041543   -0.00134111   -0.00012407
     atom  140 type  3   force =     0.00038025   -0.00135819    0.00016071

     Total force =     0.354828     Total SCF correction =     0.000091


     Computing stress (Cartesian axis) and pressure

          total   stress  (Ry/bohr**3)                   (kbar)     P=   -7.22
  -0.00000777   0.00000035  -0.00001128         -1.14      0.05     -1.66
   0.00000035  -0.00012759  -0.00000001          0.05    -18.77     -0.00
  -0.00001128  -0.00000001  -0.00001195         -1.66     -0.00     -1.76


     Writing output data file scf.save
 
     init_run     :     60.25s CPU     62.26s WALL (       1 calls)
     electrons    :   1956.84s CPU   2026.60s WALL (       1 calls)
     forces       :     30.56s CPU     30.91s WALL (       1 calls)
     stress       :    122.86s CPU    123.35s WALL (       1 calls)

     Called by init_run:
     wfcinit      :     45.92s CPU     47.72s WALL (       1 calls)
     potinit      :      4.94s CPU      4.97s WALL (       1 calls)

     Called by electrons:
     c_bands      :   1771.97s CPU   1831.36s WALL (      16 calls)
     sum_band     :    165.81s CPU    174.01s WALL (      16 calls)
     v_of_rho     :      2.88s CPU      3.16s WALL (      17 calls)
     newd         :      7.86s CPU      9.78s WALL (      17 calls)
     PAW_pot      :      7.42s CPU      7.42s WALL (      17 calls)
     mix_rho      :      0.75s CPU      0.80s WALL (      16 calls)

     Called by c_bands:
     init_us_2    :      9.18s CPU      9.23s WALL (     210 calls)
     cegterg      :   1740.87s CPU   1800.17s WALL (      96 calls)

     Called by sum_band:
     sum_band:bec :      0.07s CPU      0.07s WALL (      96 calls)
     addusdens    :      7.98s CPU      9.71s WALL (      16 calls)

     Called by *egterg:
     h_psi        :    914.34s CPU    962.84s WALL (     570 calls)
     s_psi        :    224.95s CPU    225.01s WALL (     570 calls)
     g_psi        :      4.45s CPU      4.45s WALL (     468 calls)
     cdiaghg      :     72.64s CPU     72.64s WALL (     564 calls)

     Called by h_psi:
     h_psi:pot    :    907.99s CPU    956.38s WALL (     570 calls)
     h_psi:calbec :    216.23s CPU    216.46s WALL (     570 calls)
     vloc_psi     :    466.19s CPU    514.28s WALL (     570 calls)
     add_vuspsi   :    225.56s CPU    225.64s WALL (     570 calls)

     General routines
     calbec       :    303.88s CPU    304.22s WALL (     696 calls)
     fft          :      2.00s CPU      2.46s WALL (     245 calls)
     fftw         :    478.77s CPU    532.90s WALL (  131560 calls)
 
     Parallel routines
     fft_scatter  :    107.31s CPU    160.39s WALL (  131805 calls)
 
     PWSCF        : 36m21.74s CPU    38m23.58s WALL

 
   This run was terminated on:  15:23: 9  18Dec2017            

=------------------------------------------------------------------------------=
   JOB DONE.
=------------------------------------------------------------------------------=
